Title
55513
    1DOPE     N    1   4.670   4.546  16.860 -0.4074  0.4287  0.2319
    1DOPE   HN1    2   4.729   4.467  16.828  0.3948  0.5073  1.4594
    1DOPE   HN2    3   4.601   4.561  16.783  0.9626  0.4395 -1.0469
    1DOPE   HN3    4   4.733   4.628  16.864  0.6403 -0.4011  1.8244
    1DOPE   C12    5   4.588   4.511  16.983 -0.4940 -0.4592  0.4339
    1DOPE  H12A    6   4.552   4.609  17.021 -0.6351 -0.4313  0.2262
    1DOPE  H12B    7   4.661   4.461  17.050  3.2399  1.9112 -1.5038
    1DOPE   C11    8   4.471   4.414  16.945  0.2038  0.5868 -0.3202
    1DOPE  H11A    9   4.405   4.471  16.876 -0.3961 -2.0430 -2.0890
    1DOPE  H11B   10   4.404   4.397  17.032  0.4212  0.5670 -0.1551
    1DOPE     P   11   4.416   4.169  16.879 -0.1661 -0.0451  0.5203
    1DOPE   O13   12   4.318   4.169  16.991 -0.7383 -0.0812 -0.4414
    1DOPE   O14   13   4.507   4.053  16.867  0.1630 -0.1281 -0.6041
    1DOPE   O11   14   4.340   4.191  16.738 -0.1086  0.5499  0.3548
    1DOPE   O12   15   4.513   4.290  16.881 -0.3107  0.7737 -0.3502
    1DOPE    C1   16   4.422   4.148  16.624 -0.7913 -0.2672  0.3563
    1DOPE    HA   17   4.530   4.168  16.643 -0.5470 -1.0716 -0.1219
    1DOPE    HB   18   4.393   4.207  16.534 -0.9644 -0.4966  0.2614
    1DOPE    C2   19   4.390   3.998  16.592  0.3318 -0.2094 -0.5464
    1DOPE    HS   20   4.434   3.947  16.680  1.0307  4.7865  2.3681
    1DOPE   O21   21   4.453   3.958  16.469  0.4657 -0.1176  0.2275
    1DOPE   C21   22   4.508   3.834  16.475  0.0209 -0.0550  0.2815
    1DOPE   O22   23   4.504   3.756  16.570 -0.1743 -0.1197  0.0448
    1DOPE   C22   24   4.563   3.808  16.344 -0.3811  0.6777  0.2683
    1DOPE   H2R   25   4.642   3.884  16.329  0.3211  0.5190  2.6915
    1DOPE   H2S   26   4.489   3.816  16.262 -1.8776 -1.1035  1.3591
    1DOPE    C3   27   4.240   3.966  16.586  0.8097 -0.0017  0.5365
    1DOPE    HX   28   4.188   3.995  16.680  0.2261 -1.1417  0.5900
    1DOPE    HY   29   4.228   3.855  16.588  0.7091  0.0040  0.2377
    1DOPE   O31   30   4.169   4.024  16.475  0.3599 -0.1052 -0.2672
    1DOPE   C31   31   4.171   3.947  16.362 -1.0846  0.3843 -0.4909
    1DOPE   O32   32   4.202   3.831  16.355  0.5190  0.8560 -0.1216
    1DOPE   C32   33   4.107   4.027  16.245  0.4677  0.0119  0.8631
    1DOPE   H2X   34   4.123   3.966  16.154  1.1931 -0.3236  1.2081
    1DOPE   H2Y   35   3.998   4.030  16.270  0.4750 -0.5259  0.9714
    1DOPE   C23   36   4.633   3.670  16.329  1.1467  0.5917 -0.0917
    1DOPE   H3R   37   4.561   3.595  16.369  0.5727  1.8844  1.3804
    1DOPE   H3S   38   4.717   3.666  16.401 -0.2698  1.3413  1.6722
    1DOPE   C24   39   4.680   3.623  16.185  0.5244 -0.7301  0.1061
    1DOPE   H4R   40   4.585   3.633  16.129  0.4748  1.8776  0.5568
    1DOPE   H4S   41   4.712   3.517  16.197  1.0513 -0.6501 -0.5127
    1DOPE   C25   42   4.789   3.706  16.123  0.4298  0.2151 -0.0537
    1DOPE   H5R   43   4.869   3.717  16.199 -0.1180  4.6182  0.1340
    1DOPE   H5S   44   4.759   3.812  16.113  0.2624  0.4970  2.7727
    1DOPE   C26   45   4.842   3.670  15.987 -0.0357  0.0067 -0.0216
    1DOPE   H6R   46   4.771   3.704  15.909  2.1125  2.0593 -1.1930
    1DOPE   H6S   47   4.843   3.559  15.977 -1.9658  0.0081 -0.7817
    1DOPE   C27   48   4.979   3.730  15.962 -0.3611 -0.1227 -0.0713
    1DOPE   H7R   49   5.057   3.684  16.027  2.0882  1.1814 -1.8837
    1DOPE   H7S   50   4.986   3.839  15.980  1.3719 -0.4374  1.5468
    1DOPE   C28   51   5.032   3.693  15.818 -0.1160 -0.4115  0.3791
    1DOPE   H8R   52   5.055   3.585  15.808  0.5234 -0.5408  2.7027
    1DOPE   H8S   53   5.129   3.744  15.800 -0.1532 -0.2954  0.5002
    1DOPE   C29   54   4.944   3.734  15.706 -0.0548  0.3202  0.2513
    1DOPE   H9R   55   4.835   3.727  15.721 -0.3359  2.6998 -0.2086
    1DOPE  C210   56   4.967   3.812  15.597  0.5948 -0.5360  0.3459
    1DOPE  H10R   57   4.897   3.822  15.513  3.0157  0.0708 -1.7147
    1DOPE  C211   58   5.097   3.885  15.565  0.2655 -0.0083  0.2775
    1DOPE  H11R   59   5.135   3.860  15.463  0.8821 -1.5477  0.8584
    1DOPE  H11S   60   5.181   3.851  15.630  0.9610 -3.0295 -1.9669
    1DOPE  C212   61   5.078   4.043  15.575  0.2165  0.4273 -0.2363
    1DOPE  H12R   62   5.019   4.051  15.669  0.8158  1.1870  0.0916
    1DOPE  H12S   63   5.010   4.061  15.489 -0.3280  1.3824  0.3710
    1DOPE  C213   64   5.199   4.135  15.569  0.1490  0.1174 -0.3675
    1DOPE  H13R   65   5.253   4.148  15.666  0.5788 -0.0830 -0.5755
    1DOPE  H13S   66   5.147   4.231  15.556 -0.1904  0.2421  1.6314
    1DOPE  C214   67   5.297   4.107  15.454 -1.1894 -0.3582  1.0957
    1DOPE  H14R   68   5.366   4.022  15.475  1.1613  1.7758  2.4958
    1DOPE  H14S   69   5.370   4.190  15.451 -0.6169 -0.8772 -1.3563
    1DOPE  C215   70   5.241   4.101  15.315  0.4733  0.0330  0.4112
    1DOPE  H15R   71   5.203   4.203  15.291  1.0780 -0.1427 -1.4272
    1DOPE  H15S   72   5.163   4.022  15.307  0.3730  0.3251 -2.0813
    1DOPE  C216   73   5.344   4.065  15.202 -0.2444  0.3001 -0.4294
    1DOPE  H16R   74   5.420   4.147  15.197  1.5393 -0.9180  3.0979
    1DOPE  H16S   75   5.288   4.067  15.107  1.5935 -1.7902 -1.6372
    1DOPE  C217   76   5.407   3.927  15.223  0.6316 -0.2046 -0.2149
    1DOPE  H17R   77   5.465   3.907  15.315  0.7683 -3.1837 -0.8541
    1DOPE  H17S   78   5.480   3.912  15.140 -1.2983  0.5247 -2.1474
    1DOPE  C218   79   5.320   3.804  15.203 -0.2142 -0.0176  0.4423
    1DOPE  H18R   80   5.389   3.721  15.173  0.5682  0.9307 -0.4610
    1DOPE  H18S   81   5.257   3.825  15.114  0.2635  0.6134  0.2482
    1DOPE  H18T   82   5.261   3.771  15.291  1.0156  0.9013  1.6551
    1DOPE   C33   83   4.189   4.160  16.218  0.4663 -0.4724 -0.3056
    1DOPE   H3X   84   4.155   4.227  16.299  0.8736  0.7169 -1.0786
    1DOPE   H3Y   85   4.137   4.193  16.125  1.3187 -0.9658 -0.9735
    1DOPE   C34   86   4.340   4.146  16.177 -0.4477  0.4971 -0.0039
    1DOPE   H4X   87   4.389   4.245  16.165 -1.9595  1.4008  0.9132
    1DOPE   H4Y   88   4.382   4.094  16.265 -1.2787  1.0475  0.7385
    1DOPE   C35   89   4.359   4.049  16.054  0.4193 -0.0179 -0.9622
    1DOPE   H5X   90   4.295   4.096  15.976 -1.4905 -3.8342 -1.9361
    1DOPE   H5Y   91   4.327   3.947  16.083  3.7451 -1.2002 -0.9757
    1DOPE   C36   92   4.509   4.046  16.005  0.6140 -0.0541  0.3385
    1DOPE   H6X   93   4.572   3.989  16.078  1.0511 -2.0894 -1.5243
    1DOPE   H6Y   94   4.537   4.153  15.993 -2.0884  0.5857 -0.9850
    1DOPE   C37   95   4.518   3.973  15.866  0.4629 -0.0882 -0.6405
    1DOPE   H7X   96   4.463   3.878  15.880  2.9117 -1.5344 -0.2994
    1DOPE   H7Y   97   4.463   4.041  15.796 -0.0107  0.5705  0.3468
    1DOPE   C38   98   4.658   3.949  15.824 -0.6439 -0.4258  0.1056
    1DOPE   H8X   99   4.659   3.880  15.737  0.9202  1.5800 -1.5589
    1DOPE   H8Y  100   4.715   3.905  15.908  1.2061  1.6494  0.0357
    1DOPE   C39  101   4.727   4.080  15.782 -0.9202  0.6266  0.5566
    1DOPE   H9X  102   4.800   4.117  15.856  0.9172 -1.8838  0.1277
    1DOPE  C310  103   4.725   4.134  15.664 -0.0456 -0.4361  0.6917
    1DOPE  H10X  104   4.794   4.218  15.645 -0.7715  0.5111  2.0626
    1DOPE  C311  105   4.635   4.086  15.561 -0.2315 -0.5716  0.2118
    1DOPE  H11X  106   4.589   3.987  15.582 -0.4255 -0.4797  0.2129
    1DOPE  H11Y  107   4.558   4.161  15.535  2.5379  2.2890 -0.4210
    1DOPE  C312  108   4.718   4.063  15.434  0.1881  0.0920 -0.5458
    1DOPE  H12X  109   4.795   3.984  15.445 -0.8514 -0.8496  0.0770
    1DOPE  H12Y  110   4.787   4.147  15.409  0.0867  0.9676  1.8917
    1DOPE  C313  111   4.632   4.028  15.315  0.1903  0.0256  0.2702
    1DOPE  H13X  112   4.565   3.942  15.339 -1.7917  1.1285 -0.9995
    1DOPE  H13Y  113   4.552   4.101  15.290 -1.3413 -1.5251  0.4339
    1DOPE  C314  114   4.722   3.978  15.201 -0.4354 -0.0234 -0.3583
    1DOPE  H14X  115   4.656   3.921  15.131 -0.2966 -2.3031  1.2482
    1DOPE  H14Y  116   4.789   3.898  15.239  1.4803  0.7713 -1.9086
    1DOPE  C315  117   4.785   4.096  15.133 -0.0868  0.7023  0.6553
    1DOPE  H15X  118   4.875   4.120  15.194 -0.1443  1.1141  0.5839
    1DOPE  H15Y  119   4.718   4.184  15.136  0.4306  1.1098  0.5238
    1DOPE  C316  120   4.812   4.071  14.984  0.5990 -0.4022 -0.1333
    1DOPE  H16X  121   4.720   4.032  14.936  0.5046 -0.8768  0.4266
    1DOPE  H16Y  122   4.889   3.992  14.974 -1.4447 -2.5198  0.1902
    1DOPE  C317  123   4.864   4.192  14.913 -0.2041  0.2587  0.2766
    1DOPE  H17X  124   4.799   4.281  14.920 -0.8710 -0.0707 -1.2331
    1DOPE  H17Y  125   4.954   4.227  14.969 -0.6438 -0.2522  1.3236
    1DOPE  C318  126   4.899   4.177  14.769  0.0038  0.1868  0.3581
    1DOPE  H18X  127   4.937   4.074  14.752 -0.7852  0.0286 -0.6082
    1DOPE  H18Y  128   4.807   4.184  14.706 -0.3109 -1.2447  0.6242
    1DOPE  H18Z  129   4.972   4.254  14.738 -0.9376  1.0006  0.1002
    2DOPE     N  130   4.773   4.123  16.909 -0.0670  0.1518 -0.4376
    2DOPE   HN1  131   4.741   4.217  16.878 -1.3552 -0.3625 -0.7343
    2DOPE   HN2  132   4.693   4.059  16.890 -0.6344  0.5760  0.4654
    2DOPE   HN3  133   4.788   4.125  17.012  0.8755 -0.9855 -0.5272
    2DOPE   C12  134   4.885   4.062  16.830 -0.4597 -0.2988  0.3586
    2DOPE  H12A  135   4.915   3.966  16.878 -2.5449 -1.7391 -1.0872
    2DOPE  H12B  136   4.974   4.130  16.831 -0.0802 -0.7601 -0.8747
    2DOPE   C11  137   4.848   4.041  16.684 -0.2624 -0.1625 -0.3122
    2DOPE  H11A  138   4.781   3.954  16.698 -2.5214  1.7949  2.3772
    2DOPE  H11B  139   4.938   4.013  16.626  2.1255 -0.4183  3.1557
    2DOPE     P  140   4.823   4.293  16.603  0.2951  0.3192  0.0695
    2DOPE   O13  141   4.954   4.290  16.535 -1.0648 -0.1587 -0.1212
    2DOPE   O14  142   4.812   4.361  16.730 -0.5421  0.0095  0.0752
    2DOPE   O11  143   4.707   4.343  16.511  0.6036  0.0804 -0.8404
    2DOPE   O12  144   4.770   4.143  16.628 -0.4275  0.0367  0.4863
    2DOPE    C1  145   4.690   4.300  16.376 -0.1296  0.1902  0.1462
    2DOPE    HA  146   4.583   4.316  16.348  0.1016  0.9024 -0.3322
    2DOPE    HB  147   4.706   4.190  16.373  1.7054  0.3941  1.0111
    2DOPE    C2  148   4.779   4.374  16.274 -0.3234  0.0311 -0.0403
    2DOPE    HS  149   4.881   4.340  16.302  0.0616  1.1509 -0.0042
    2DOPE   O21  150   4.766   4.518  16.274 -0.1003 -0.2997  0.6400
    2DOPE   C21  151   4.882   4.587  16.274  0.5748 -1.2228  0.4614
    2DOPE   O22  152   4.992   4.544  16.270 -0.5860  0.2654  0.1880
    2DOPE   C22  153   4.840   4.731  16.274  0.7715  0.3915  0.0753
    2DOPE   H2R  154   4.825   4.761  16.380 -2.2722 -1.3519  0.2553
    2DOPE   H2S  155   4.736   4.740  16.236  0.6110  0.5387  0.5377
    2DOPE    C3  156   4.756   4.308  16.135 -0.1022 -0.2514  0.1371
    2DOPE    HX  157   4.654   4.340  16.107  0.2560 -0.1128 -1.0671
    2DOPE    HY  158   4.756   4.197  16.146 -1.0246 -0.2937 -0.2768
    2DOPE   O31  159   4.860   4.355  16.038  0.4392  1.1428 -0.0478
    2DOPE   C31  160   4.975   4.294  16.054  0.2692 -0.4725  0.3381
    2DOPE   O32  161   4.994   4.207  16.137 -0.4585 -0.3630  0.0525
    2DOPE   C32  162   5.078   4.342  15.958  0.4035  0.2297  0.2764
    2DOPE   H2X  163   5.091   4.267  15.877  0.6142  0.9496 -0.3610
    2DOPE   H2Y  164   5.036   4.433  15.910  0.2154 -0.4493 -0.8761
    2DOPE   C23  165   4.937   4.822  16.199  0.4120  0.0911 -0.4933
    2DOPE   H3R  166   5.033   4.821  16.256 -0.1736 -0.0385  0.5119
    2DOPE   H3S  167   4.900   4.926  16.213  2.0565  0.7064 -0.5018
    2DOPE   C24  168   4.953   4.793  16.052  0.3518 -0.2431 -0.5160
    2DOPE   H4R  169   4.998   4.694  16.029 -0.5849 -0.2337 -2.6326
    2DOPE   H4S  170   5.024   4.865  16.006 -0.9571  0.2562 -1.7986
    2DOPE   C25  171   4.821   4.808  15.978  0.4087 -0.9511  0.3086
    2DOPE   H5R  172   4.769   4.896  16.021 -1.0956 -2.7718  2.4379
    2DOPE   H5S  173   4.754   4.721  15.998 -2.4301  0.9462 -0.2891
    2DOPE   C26  174   4.849   4.830  15.829  0.0883 -0.8824  0.2921
    2DOPE   H6R  175   4.911   4.922  15.820 -0.1141 -0.8710 -1.1856
    2DOPE   H6S  176   4.749   4.848  15.783  0.2175  1.4407  0.7554
    2DOPE   C27  177   4.929   4.720  15.754  0.3046  0.5638  0.0231
    2DOPE   H7R  178   4.877   4.622  15.766  0.8095  0.0108 -1.9733
    2DOPE   H7S  179   5.023   4.719  15.814 -0.5923  1.6067  1.5157
    2DOPE   C28  180   4.963   4.742  15.607 -0.1943 -0.2709 -0.1466
    2DOPE   H8R  181   5.021   4.836  15.612 -2.5967  1.2335  3.4530
    2DOPE   H8S  182   4.871   4.773  15.552 -0.5228  2.1858  1.6220
    2DOPE   C29  183   5.052   4.630  15.553  0.2210  0.0866 -1.1112
    2DOPE   H9R  184   5.158   4.641  15.579  0.2613  1.5150 -1.7963
    2DOPE  C210  185   5.016   4.527  15.470  0.1096 -0.5172  0.3684
    2DOPE  H10R  186   5.081   4.450  15.426 -0.6116 -0.7813 -0.2619
    2DOPE  C211  187   4.872   4.505  15.425  0.1776 -0.4312  0.4204
    2DOPE  H11R  188   4.812   4.593  15.455  3.5338  2.3492 -0.4142
    2DOPE  H11S  189   4.826   4.412  15.465 -1.5437  0.7087  1.1970
    2DOPE  C212  190   4.850   4.505  15.270  0.0030 -0.0078 -0.4370
    2DOPE  H12R  191   4.740   4.492  15.261 -0.2595  0.2365  1.8274
    2DOPE  H12S  192   4.903   4.422  15.218 -0.8061 -0.3873 -0.6794
    2DOPE  C213  193   4.870   4.646  15.213 -0.2454  0.4444 -0.1270
    2DOPE  H13R  194   4.976   4.671  15.188 -0.5342  1.1234 -0.6982
    2DOPE  H13S  195   4.832   4.723  15.283 -1.1743 -1.2727  1.3397
    2DOPE  C214  196   4.792   4.657  15.078  0.3870  0.1476 -0.4548
    2DOPE  H14R  197   4.687   4.630  15.098  0.5990 -0.3181  0.0660
    2DOPE  H14S  198   4.840   4.573  15.025 -0.0672 -1.0034  0.8974
    2DOPE  C215  199   4.809   4.787  15.007 -0.1510  0.0107 -0.1669
    2DOPE  H15R  200   4.741   4.773  14.921  0.9208 -1.5003 -0.8060
    2DOPE  H15S  201   4.911   4.802  14.965 -0.6392  0.3332 -1.2705
    2DOPE  C216  202   4.778   4.914  15.090 -0.5978  0.0553 -0.3353
    2DOPE  H16R  203   4.865   4.931  15.157 -0.7453  0.1891 -0.1776
    2DOPE  H16S  204   4.685   4.894  15.146 -0.1352 -3.4500 -0.6239
    2DOPE  C217  205   4.743   5.032  14.994  0.3481 -0.4052 -0.3919
    2DOPE  H17R  206   4.651   4.984  14.956  0.2369 -2.6991  2.4066
    2DOPE  H17S  207   4.818   5.046  14.914 -1.7946  1.7770 -2.1545
    2DOPE  C218  208   4.718   5.163  15.072  0.2601 -0.0348  0.2066
    2DOPE  H18R  209   4.722   5.244  14.996 -1.2039  1.5362  1.7321
    2DOPE  H18S  210   4.792   5.182  15.153 -1.3904  1.6723  1.4021
    2DOPE  H18T  211   4.614   5.165  15.111 -1.1169  0.0420 -3.1212
    2DOPE   C33  212   5.213   4.361  16.028 -0.6573 -0.4431  0.1592
    2DOPE   H3X  213   5.259   4.261  16.046  2.1191  0.8606  0.9150
    2DOPE   H3Y  214   5.204   4.403  16.130 -1.3445  1.7229 -0.7436
    2DOPE   C34  215   5.310   4.447  15.940  0.7137  0.2976  0.4431
    2DOPE   H4X  216   5.290   4.554  15.959 -0.1629  0.2663 -0.2292
    2DOPE   H4Y  217   5.416   4.428  15.965  0.9270  1.4070  0.4156
    2DOPE   C35  218   5.294   4.431  15.788 -0.4321 -0.0195 -0.1456
    2DOPE   H5X  219   5.195   4.468  15.753 -1.9274 -2.2909  1.3421
    2DOPE   H5Y  220   5.293   4.325  15.755  1.7209 -0.2572  0.4390
    2DOPE   C36  221   5.415   4.494  15.714  0.0760 -0.3550  0.7362
    2DOPE   H6X  222   5.400   4.488  15.605  3.2874 -1.3498  0.2453
    2DOPE   H6Y  223   5.509   4.435  15.726  0.0777 -0.5867 -0.3427
    2DOPE   C37  224   5.436   4.641  15.741  0.3480  0.3037 -0.5272
    2DOPE   H7X  225   5.343   4.681  15.786  0.2923  0.5418 -0.8491
    2DOPE   H7Y  226   5.508   4.635  15.825 -1.6299  0.7083  1.2719
    2DOPE   C38  227   5.482   4.721  15.614  0.1135  1.2859 -0.0408
    2DOPE   H8X  228   5.400   4.708  15.540 -0.0833  0.0624  0.3683
    2DOPE   H8Y  229   5.563   4.663  15.567  0.9229  2.3949 -0.0438
    2DOPE   C39  230   5.527   4.863  15.630 -0.2449  0.5508 -1.0132
    2DOPE   H9X  231   5.449   4.940  15.618 -2.2320 -1.6095 -2.8673
    2DOPE  C310  232   5.651   4.905  15.649  0.0478  0.6312 -0.9196
    2DOPE  H10X  233   5.664   5.013  15.632 -2.6398  0.9457 -1.4092
    2DOPE  C311  234   5.777   4.825  15.663 -0.2252 -0.4289 -0.2448
    2DOPE  H11X  235   5.766   4.726  15.613 -1.7457 -0.4558  0.0730
    2DOPE  H11Y  236   5.855   4.882  15.609 -0.0919 -1.6529 -1.3957
    2DOPE  C312  237   5.848   4.810  15.804  1.0645 -1.1095  0.5441
    2DOPE  H12X  238   5.859   4.915  15.839 -1.2422 -0.0105 -1.7226
    2DOPE  H12Y  239   5.951   4.768  15.800  1.9018  0.8609  0.0808
    2DOPE  C313  240   5.753   4.737  15.907  0.0594 -1.2685  0.5649
    2DOPE  H13X  241   5.656   4.788  15.921  0.2186 -0.7202 -0.2155
    2DOPE  H13Y  242   5.730   4.637  15.864 -1.2270 -0.2986 -1.1565
    2DOPE  C314  243   5.817   4.720  16.048 -0.0444  0.1007 -0.1066
    2DOPE  H14X  244   5.748   4.673  16.121  2.2775 -0.0087  2.1252
    2DOPE  H14Y  245   5.843   4.818  16.092 -2.0530  1.0928 -0.9592
    2DOPE  C315  246   5.945   4.642  16.059 -0.3078  0.2859 -0.0188
    2DOPE  H15X  247   6.023   4.702  16.008 -0.9849  1.8361  0.6816
    2DOPE  H15Y  248   5.919   4.554  15.996  1.6778  0.1264 -0.6633
    2DOPE  C316  249   5.992   4.607  16.197  0.8043 -0.4852  0.1890
    2DOPE  H16X  250   6.010   4.694  16.263  1.7081 -1.0661  0.7239
    2DOPE  H16Y  251   6.091   4.561  16.174  0.8433 -0.1697 -0.3060
    2DOPE  C317  252   5.908   4.503  16.268 -0.0459  0.5776 -0.1301
    2DOPE  H17X  253   5.809   4.549  16.289 -0.4659 -0.1672 -0.4009
    2DOPE  H17Y  254   5.897   4.411  16.206  1.8501  1.2790 -1.6248
    2DOPE  C318  255   5.954   4.461  16.408 -0.4150  0.5768 -0.3343
    2DOPE  H18X  256   6.056   4.419  16.402  0.1624  1.7426  0.7552
    2DOPE  H18Y  257   5.948   4.544  16.482  0.4739  0.3511  0.0062
    2DOPE  H18Z  258   5.883   4.385  16.447 -1.0784  1.2007 -0.2900
    3DOPE     N  259   2.897   5.553  17.039  0.0703  0.8382 -0.3526
    3DOPE   HN1  260   2.917   5.457  17.005 -2.2496 -0.1770  0.9189
    3DOPE   HN2  261   2.982   5.607  17.065  0.5406  0.0078 -0.1580
    3DOPE   HN3  262   2.839   5.546  17.125  0.2293  0.0076 -0.3066
    3DOPE   C12  263   2.819   5.615  16.929  0.5185 -0.9213 -0.5748
    3DOPE  H12A  264   2.888   5.630  16.843  1.1929  0.9784  0.2493
    3DOPE  H12B  265   2.798   5.720  16.959  0.4208 -1.6218  2.0317
    3DOPE   C11  266   2.698   5.534  16.904  0.1277 -0.7229 -0.0878
    3DOPE  H11A  267   2.635   5.570  16.820  3.2677 -0.6670 -2.5788
    3DOPE  H11B  268   2.631   5.544  16.992 -1.3126  1.3417 -1.3191
    3DOPE     P  269   2.605   5.302  16.840 -0.1317  0.2946 -0.2359
    3DOPE   O13  270   2.470   5.352  16.863  0.3699  0.0322 -0.1994
    3DOPE   O14  271   2.632   5.170  16.903 -0.2327  0.2284  0.0173
    3DOPE   O11  272   2.633   5.291  16.686  0.0543 -0.2889 -0.1664
    3DOPE   O12  273   2.724   5.399  16.884 -0.7602 -0.0697 -0.3031
    3DOPE    C1  274   2.761   5.251  16.630 -0.2735 -0.2875 -0.0281
    3DOPE    HA  275   2.754   5.178  16.547  3.4641 -0.3175 -0.4983
    3DOPE    HB  276   2.824   5.205  16.709  1.4053  1.0812 -0.4945
    3DOPE    C2  277   2.845   5.371  16.579  0.2047 -0.5003  0.1011
    3DOPE    HS  278   2.878   5.430  16.667  0.8058  0.8915 -1.0137
    3DOPE   O21  279   2.755   5.441  16.498  0.0443 -0.2712 -0.8071
    3DOPE   C21  280   2.755   5.572  16.514 -0.0672 -0.6317 -0.4951
    3DOPE   O22  281   2.824   5.636  16.594  0.1886  0.8023  0.5046
    3DOPE   C22  282   2.645   5.638  16.430  0.4614 -0.2497  0.2464
    3DOPE   H2R  283   2.656   5.747  16.448  0.4303 -0.2188  0.0796
    3DOPE   H2S  284   2.550   5.597  16.471  0.7512 -1.0395  0.1479
    3DOPE    C3  285   2.974   5.323  16.504 -0.5815 -0.7635 -0.2172
    3DOPE    HX  286   3.035   5.257  16.568  0.4343  0.7249  0.4003
    3DOPE    HY  287   3.035   5.415  16.493 -0.0904 -0.6417  2.6886
    3DOPE   O31  288   2.942   5.252  16.383 -0.1204  0.2967 -0.1019
    3DOPE   C31  289   2.940   5.327  16.275  0.1440 -0.2100  0.2118
    3DOPE   O32  290   2.960   5.449  16.278  0.1678 -0.4652  0.2412
    3DOPE   C32  291   2.900   5.240  16.158  1.0924  0.5214 -0.7971
    3DOPE   H2X  292   2.981   5.167  16.136  0.3570  0.6426 -4.6400
    3DOPE   H2Y  293   2.817   5.177  16.196  1.1846  0.1768 -1.1596
    3DOPE   C23  294   2.668   5.609  16.284 -0.1654 -0.0527 -0.5931
    3DOPE   H3R  295   2.651   5.499  16.281 -1.9235  0.1419  1.0322
    3DOPE   H3S  296   2.773   5.614  16.248  0.5862 -0.1778  1.4766
    3DOPE   C24  297   2.563   5.683  16.192  0.0954 -0.2142 -0.2126
    3DOPE   H4R  298   2.560   5.792  16.213 -3.0987 -0.2065 -0.2493
    3DOPE   H4S  299   2.458   5.654  16.218 -0.5551  2.5128  0.4714
    3DOPE   C25  300   2.583   5.664  16.042  0.0096  0.0505 -0.2590
    3DOPE   H5R  301   2.593   5.555  16.022 -0.4084 -0.1702  0.7156
    3DOPE   H5S  302   2.671   5.710  15.992 -0.3185  0.6902 -0.2468
    3DOPE   C26  303   2.459   5.725  15.961 -1.0381 -0.1786  0.3895
    3DOPE   H6R  304   2.473   5.835  15.965 -0.8082 -0.1944  0.0073
    3DOPE   H6S  305   2.362   5.689  16.000 -1.6482  1.3041  0.2997
    3DOPE   C27  306   2.460   5.673  15.816 -0.2566 -1.3404  0.1759
    3DOPE   H7R  307   2.470   5.562  15.813  1.8702 -1.1844 -1.7313
    3DOPE   H7S  308   2.554   5.709  15.769 -1.3067 -0.0297 -1.0204
    3DOPE   C28  309   2.343   5.718  15.724  0.4267 -0.3060 -0.2639
    3DOPE   H8R  310   2.320   5.826  15.731 -1.1337 -0.6754  0.8383
    3DOPE   H8S  311   2.253   5.666  15.764 -0.9284  0.5786 -2.0436
    3DOPE   C29  312   2.358   5.684  15.583 -0.5420 -0.4173 -0.1578
    3DOPE   H9R  313   2.464   5.680  15.556  0.3838 -1.0678  3.1559
    3DOPE  C210  314   2.262   5.648  15.502  0.0109  0.0621 -0.6843
    3DOPE  H10R  315   2.296   5.622  15.400 -0.5544 -2.5564 -0.2761
    3DOPE  C211  316   2.118   5.625  15.538 -0.4890  0.7180  0.7410
    3DOPE  H11R  317   2.079   5.677  15.628 -0.9176  1.4045  0.1740
    3DOPE  H11S  318   2.106   5.518  15.563 -1.9424  0.4939 -0.7166
    3DOPE  C212  319   2.011   5.658  15.425 -0.7210 -0.7603 -0.2573
    3DOPE  H12R  320   2.010   5.769  15.415 -1.1989 -0.6466  0.8695
    3DOPE  H12S  321   1.905   5.636  15.451 -0.5633 -0.5194  0.6251
    3DOPE  C213  322   2.048   5.590  15.294  0.2776 -0.1245 -0.2999
    3DOPE  H13R  323   2.052   5.479  15.293 -0.2886 -0.1936 -3.0488
    3DOPE  H13S  324   2.152   5.610  15.260  0.4361 -1.5163 -0.7073
    3DOPE  C214  325   1.960   5.638  15.180  0.2779  0.2573 -0.3136
    3DOPE  H14R  326   1.960   5.749  15.176  0.5350  0.2645 -0.1394
    3DOPE  H14S  327   1.858   5.605  15.208  0.5282 -0.0404  0.2743
    3DOPE  C215  328   2.004   5.566  15.052  0.2978  0.1843 -0.1431
    3DOPE  H15R  329   1.995   5.456  15.069  0.1497  0.3200  0.7021
    3DOPE  H15S  330   2.110   5.593  15.035  0.3006  2.2870  2.5280
    3DOPE  C216  331   1.925   5.610  14.934 -0.9192 -0.0070 -0.5130
    3DOPE  H16R  332   1.935   5.721  14.934  1.4571 -0.1670 -0.2028
    3DOPE  H16S  333   1.817   5.587  14.944 -0.6777 -0.4958  1.4549
    3DOPE  C217  334   1.966   5.544  14.797 -0.2773  0.2556 -0.0149
    3DOPE  H17R  335   1.889   5.574  14.723 -0.3524 -0.6833 -0.3323
    3DOPE  H17S  336   1.977   5.435  14.813 -0.8325  0.3850  1.4261
    3DOPE  C218  337   2.103   5.600  14.744  0.1384  0.2444  0.3435
    3DOPE  H18R  338   2.164   5.612  14.836 -1.3896 -0.9524  1.5659
    3DOPE  H18S  339   2.091   5.705  14.711  1.2552  0.6234  1.0788
    3DOPE  H18T  340   2.169   5.551  14.670  0.6116  0.4929  0.5907
    3DOPE   C33  341   2.864   5.315  16.028  0.6325  0.5112 -0.0192
    3DOPE   H3X  342   2.951   5.280  15.968  0.2509 -1.0871  0.2920
    3DOPE   H3Y  343   2.878   5.423  16.047 -1.1041  0.2517  3.5132
    3DOPE   C34  344   2.734   5.276  15.962  0.1571  0.3583  0.3400
    3DOPE   H4X  345   2.720   5.166  15.951 -0.0383  0.3740  0.4186
    3DOPE   H4Y  346   2.650   5.302  16.030  0.5357 -0.9748  1.3695
    3DOPE   C35  347   2.715   5.336  15.822 -0.2391  0.1940  0.0164
    3DOPE   H5X  348   2.719   5.446  15.838  0.9811  0.1721 -0.0803
    3DOPE   H5Y  349   2.617   5.304  15.782  0.6846  2.2422 -4.4845
    3DOPE   C36  350   2.819   5.306  15.713 -0.0344 -0.9929 -0.2479
    3DOPE   H6X  351   2.919   5.320  15.760  0.8652 -2.1187 -1.7381
    3DOPE   H6Y  352   2.813   5.363  15.618  0.8976  1.2109  0.9344
    3DOPE   C37  353   2.814   5.158  15.675 -0.0958 -0.0513  0.4630
    3DOPE   H7X  354   2.913   5.131  15.632 -0.0180  0.0777  0.5636
    3DOPE   H7Y  355   2.797   5.090  15.762 -0.3931 -0.3560  0.1730
    3DOPE   C38  356   2.707   5.129  15.568  0.1589 -0.3731  0.0265
    3DOPE   H8X  357   2.615   5.184  15.595 -1.4718 -2.3600 -1.1965
    3DOPE   H8Y  358   2.680   5.021  15.577 -1.5035  0.0567  0.4543
    3DOPE   C39  359   2.755   5.149  15.425  0.1368  0.4921 -0.1995
    3DOPE   H9X  360   2.836   5.088  15.383  0.8075  1.2267  0.0024
    3DOPE  C310  361   2.699   5.245  15.352  0.0412 -0.5254 -0.5924
    3DOPE  H10X  362   2.734   5.255  15.248 -0.2502  1.5461 -0.5296
    3DOPE  C311  363   2.604   5.347  15.395 -0.0572 -0.0246 -0.0837
    3DOPE  H11X  364   2.608   5.362  15.506  3.4461 -1.2935  0.0726
    3DOPE  H11Y  365   2.653   5.445  15.373 -0.0766 -0.5713 -2.8924
    3DOPE  C312  366   2.463   5.334  15.344  0.1525  0.3513 -0.2223
    3DOPE  H12X  367   2.412   5.430  15.365 -2.5045 -1.2185  1.0117
    3DOPE  H12Y  368   2.411   5.250  15.395  0.7066 -0.0232 -0.2603
    3DOPE  C313  369   2.456   5.328  15.190  0.3074 -0.3196  0.2569
    3DOPE  H13X  370   2.482   5.428  15.150 -0.1814 -1.8268 -4.3814
    3DOPE  H13Y  371   2.526   5.252  15.148  0.1000 -0.9670  1.0353
    3DOPE  C314  372   2.313   5.306  15.138  0.4404 -0.1422 -0.0487
    3DOPE  H14X  373   2.251   5.389  15.176 -0.6621 -0.7160 -0.5654
    3DOPE  H14Y  374   2.276   5.205  15.165  0.1438  0.0070  0.1048
    3DOPE  C315  375   2.309   5.313  14.982  0.1765  0.7029 -0.5103
    3DOPE  H15X  376   2.413   5.317  14.942 -0.1945  3.8192 -1.4902
    3DOPE  H15Y  377   2.258   5.407  14.951 -2.5596 -0.7508 -0.7661
    3DOPE  C316  378   2.221   5.203  14.919  0.1621  0.0963  0.6552
    3DOPE  H16X  379   2.124   5.224  14.968  0.2924  2.1053  0.1422
    3DOPE  H16Y  380   2.271   5.110  14.951  2.3438  0.7744 -0.5757
    3DOPE  C317  381   2.223   5.225  14.771 -0.2950 -0.0513 -0.0503
    3DOPE  H17X  382   2.183   5.324  14.739 -2.7033 -0.3492  1.7653
    3DOPE  H17Y  383   2.330   5.209  14.744 -0.4354 -0.0133 -0.6360
    3DOPE  C318  384   2.136   5.122  14.694 -0.2667  0.0509 -0.9877
    3DOPE  H18X  385   2.032   5.146  14.725  0.2700  0.7852  0.3563
    3DOPE  H18Y  386   2.150   5.135  14.585 -1.9930 -1.7552 -1.4770
    3DOPE  H18Z  387   2.164   5.022  14.733  0.3826  0.7028  0.3045
    4DOPE     N  388   5.358   3.050  16.995  0.0124 -0.1278  0.0245
    4DOPE   HN1  389   5.420   2.971  17.024 -0.9410 -0.8160  0.2545
    4DOPE   HN2  390   5.417   3.131  16.968 -0.3043  0.5507  1.2609
    4DOPE   HN3  391   5.309   3.073  17.084 -1.6313 -2.1278 -0.2817
    4DOPE   C12  392   5.260   3.012  16.892  0.5733 -0.1390 -0.6090
    4DOPE  H12A  393   5.320   3.001  16.799  0.3867  3.0529 -1.2306
    4DOPE  H12B  394   5.187   3.094  16.871 -0.5907 -1.1957 -0.8000
    4DOPE   C11  395   5.199   2.875  16.927 -0.4635  0.7791 -0.5204
    4DOPE  H11A  396   5.285   2.808  16.948 -1.8370 -0.2354  2.4008
    4DOPE  H11B  397   5.146   2.847  16.833 -1.6746  2.1083 -0.2817
    4DOPE     P  398   5.039   2.749  17.084 -0.2377 -0.1954 -0.0977
    4DOPE   O13  399   4.896   2.750  17.064  0.8125 -0.0910 -0.2640
    4DOPE   O14  400   5.080   2.713  17.222 -0.3991 -1.1115  0.1778
    4DOPE   O11  401   5.096   2.640  16.985 -0.2329  0.0764  0.0968
    4DOPE   O12  402   5.110   2.884  17.036 -0.1560 -0.3404  0.2133
    4DOPE    C1  403   5.020   2.515  16.978 -0.1428  0.3967 -0.8411
    4DOPE    HA  404   4.940   2.506  17.054 -1.1067 -0.5102 -1.9291
    4DOPE    HB  405   5.098   2.438  16.998  1.5495  1.7471 -1.9808
    4DOPE    C2  406   4.966   2.479  16.840 -0.2458  0.1459 -0.8974
    4DOPE    HS  407   4.951   2.369  16.845 -0.7365  0.2631  1.5436
    4DOPE   O21  408   5.062   2.513  16.742  0.0500 -0.4228 -0.8744
    4DOPE   C21  409   5.049   2.448  16.627 -0.6824 -0.6926 -0.7223
    4DOPE   O22  410   4.965   2.370  16.594 -0.3722  0.2727  0.2305
    4DOPE   C22  411   5.176   2.474  16.540 -0.1052  0.5580  0.0577
    4DOPE   H2R  412   5.198   2.386  16.475  1.2311  0.6486  0.3615
    4DOPE   H2S  413   5.268   2.482  16.601 -0.1650 -1.2988  0.4564
    4DOPE    C3  414   4.829   2.543  16.834  0.4457  0.6261  0.0610
    4DOPE    HX  415   4.837   2.654  16.836 -1.4429  0.7824  0.5988
    4DOPE    HY  416   4.777   2.515  16.928  0.7046  1.2550  0.3939
    4DOPE   O31  417   4.762   2.521  16.709 -0.2537  0.3650  0.5859
    4DOPE   C31  418   4.677   2.424  16.708 -0.0777  0.2903 -0.2885
    4DOPE   O32  419   4.663   2.349  16.804 -0.4070  0.8319 -0.1362
    4DOPE   C32  420   4.588   2.417  16.579 -0.2345  0.2805 -0.3904
    4DOPE   H2X  421   4.484   2.444  16.606 -0.2799 -0.6356  0.4081
    4DOPE   H2Y  422   4.636   2.488  16.509 -1.5611  1.1033 -0.5111
    4DOPE   C23  423   5.162   2.588  16.437  0.2766  0.5130  0.4650
    4DOPE   H3R  424   5.069   2.577  16.376 -1.1410 -1.1960  2.7772
    4DOPE   H3S  425   5.241   2.585  16.358  0.2510  3.0934  0.2559
    4DOPE   C24  426   5.159   2.726  16.506  0.2633  0.0973  0.0172
    4DOPE   H4R  427   5.218   2.720  16.600  0.7831  2.2589 -0.1159
    4DOPE   H4S  428   5.053   2.755  16.527 -0.8090 -1.5838 -2.6455
    4DOPE   C25  429   5.211   2.841  16.416 -0.3837 -0.5583  0.2803
    4DOPE   H5R  430   5.163   2.837  16.316  2.1694 -1.7224 -0.9892
    4DOPE   H5S  431   5.315   2.810  16.396  0.1574  0.4812  1.3854
    4DOPE   C26  432   5.216   2.987  16.477 -0.0283 -0.0036  0.0299
    4DOPE   H6R  433   5.268   2.996  16.575 -1.5435  3.7498  0.6477
    4DOPE   H6S  434   5.111   3.020  16.493  0.1062 -0.2532  1.5149
    4DOPE   C27  435   5.300   3.083  16.383 -0.3293 -0.3112 -0.3338
    4DOPE   H7R  436   5.274   3.071  16.276  0.6219 -1.5755 -0.4349
    4DOPE   H7S  437   5.407   3.056  16.396 -0.2581  0.6556  1.3417
    4DOPE   C28  438   5.279   3.235  16.405 -0.7190 -0.1185 -0.2768
    4DOPE   H8R  439   5.363   3.290  16.359  0.8989 -2.4492 -0.2622
    4DOPE   H8S  440   5.283   3.266  16.512 -0.1983  0.5754 -0.4923
    4DOPE   C29  441   5.150   3.294  16.350  0.1360  0.6745  0.3501
    4DOPE   H9R  442   5.064   3.245  16.399  0.2610  0.4296  0.3251
    4DOPE  C210  443   5.135   3.394  16.260  0.0860  0.4639  0.0294
    4DOPE  H10R  444   5.033   3.428  16.238 -0.3385  0.8680  2.3405
    4DOPE  C211  445   5.249   3.471  16.191  0.6906 -0.1205  0.3783
    4DOPE  H11R  446   5.350   3.466  16.237  0.0132 -0.4249  1.8938
    4DOPE  H11S  447   5.231   3.579  16.174 -0.0511 -0.1583  0.8967
    4DOPE  C212  448   5.273   3.409  16.047 -0.6004  0.5812 -0.1941
    4DOPE  H12R  449   5.184   3.419  15.982 -1.0496  0.1051  0.3463
    4DOPE  H12S  450   5.292   3.300  16.051 -0.2931  0.6689  2.5851
    4DOPE  C213  451   5.378   3.489  15.962  0.6063 -0.3970 -0.1303
    4DOPE  H13R  452   5.476   3.505  16.013  0.0327  0.6707  0.6670
    4DOPE  H13S  453   5.335   3.591  15.949 -1.5909 -1.4149 -1.2576
    4DOPE  C214  454   5.390   3.446  15.813  0.1314  0.8593 -0.1769
    4DOPE  H14R  455   5.294   3.451  15.757  0.5801 -0.4349 -1.1361
    4DOPE  H14S  456   5.428   3.342  15.816  0.1888  0.8111 -1.8382
    4DOPE  C215  457   5.503   3.514  15.734  0.8234 -0.1960 -0.3169
    4DOPE  H15R  458   5.594   3.499  15.797  0.2337  0.4721  0.7367
    4DOPE  H15S  459   5.477   3.622  15.733 -3.6912 -1.0367  1.4799
    4DOPE  C216  460   5.505   3.451  15.599 -0.5193 -0.0511  0.0145
    4DOPE  H16R  461   5.557   3.527  15.537  0.8876 -0.7234  0.3212
    4DOPE  H16S  462   5.402   3.437  15.561 -0.8776 -0.4671  1.1099
    4DOPE  C217  463   5.585   3.321  15.578  0.3606  1.5056  0.2627
    4DOPE  H17R  464   5.560   3.296  15.473 -0.9313 -0.7459  1.0482
    4DOPE  H17S  465   5.544   3.236  15.637  0.4418  0.6763 -0.8494
    4DOPE  C218  466   5.730   3.333  15.589 -0.0706  0.4643  0.1498
    4DOPE  H18R  467   5.747   3.384  15.686 -0.8046  0.6215  0.2077
    4DOPE  H18S  468   5.760   3.402  15.507 -2.3113  0.9092 -0.3683
    4DOPE  H18T  469   5.785   3.238  15.570 -0.7641  0.1601 -0.4018
    4DOPE   C33  470   4.587   2.279  16.520 -0.1060  0.4361 -0.0017
    4DOPE   H3X  471   4.536   2.208  16.588 -1.2162  0.3132 -0.9383
    4DOPE   H3Y  472   4.690   2.238  16.506  0.0835  0.8774  0.0718
    4DOPE   C34  473   4.511   2.276  16.386  0.0324  0.0698 -0.3109
    4DOPE   H4X  474   4.462   2.177  16.370  0.2208  0.1138 -1.1888
    4DOPE   H4Y  475   4.426   2.347  16.386 -0.6268 -0.6932  0.2076
    4DOPE   C35  476   4.608   2.307  16.262  0.4311 -0.1251 -0.0367
    4DOPE   H5X  477   4.706   2.255  16.268 -0.3358 -1.6148 -0.1808
    4DOPE   H5Y  478   4.612   2.418  16.260 -2.8645  0.1664  1.8694
    4DOPE   C36  479   4.538   2.264  16.133 -0.1991 -0.5533  0.7342
    4DOPE   H6X  480   4.435   2.302  16.119  0.2702 -0.0731 -1.7344
    4DOPE   H6Y  481   4.541   2.153  16.138  1.0480 -0.5903 -0.3127
    4DOPE   C37  482   4.613   2.305  16.004  0.2186  0.1938 -0.2232
    4DOPE   H7X  483   4.624   2.416  16.005 -0.3166  0.3174  3.4601
    4DOPE   H7Y  484   4.717   2.266  16.015 -0.4009 -1.0798  1.5281
    4DOPE   C38  485   4.556   2.234  15.871  0.2547  0.6001 -0.2230
    4DOPE   H8X  486   4.446   2.247  15.882 -0.2452 -2.6343 -0.6301
    4DOPE   H8Y  487   4.568   2.125  15.888 -0.0708  0.3771 -1.3789
    4DOPE   C39  488   4.613   2.294  15.739  0.5737  0.0397 -0.1394
    4DOPE   H9X  489   4.720   2.287  15.715  0.4529  0.8897 -0.9911
    4DOPE  C310  490   4.538   2.379  15.660  0.2425 -0.4612 -0.2293
    4DOPE  H10X  491   4.590   2.409  15.568  3.5711  1.2532  2.0087
    4DOPE  C311  492   4.401   2.440  15.685 -0.2944  0.4469 -0.1607
    4DOPE  H11X  493   4.380   2.430  15.794  0.7082  4.0694  0.5004
    4DOPE  H11Y  494   4.402   2.550  15.670  1.3814  0.6190  0.9058
    4DOPE  C312  495   4.289   2.373  15.608  0.0892 -0.0281 -0.1873
    4DOPE  H12X  496   4.195   2.430  15.627 -0.1337 -0.4067 -0.1526
    4DOPE  H12Y  497   4.263   2.271  15.642 -0.9091  0.5993  1.0219
    4DOPE  C313  498   4.304   2.369  15.458  0.3599  0.1977 -0.9668
    4DOPE  H13X  499   4.387   2.299  15.431 -0.5865 -2.1386  1.6465
    4DOPE  H13Y  500   4.214   2.322  15.414  2.0803 -1.8364 -2.5400
    4DOPE  C314  501   4.309   2.506  15.388 -0.3208  0.3109  0.2913
    4DOPE  H14X  502   4.290   2.488  15.280 -1.0934 -0.6274  0.5727
    4DOPE  H14Y  503   4.409   2.551  15.408 -0.9971  2.9406 -1.6475
    4DOPE  C315  504   4.203   2.604  15.440 -0.1125  0.1161 -0.0356
    4DOPE  H15X  505   4.239   2.621  15.544 -1.5018  1.3190  0.2930
    4DOPE  H15Y  506   4.110   2.544  15.455  0.3462 -0.8043 -0.7836
    4DOPE  C316  507   4.203   2.729  15.352  0.1649  0.1155 -0.5520
    4DOPE  H16X  508   4.311   2.758  15.354 -0.1783  1.5336  2.1929
    4DOPE  H16Y  509   4.147   2.814  15.396 -3.0164 -1.1433 -1.9145
    4DOPE  C317  510   4.161   2.706  15.209  0.2795 -0.1853  0.3979
    4DOPE  H17X  511   4.233   2.643  15.153 -0.4795 -0.6564 -0.0674
    4DOPE  H17Y  512   4.057   2.667  15.202  1.0338 -2.3140  0.2588
    4DOPE  C318  513   4.148   2.853  15.151 -0.3451  0.3238 -0.0219
    4DOPE  H18X  514   4.143   2.844  15.040  1.4235 -2.3348  0.0128
    4DOPE  H18Y  515   4.054   2.896  15.190 -1.6463 -0.2396 -2.3925
    4DOPE  H18Z  516   4.233   2.917  15.185 -0.9634  0.3480  1.5572
    5DOPE     N  517   1.970   4.833  17.016  0.7760  0.2778 -0.2140
    5DOPE   HN1  518   1.872   4.849  16.985  0.5396 -0.4788  0.1327
    5DOPE   HN2  519   1.978   4.740  17.061  1.9976  0.7179  0.5250
    5DOPE   HN3  520   1.995   4.897  17.095  0.0070  0.4028 -0.0599
    5DOPE   C12  521   2.080   4.848  16.909  0.0571  0.2136 -0.3906
    5DOPE  H12A  522   2.070   4.766  16.835  0.9505 -1.0157  0.8066
    5DOPE  H12B  523   2.180   4.840  16.957 -0.1571  2.3053  0.5096
    5DOPE   C11  524   2.064   4.988  16.841  0.0529  0.6422  0.4304
    5DOPE  H11A  525   2.140   4.990  16.760  1.0225  0.5627  1.3205
    5DOPE  H11B  526   2.076   5.071  16.914  0.9682 -0.7780  1.9511
    5DOPE     P  527   1.883   5.079  16.666  0.1135  0.1993  0.4802
    5DOPE   O13  528   1.915   5.220  16.688  0.0720  0.7282 -0.4081
    5DOPE   O14  529   1.738   5.041  16.652 -0.0528 -0.3327 -0.4155
    5DOPE   O11  530   1.967   5.007  16.561  0.0935  0.1293 -0.4039
    5DOPE   O12  531   1.928   5.004  16.794 -0.3005  0.8214 -0.2419
    5DOPE    C1  532   2.080   5.080  16.507 -0.1443  0.7430  0.0210
    5DOPE    HA  533   2.143   5.003  16.459 -2.2959 -1.1334  0.0641
    5DOPE    HB  534   2.148   5.122  16.585  1.2892 -0.5127 -0.5109
    5DOPE    C2  535   2.033   5.165  16.384 -0.0544 -0.0519 -0.3037
    5DOPE    HS  536   1.985   5.255  16.429  0.4398  0.7257 -1.2932
    5DOPE   O21  537   1.945   5.087  16.297 -0.0900  0.0478 -0.3318
    5DOPE   C21  538   1.865   5.165  16.226  0.2988 -0.3975  0.0412
    5DOPE   O22  539   1.856   5.291  16.227  0.4011  0.5914 -1.3689
    5DOPE   C22  540   1.782   5.081  16.119 -0.0048  0.2203  0.1349
    5DOPE   H2R  541   1.686   5.045  16.162  0.9779 -0.7503  1.6607
    5DOPE   H2S  542   1.836   4.986  16.097 -2.7643 -1.7177  1.2262
    5DOPE    C3  543   2.165   5.205  16.305  0.4984 -0.6697  0.5023
    5DOPE    HX  544   2.214   5.113  16.265  1.3589 -1.7584  3.7366
    5DOPE    HY  545   2.233   5.249  16.381 -0.9896  2.6337  0.0731
    5DOPE   O31  546   2.147   5.292  16.185 -0.1277  0.6712 -0.0576
    5DOPE   C31  547   2.156   5.425  16.209  0.6612  0.5331 -0.4511
    5DOPE   O32  548   2.159   5.469  16.325 -0.3907  0.4019  1.0114
    5DOPE   C32  549   2.150   5.500  16.081  0.6775 -0.1131  0.0055
    5DOPE   H2X  550   2.154   5.610  16.094 -2.0473  0.0496 -0.1007
    5DOPE   H2Y  551   2.240   5.476  16.020  0.2034 -1.2566 -0.2666
    5DOPE   C23  552   1.750   5.153  15.988  0.2632  0.1749  0.6029
    5DOPE   H3R  553   1.836   5.209  15.945 -0.2509 -0.1093 -0.8718
    5DOPE   H3S  554   1.683   5.236  16.020 -1.9073 -0.8732 -0.9536
    5DOPE   C24  555   1.673   5.075  15.876 -0.6630 -0.5492  0.6448
    5DOPE   H4R  556   1.584   5.139  15.855 -1.0671 -0.9933  0.9720
    5DOPE   H4S  557   1.628   4.983  15.920 -0.7364 -0.3790  0.9298
    5DOPE   C25  558   1.761   5.044  15.749  0.5670  0.2082  0.4272
    5DOPE   H5R  559   1.852   4.993  15.788 -1.1536 -2.4057  1.2941
    5DOPE   H5S  560   1.794   5.143  15.713  2.0011 -1.0358 -1.9161
    5DOPE   C26  561   1.684   4.959  15.648  0.1722  0.2737 -0.2000
    5DOPE   H6R  562   1.745   4.964  15.555 -1.1974 -1.3771 -1.2518
    5DOPE   H6S  563   1.583   5.002  15.628 -1.0685 -1.2262  2.2360
    5DOPE   C27  564   1.665   4.813  15.686  0.3312  0.1473 -0.5258
    5DOPE   H7R  565   1.614   4.757  15.605 -2.5745  3.3790 -1.1746
    5DOPE   H7S  566   1.593   4.801  15.769 -0.3981  0.5556 -1.0845
    5DOPE   C28  567   1.794   4.736  15.716  0.5863  0.8275 -0.0344
    5DOPE   H8R  568   1.770   4.637  15.760 -0.0739  0.9906 -0.0197
    5DOPE   H8S  569   1.842   4.783  15.804  0.7732  1.3086 -0.3861
    5DOPE   C29  570   1.881   4.718  15.589 -0.4369 -0.1899 -0.5802
    5DOPE   H9R  571   1.878   4.798  15.514 -1.4055 -1.2870 -1.7449
    5DOPE  C210  572   1.972   4.621  15.570 -0.2881  0.3788 -0.5498
    5DOPE  H10R  573   2.044   4.629  15.488 -1.2470  3.2439 -1.2262
    5DOPE  C211  574   1.991   4.503  15.668 -0.6539 -0.8053  0.0408
    5DOPE  H11R  575   1.923   4.517  15.755 -0.5177  0.6594 -0.0590
    5DOPE  H11S  576   2.096   4.510  15.705 -0.4086 -3.1089 -0.0620
    5DOPE  C212  577   1.972   4.365  15.599 -0.2079 -0.3994 -0.4250
    5DOPE  H12R  578   2.052   4.349  15.523  0.5461  1.4218 -0.0798
    5DOPE  H12S  579   1.869   4.357  15.558 -0.7208 -3.2927  1.1753
    5DOPE  C213  580   1.993   4.262  15.718 -0.1763  0.6675  0.0514
    5DOPE  H13R  581   1.912   4.276  15.793  1.0362  0.1928  1.5055
    5DOPE  H13S  582   2.090   4.274  15.771 -0.2118  0.4269  0.1712
    5DOPE  C214  583   1.981   4.120  15.656 -0.3833  0.7659 -0.0486
    5DOPE  H14R  584   2.065   4.093  15.589  0.4732  3.4804 -0.1760
    5DOPE  H14S  585   1.887   4.111  15.596 -0.6346  1.2538  0.2676
    5DOPE  C215  586   1.989   4.008  15.762 -0.0252 -0.0066  0.4332
    5DOPE  H15R  587   2.095   4.002  15.795 -0.3730 -1.8462  1.3199
    5DOPE  H15S  588   1.971   3.919  15.698 -1.9735  1.1127 -0.6659
    5DOPE  C216  589   1.898   4.009  15.886 -0.1797  0.8540  0.0899
    5DOPE  H16R  590   1.817   4.084  15.871 -1.8261 -0.8843 -0.1601
    5DOPE  H16S  591   1.958   4.018  15.978 -0.4161  2.5933  0.1077
    5DOPE  C217  592   1.822   3.875  15.900  0.4686 -0.6569  0.0781
    5DOPE  H17R  593   1.902   3.802  15.925  1.1995 -0.4530 -1.5654
    5DOPE  H17S  594   1.766   3.858  15.805  3.4915 -0.5988 -1.8386
    5DOPE  C218  595   1.714   3.881  16.017 -0.6433 -0.1921  0.7139
    5DOPE  H18R  596   1.634   3.805  16.000  0.0719 -0.5491 -1.3547
    5DOPE  H18S  597   1.663   3.980  16.019  1.7549  1.2386 -1.8023
    5DOPE  H18T  598   1.774   3.863  16.108  1.9172  0.3851 -0.7769
    5DOPE   C33  599   2.026   5.466  15.995  0.7471  0.3820  0.1690
    5DOPE   H3X  600   2.002   5.359  16.016 -0.5774  0.0401 -2.5812
    5DOPE   H3Y  601   2.063   5.473  15.891  1.7237  1.7681  0.5866
    5DOPE   C34  602   1.904   5.552  16.010  0.4495  0.3494  0.2174
    5DOPE   H4X  603   1.855   5.548  16.109 -0.0537 -0.5861 -0.0614
    5DOPE   H4Y  604   1.927   5.661  16.000 -2.6932  1.0042 -1.1649
    5DOPE   C35  605   1.797   5.524  15.906 -0.0869  0.2189 -0.6112
    5DOPE   H5X  606   1.691   5.535  15.936 -0.3468  0.0562 -1.4443
    5DOPE   H5Y  607   1.794   5.414  15.893 -0.1786  0.2521 -0.8760
    5DOPE   C36  608   1.817   5.597  15.768 -0.6017  0.2282  0.0810
    5DOPE   H6X  609   1.908   5.561  15.716  0.9925  0.3696  2.5820
    5DOPE   H6Y  610   1.835   5.706  15.786  2.5721 -0.4901  2.0416
    5DOPE   C37  611   1.698   5.587  15.679  0.4390  1.3854 -0.1686
    5DOPE   H7X  612   1.607   5.615  15.738  1.5164  2.8275  0.8861
    5DOPE   H7Y  613   1.706   5.654  15.591  0.2200 -0.1803 -1.4125
    5DOPE   C38  614   1.664   5.445  15.618 -0.1316  0.3354  0.2631
    5DOPE   H8X  615   1.559   5.459  15.587 -0.2280 -1.2346 -0.2297
    5DOPE   H8Y  616   1.656   5.379  15.706  2.0401  1.0604  1.0690
    5DOPE   C39  617   1.760   5.406  15.505 -0.0085  0.4579 -0.0824
    5DOPE   H9X  618   1.864   5.431  15.532  0.4154 -0.3035 -0.9547
    5DOPE  C310  619   1.730   5.373  15.378 -0.1999 -0.2811  0.6253
    5DOPE  H10X  620   1.820   5.346  15.321 -0.5410  0.0759 -0.0990
    5DOPE  C311  621   1.596   5.350  15.309 -0.6180 -0.4405 -0.6902
    5DOPE  H11X  622   1.558   5.250  15.340  1.2438 -0.8161  0.5542
    5DOPE  H11Y  623   1.535   5.439  15.336  0.2794 -0.0773  0.2065
    5DOPE  C312  624   1.613   5.358  15.155 -0.4228 -0.1008  0.0565
    5DOPE  H12X  625   1.663   5.454  15.131  0.0867 -0.3389  0.1483
    5DOPE  H12Y  626   1.510   5.362  15.115 -1.0914 -2.2847  1.4031
    5DOPE  C313  627   1.683   5.245  15.084  0.0314  0.3063 -0.1151
    5DOPE  H13X  628   1.780   5.232  15.137  0.5430  4.1149  0.1546
    5DOPE  H13Y  629   1.615   5.157  15.085 -1.7447  1.6236 -0.1065
    5DOPE  C314  630   1.705   5.286  14.937 -0.5251 -0.0355 -0.2255
    5DOPE  H14X  631   1.746   5.198  14.882  1.2287 -0.1198  1.1187
    5DOPE  H14Y  632   1.788   5.359  14.933 -1.3512  0.9055 -0.4463
    5DOPE  C315  633   1.576   5.332  14.865 -0.1213  0.4438  0.2364
    5DOPE  H15X  634   1.568   5.442  14.881 -0.3726  0.2528  1.4888
    5DOPE  H15Y  635   1.486   5.282  14.906 -1.1589  1.4674 -0.6997
    5DOPE  C316  636   1.586   5.293  14.718 -0.0592 -0.9258  0.6176
    5DOPE  H16X  637   1.492   5.307  14.661  1.3082 -0.8176 -1.7289
    5DOPE  H16Y  638   1.604   5.184  14.707  0.5716 -0.8931  1.2642
    5DOPE  C317  639   1.689   5.376  14.638 -0.0661 -0.3038  0.4677
    5DOPE  H17X  640   1.678   5.485  14.658  1.1673  0.1387 -1.0403
    5DOPE  H17Y  641   1.791   5.354  14.677  1.2408  1.7499 -1.5730
    5DOPE  C318  642   1.676   5.372  14.488  0.8554  0.2780 -0.7069
    5DOPE  H18X  643   1.757   5.429  14.437  0.5058 -0.2819 -1.9522
    5DOPE  H18Y  644   1.690   5.268  14.450  0.1062  0.2389 -0.9004
    5DOPE  H18Z  645   1.579   5.419  14.460  0.2503  0.8958  2.1384
    6DOPE     N  646   1.843   5.487  16.676 -0.1403 -0.1093  0.6008
    6DOPE   HN1  647   1.937   5.532  16.678 -1.0150  2.2211 -2.5025
    6DOPE   HN2  648   1.855   5.385  16.666 -1.3444 -0.1909 -0.1229
    6DOPE   HN3  649   1.801   5.524  16.589  2.2941  0.8239 -0.2714
    6DOPE   C12  650   1.773   5.534  16.805  0.1933 -0.3060  0.0695
    6DOPE  H12A  651   1.856   5.534  16.879 -0.0082 -2.9459  0.3924
    6DOPE  H12B  652   1.688   5.467  16.828 -0.3011 -0.5424 -2.2144
    6DOPE   C11  653   1.717   5.680  16.788 -0.4363  0.0737  0.1295
    6DOPE  H11A  654   1.797   5.756  16.802 -1.3616  0.9608  0.7483
    6DOPE  H11B  655   1.646   5.712  16.867 -1.2395  0.7515 -0.8332
    6DOPE     P  656   1.609   5.815  16.581  0.2939  0.1290  0.0029
    6DOPE   O13  657   1.522   5.886  16.683 -0.5700 -0.1676 -0.0075
    6DOPE   O14  658   1.550   5.782  16.448 -0.3160  0.2107 -0.1567
    6DOPE   O11  659   1.748   5.884  16.556 -0.4285 -0.0786 -0.7095
    6DOPE   O12  660   1.656   5.684  16.654 -0.4043  0.1936  0.2951
    6DOPE    C1  661   1.862   5.815  16.504  0.1448 -0.3347 -0.2756
    6DOPE    HA  662   1.852   5.704  16.497 -1.7003 -0.3039  1.2796
    6DOPE    HB  663   1.939   5.841  16.580 -0.4061 -0.4090  0.3158
    6DOPE    C2  664   1.878   5.855  16.352  0.0205  0.3553 -0.4868
    6DOPE    HS  665   1.885   5.965  16.345  0.9689  0.3023 -0.6234
    6DOPE   O21  666   1.765   5.793  16.283  0.4267 -0.0238  0.2169
    6DOPE   C21  667   1.696   5.886  16.220  0.0711  0.1946 -0.2479
    6DOPE   O22  668   1.692   6.005  16.238 -0.4200  0.3956 -0.1824
    6DOPE   C22  669   1.610   5.817  16.116  0.6243  0.8211 -0.0194
    6DOPE   H2R  670   1.508   5.859  16.131 -0.6207 -1.6814 -0.8447
    6DOPE   H2S  671   1.594   5.713  16.153 -3.5295  0.6601 -1.7282
    6DOPE    C3  672   2.010   5.798  16.290 -0.3371  0.9592  0.3067
    6DOPE    HX  673   2.000   5.688  16.293 -0.3909  0.9345 -0.6851
    6DOPE    HY  674   2.088   5.823  16.365  0.4016 -0.9754  0.2200
    6DOPE   O31  675   2.009   5.842  16.155 -0.0127 -0.2073 -0.7794
    6DOPE   C31  676   2.125   5.882  16.105 -0.2005 -0.4326 -0.2757
    6DOPE   O32  677   2.235   5.872  16.160 -0.0140  0.3780 -0.3437
    6DOPE   C32  678   2.108   5.898  15.949  0.2124  0.6047 -0.2618
    6DOPE   H2X  679   2.158   5.807  15.911  0.1833 -0.3648  1.9089
    6DOPE   H2Y  680   2.000   5.889  15.924 -0.0140  0.1818  0.8298
    6DOPE   C23  681   1.656   5.838  15.973  0.5314  0.3224  0.4734
    6DOPE   H3R  682   1.588   5.779  15.908 -0.7840  2.1113  0.1279
    6DOPE   H3S  683   1.758   5.799  15.954 -0.1901 -1.7136  0.6296
    6DOPE   C24  684   1.649   5.987  15.934 -0.0387 -0.1890  0.4348
    6DOPE   H4R  685   1.732   6.043  15.982  1.9595 -3.2974  0.8875
    6DOPE   H4S  686   1.555   6.029  15.976 -1.2885 -0.3215 -2.0255
    6DOPE   C25  687   1.654   6.021  15.781  0.1971  0.2277 -0.6915
    6DOPE   H5R  688   1.739   5.964  15.737 -0.4104 -2.2193  1.1141
    6DOPE   H5S  689   1.681   6.129  15.777  0.0736  0.3641  1.0541
    6DOPE   C26  690   1.522   5.989  15.703 -0.4471 -0.1179 -0.2331
    6DOPE   H6R  691   1.450   6.064  15.744  0.8228  1.1205 -0.1958
    6DOPE   H6S  692   1.502   5.885  15.736 -0.3846 -0.0951 -0.1237
    6DOPE   C27  693   1.535   6.007  15.546 -0.4006 -0.0500 -0.2196
    6DOPE   H7R  694   1.631   5.969  15.507  1.1477  3.4197 -0.1356
    6DOPE   H7S  695   1.521   6.115  15.528 -2.1684 -0.5781 -2.6292
    6DOPE   C28  696   1.418   5.945  15.472 -0.5754 -0.1472 -0.7676
    6DOPE   H8R  697   1.399   5.990  15.372 -0.4729  0.9554 -0.3054
    6DOPE   H8S  698   1.327   5.953  15.535 -0.1213 -0.0544 -0.1103
    6DOPE   C29  699   1.433   5.794  15.455  0.9476  0.3666 -0.3080
    6DOPE   H9R  700   1.362   5.731  15.511 -0.4022  2.6430  0.6929
    6DOPE  C210  701   1.494   5.737  15.353 -0.1243 -0.0144  0.6882
    6DOPE  H10R  702   1.472   5.629  15.347  0.5456 -0.0891 -0.7262
    6DOPE  C211  703   1.587   5.799  15.250  0.3964  0.2341 -0.5441
    6DOPE  H11R  704   1.691   5.762  15.262  0.9339  2.0528  0.7492
    6DOPE  H11S  705   1.598   5.908  15.265  0.3215  0.3351 -1.2048
    6DOPE  C212  706   1.536   5.785  15.110  0.3164 -0.0386 -0.3062
    6DOPE  H12R  707   1.500   5.687  15.071  0.2362  0.0725 -0.5145
    6DOPE  H12S  708   1.616   5.800  15.034 -1.5683 -1.5569 -2.7745
    6DOPE  C213  709   1.418   5.888  15.080 -0.0172  0.0164 -0.4691
    6DOPE  H13R  710   1.472   5.984  15.091  1.6488 -0.8090 -1.0097
    6DOPE  H13S  711   1.333   5.898  15.151  1.0400  1.7393  0.6388
    6DOPE  C214  712   1.356   5.878  14.937  1.1919 -0.3687 -0.5098
    6DOPE  H14R  713   1.298   5.972  14.926 -0.1043 -0.6232  2.9415
    6DOPE  H14S  714   1.278   5.800  14.923  0.6060  0.1516 -0.1532
    6DOPE  C215  715   1.454   5.865  14.824 -0.2083 -0.6845  0.0427
    6DOPE  H15R  716   1.519   5.776  14.836  0.0177 -0.3926  1.0431
    6DOPE  H15S  717   1.525   5.950  14.829 -1.1836  0.2958 -1.6592
    6DOPE  C216  718   1.379   5.873  14.693  0.4491  0.0736 -0.2897
    6DOPE  H16R  719   1.328   5.969  14.672 -0.0262  0.2617  1.5812
    6DOPE  H16S  720   1.312   5.784  14.691  0.2151  0.2468 -1.9363
    6DOPE  C217  721   1.472   5.845  14.572  0.9136  1.0751  0.2790
    6DOPE  H17R  722   1.557   5.916  14.566  0.8614  1.3817  2.3084
    6DOPE  H17S  723   1.417   5.839  14.476 -0.3014 -1.5383  1.0493
    6DOPE  C218  724   1.535   5.705  14.567  0.1039 -0.0393 -0.4006
    6DOPE  H18R  725   1.600   5.683  14.654 -0.7276 -0.1032  0.2088
    6DOPE  H18S  726   1.596   5.696  14.474 -3.4014 -0.1156 -2.8690
    6DOPE  H18T  727   1.454   5.630  14.572  1.6597 -1.8380 -0.7791
    6DOPE   C33  728   2.177   6.029  15.891  0.0439  0.1480 -0.5324
    6DOPE   H3X  729   2.285   6.009  15.881 -0.4633 -1.9821 -2.7523
    6DOPE   H3Y  730   2.159   6.111  15.964 -2.3180  1.9040 -2.8455
    6DOPE   C34  731   2.116   6.069  15.757 -0.2258  0.2539  0.3617
    6DOPE   H4X  732   2.119   5.995  15.674 -0.7287  0.8581 -0.2035
    6DOPE   H4Y  733   2.007   6.076  15.780 -0.8325 -1.2124 -1.7318
    6DOPE   C35  734   2.178   6.204  15.718 -0.3335  0.6747  0.1914
    6DOPE   H5X  735   2.286   6.198  15.744  0.2371 -0.7651 -2.1914
    6DOPE   H5Y  736   2.126   6.273  15.788  1.3469  0.7021  1.4640
    6DOPE   C36  737   2.164   6.248  15.575 -0.6579  0.1691  0.9850
    6DOPE   H6X  738   2.056   6.254  15.549 -0.4411 -1.3653 -0.3951
    6DOPE   H6Y  739   2.206   6.169  15.509 -0.8048  0.9714 -0.0899
    6DOPE   C37  740   2.238   6.374  15.535 -0.4294 -0.7629  0.4175
    6DOPE   H7X  741   2.187   6.456  15.589 -0.8054  1.7109 -3.3914
    6DOPE   H7Y  742   2.344   6.377  15.567 -0.8952  1.8282  2.0012
    6DOPE   C38  743   2.228   6.412  15.389 -0.0256  0.5502  0.4106
    6DOPE   H8X  744   2.268   6.331  15.325  1.0766  2.4441 -1.4395
    6DOPE   H8Y  745   2.294   6.498  15.366 -0.1516  0.6196  0.3121
    6DOPE   C39  746   2.091   6.442  15.342  0.8709  0.3971  0.0909
    6DOPE   H9X  747   2.012   6.434  15.418 -0.1777  0.6258 -0.9429
    6DOPE  C310  748   2.047   6.473  15.218 -0.3491  0.1544 -0.2249
    6DOPE  H10X  749   1.940   6.494  15.204 -0.0420  2.5395  0.5465
    6DOPE  C311  750   2.139   6.499  15.103  0.4918 -0.5936  0.0171
    6DOPE  H11X  751   2.229   6.553  15.139  0.5164 -1.4653  1.3645
    6DOPE  H11Y  752   2.173   6.399  15.069 -1.1728 -0.6942 -1.4637
    6DOPE  C312  753   2.049   6.576  15.004 -0.0870 -0.4126  0.3763
    6DOPE  H12X  754   2.022   6.677  15.040 -3.4881 -1.1250  0.1521
    6DOPE  H12Y  755   1.959   6.516  14.975 -1.3076  1.3070  0.4755
    6DOPE  C313  756   2.136   6.604  14.877  0.0507  0.1851  0.0051
    6DOPE  H13X  757   2.198   6.692  14.903  0.2479 -0.2228  0.9833
    6DOPE  H13Y  758   2.204   6.521  14.849 -0.8418 -0.8154  0.7272
    6DOPE  C314  759   2.036   6.626  14.754  0.1043 -0.1119 -0.4861
    6DOPE  H14X  760   1.958   6.692  14.797  1.5720  0.9518  0.6534
    6DOPE  H14Y  761   1.975   6.538  14.723 -2.7880  0.7349  2.2755
    6DOPE  C315  762   2.104   6.678  14.636  0.3384  0.8208 -0.1593
    6DOPE  H15X  763   2.195   6.617  14.618 -0.5869 -0.9970  1.0418
    6DOPE  H15Y  764   2.150   6.777  14.660  2.2719 -0.1987  0.5795
    6DOPE  C316  765   2.026   6.675  14.504  0.3908  0.8313  0.9951
    6DOPE  H16X  766   1.923   6.713  14.518  0.0097 -0.2645  1.2461
    6DOPE  H16Y  767   2.011   6.574  14.461  1.2910  1.2825 -0.4379
    6DOPE  C317  768   2.094   6.755  14.390 -0.5330 -0.2626 -0.2328
    6DOPE  H17X  769   2.107   6.852  14.442  0.2111 -1.0126  1.0339
    6DOPE  H17Y  770   2.193   6.713  14.359  0.4517  2.0817 -0.4710
    6DOPE  C318  771   2.018   6.770  14.262  0.6402  0.5511  0.2302
    6DOPE  H18X  772   1.953   6.860  14.270  0.0170  0.0640  0.7560
    6DOPE  H18Y  773   2.083   6.805  14.179  1.1698 -0.3702  0.2499
    6DOPE  H18Z  774   1.964   6.679  14.228 -0.6382  0.8029  1.4784
    7DOPE     N  775   4.014   5.891  17.022  0.0555 -0.4652 -0.0860
    7DOPE   HN1  776   4.041   5.862  17.119  0.3204 -0.9957 -0.3100
    7DOPE   HN2  777   4.099   5.905  16.964  0.0264  0.6739  0.1273
    7DOPE   HN3  778   3.987   5.991  17.031  0.7354 -0.0838 -1.8480
    7DOPE   C12  779   3.925   5.804  16.947  0.6302 -0.5887  0.3571
    7DOPE  H12A  780   3.822   5.811  16.989  0.2679  1.7907 -0.7248
    7DOPE  H12B  781   3.970   5.702  16.943 -0.7575 -1.2404  0.5826
    7DOPE   C11  782   3.919   5.866  16.806  0.8576 -0.6461  0.3407
    7DOPE  H11A  783   3.872   5.780  16.754 -0.3598 -0.5916  1.2900
    7DOPE  H11B  784   4.020   5.877  16.763  0.5251  1.4580 -0.0377
    7DOPE     P  785   3.893   6.132  16.797  0.1208  0.0180  0.0583
    7DOPE   O13  786   3.990   6.158  16.905  0.0106 -0.0138  0.1900
    7DOPE   O14  787   3.785   6.230  16.785  0.2781 -0.7524 -0.4895
    7DOPE   O11  788   3.976   6.127  16.657  0.5521 -0.5881 -0.2624
    7DOPE   O12  789   3.838   5.983  16.801  0.5615 -0.0261 -0.8011
    7DOPE    C1  790   3.904   6.137  16.539 -0.5367 -0.1933  0.2838
    7DOPE    HA  791   3.805   6.087  16.537 -1.0855  0.8654 -0.4716
    7DOPE    HB  792   3.963   6.074  16.469  0.4332 -0.5603  1.4041
    7DOPE    C2  793   3.889   6.282  16.489 -0.2609  0.2456  0.4748
    7DOPE    HS  794   3.808   6.337  16.543  0.9738  3.0983 -0.3878
    7DOPE   O21  795   3.878   6.257  16.345 -0.0040  0.5921 -0.3659
    7DOPE   C21  796   3.806   6.351  16.286 -0.6855 -0.3152  0.1381
    7DOPE   O22  797   3.726   6.424  16.349  0.3012  0.4192  0.3675
    7DOPE   C22  798   3.831   6.357  16.135 -0.0079 -0.3197  0.3095
    7DOPE   H2R  799   3.806   6.256  16.096 -1.1993  0.8736 -2.3022
    7DOPE   H2S  800   3.938   6.374  16.111  0.8218 -4.7310  0.0457
    7DOPE    C3  801   4.009   6.378  16.520  0.2141 -0.1393 -0.2640
    7DOPE    HX  802   4.103   6.326  16.492  1.8250  1.8990  1.0755
    7DOPE    HY  803   4.019   6.389  16.630 -0.1893 -1.8214 -0.0303
    7DOPE   O31  804   4.003   6.507  16.457  0.0415  0.0832  0.1587
    7DOPE   C31  805   3.948   6.606  16.525 -0.2223 -0.4933 -0.6975
    7DOPE   O32  806   3.905   6.601  16.636  0.1235  0.3037 -0.3088
    7DOPE   C32  807   3.952   6.736  16.442  0.0067  0.7764 -0.5088
    7DOPE   H2X  808   3.888   6.815  16.488 -0.8970  0.2935 -0.8997
    7DOPE   H2Y  809   4.055   6.775  16.450  0.2571 -0.2450  1.7584
    7DOPE   C23  810   3.737   6.464  16.064 -0.6685 -0.2159 -0.6598
    7DOPE   H3R  811   3.755   6.564  16.108  2.0803 -1.2041  0.7084
    7DOPE   H3S  812   3.630   6.438  16.076 -0.2415 -1.6939  0.2324
    7DOPE   C24  813   3.775   6.484  15.916  0.1578 -0.0623  0.2779
    7DOPE   H4R  814   3.694   6.543  15.868 -1.0085 -0.7338  1.3600
    7DOPE   H4S  815   3.775   6.383  15.869  2.6736  0.0127 -0.0189
    7DOPE   C25  816   3.916   6.551  15.897  0.2000 -0.2508 -0.3001
    7DOPE   H5R  817   3.991   6.491  15.953  0.9060  0.2424 -0.7092
    7DOPE   H5S  818   3.912   6.648  15.950 -0.9103 -0.7062  0.4895
    7DOPE   C26  819   3.962   6.565  15.755 -0.2175 -0.9867  0.1159
    7DOPE   H6R  820   4.071   6.585  15.760 -0.5761  1.4110 -0.3889
    7DOPE   H6S  821   3.902   6.651  15.717  2.2331  0.0814 -1.6213
    7DOPE   C27  822   3.950   6.435  15.667 -0.2150  0.7005 -0.3336
    7DOPE   H7R  823   3.985   6.470  15.567 -0.3842  0.1875 -0.5774
    7DOPE   H7S  824   3.841   6.412  15.657 -0.1385  0.4433 -0.6044
    7DOPE   C28  825   4.020   6.306  15.713  0.3282 -0.4135 -0.3797
    7DOPE   H8R  826   3.986   6.288  15.817  1.2172  1.6155  0.3261
    7DOPE   H8S  827   4.127   6.335  15.725  0.0410  0.7105 -0.4067
    7DOPE   C29  828   3.990   6.187  15.625  0.2366 -0.6163  0.0034
    7DOPE   H9R  829   3.887   6.148  15.625 -0.3033  0.7686 -0.4616
    7DOPE  C210  830   4.077   6.155  15.524 -1.1729 -0.4409  0.5363
    7DOPE  H10R  831   4.063   6.069  15.458  4.3712 -2.3607  1.2910
    7DOPE  C211  832   4.221   6.210  15.496 -0.0025  0.0378 -0.4727
    7DOPE  H11R  833   4.296   6.141  15.541  1.2049  0.0612 -2.3347
    7DOPE  H11S  834   4.241   6.311  15.537  0.4137 -0.0774 -0.3843
    7DOPE  C212  835   4.247   6.230  15.346  0.4123  0.5620  0.3983
    7DOPE  H12R  836   4.336   6.296  15.335  1.5919 -1.0326  0.1363
    7DOPE  H12S  837   4.160   6.272  15.292 -0.0733 -1.7245 -0.7046
    7DOPE  C213  838   4.285   6.107  15.263 -0.8683  0.4368 -0.3540
    7DOPE  H13R  839   4.206   6.032  15.287 -3.3673  2.4572 -1.7010
    7DOPE  H13S  840   4.383   6.072  15.302  0.1137  2.9981 -0.3739
    7DOPE  C214  841   4.275   6.136  15.116 -0.2849 -0.4592 -0.1147
    7DOPE  H14R  842   4.350   6.215  15.093 -0.4534 -0.3919 -0.4306
    7DOPE  H14S  843   4.179   6.179  15.079  0.2721  1.6741  0.7109
    7DOPE  C215  844   4.297   6.006  15.040  0.3395 -0.3541 -0.8401
    7DOPE  H15R  845   4.207   5.941  15.046 -0.5230  0.9365  2.4844
    7DOPE  H15S  846   4.376   5.947  15.092 -0.7306  0.5271  1.9727
    7DOPE  C216  847   4.336   6.042  14.893 -0.4128 -0.0272 -0.5765
    7DOPE  H16R  848   4.427   6.105  14.903 -0.4222  0.1665 -1.5511
    7DOPE  H16S  849   4.253   6.103  14.851  0.4760  0.5208 -1.5730
    7DOPE  C217  850   4.367   5.922  14.802  0.1594  0.8431 -0.7767
    7DOPE  H17R  851   4.270   5.870  14.785  1.0297 -0.2850 -2.7320
    7DOPE  H17S  852   4.433   5.849  14.854 -0.0720  0.9927 -0.2711
    7DOPE  C218  853   4.430   5.955  14.666 -0.2159  0.4301  0.7315
    7DOPE  H18R  854   4.431   5.869  14.596  0.8723  0.5381  0.6040
    7DOPE  H18S  855   4.537   5.966  14.694  0.5141 -1.5486 -0.9748
    7DOPE  H18T  856   4.394   6.046  14.615 -2.6276  0.0151  1.5474
    7DOPE   C33  857   3.911   6.718  16.291  0.1930  0.2734 -0.4084
    7DOPE   H3X  858   3.803   6.694  16.280 -0.3598  1.7888  1.2001
    7DOPE   H3Y  859   3.991   6.649  16.255  1.1963  0.2043  1.7849
    7DOPE   C34  860   3.923   6.847  16.212  1.0446  0.1106  0.0606
    7DOPE   H4X  861   3.896   6.818  16.107  1.8179 -1.6763  0.3083
    7DOPE   H4Y  862   3.857   6.931  16.241  1.5926  0.5192  0.1303
    7DOPE   C35  863   4.063   6.916  16.221  0.1785 -0.2671  0.3872
    7DOPE   H5X  864   4.136   6.832  16.225  1.4925  0.7618 -1.0202
    7DOPE   H5Y  865   4.073   6.979  16.311 -0.5470  0.7128 -0.1988
    7DOPE   C36  866   4.100   7.027  16.122  0.7504  0.0058  0.3701
    7DOPE   H6X  867   4.211   7.033  16.127  0.8009  0.4145 -0.9212
    7DOPE   H6Y  868   4.054   7.124  16.152 -2.4832 -1.0595 -0.7791
    7DOPE   C37  869   4.072   6.990  15.972  0.3959 -0.1171 -0.0141
    7DOPE   H7X  870   4.142   6.908  15.945  1.4101  0.1565  1.6174
    7DOPE   H7Y  871   3.964   6.966  15.958  0.0460  0.2554  1.7338
    7DOPE   C38  872   4.110   7.102  15.871 -0.4588 -0.1192  0.3445
    7DOPE   H8X  873   4.219   7.123  15.874 -0.0123 -2.2265  1.2034
    7DOPE   H8Y  874   4.060   7.197  15.899  2.0508  2.1691 -2.3348
    7DOPE   C39  875   4.070   7.068  15.728  0.0187 -0.6753 -0.4101
    7DOPE   H9X  876   3.971   7.109  15.703 -0.3726 -1.1197  0.3689
    7DOPE  C310  877   4.145   6.986  15.648  0.0269 -0.2102 -0.4024
    7DOPE  H10X  878   4.107   6.971  15.545  1.1896  0.0140 -0.8815
    7DOPE  C311  879   4.284   6.933  15.673 -0.4002 -0.2090  0.3968
    7DOPE  H11X  880   4.356   6.991  15.610 -0.3385  0.5523  1.1430
    7DOPE  H11Y  881   4.314   6.964  15.775  2.8940  0.7016 -0.7137
    7DOPE  C312  882   4.287   6.781  15.663 -0.2866  0.3992  0.0226
    7DOPE  H12X  883   4.194   6.745  15.613 -0.3866 -0.0666  0.5383
    7DOPE  H12Y  884   4.269   6.755  15.769 -3.2776 -0.0327 -0.4790
    7DOPE  C313  885   4.419   6.724  15.614 -0.5146  0.4613 -0.4241
    7DOPE  H13X  886   4.441   6.753  15.509  2.7569  0.4567  0.1498
    7DOPE  H13Y  887   4.496   6.756  15.687  0.0977  1.9272 -1.6418
    7DOPE  C314  888   4.419   6.568  15.625 -0.3379 -0.0346 -1.0876
    7DOPE  H14X  889   4.329   6.544  15.565 -0.1794 -2.5261 -0.4154
    7DOPE  H14Y  890   4.386   6.547  15.728  1.7490 -1.1687 -0.5906
    7DOPE  C315  891   4.555   6.506  15.592  0.0511  0.5993  0.2409
    7DOPE  H15X  892   4.623   6.535  15.675  0.1441 -1.2409  0.8546
    7DOPE  H15Y  893   4.586   6.564  15.503  0.0800  3.2678  1.8745
    7DOPE  C316  894   4.569   6.351  15.563  0.2893  0.3932 -0.5558
    7DOPE  H16X  895   4.494   6.338  15.481  0.2534 -0.0625 -0.4484
    7DOPE  H16Y  896   4.548   6.295  15.656 -0.0589  0.1265 -0.7903
    7DOPE  C317  897   4.710   6.310  15.518 -0.1428 -0.8121  0.3276
    7DOPE  H17X  898   4.775   6.336  15.603 -1.9250  0.7121  1.3091
    7DOPE  H17Y  899   4.718   6.199  15.512  0.6690 -0.7965  1.0012
    7DOPE  C318  900   4.747   6.361  15.388 -0.1021  0.4521 -0.1290
    7DOPE  H18X  901   4.756   6.472  15.392  0.2518  0.5954 -3.0821
    7DOPE  H18Y  902   4.851   6.332  15.361 -0.1449 -2.5013  2.3887
    7DOPE  H18Z  903   4.673   6.327  15.313  1.2562 -2.5816 -0.2055
    8DOPE     N  904   4.166   7.467  16.582 -0.4106 -0.0493  0.1143
    8DOPE   HN1  905   4.072   7.424  16.596 -0.5139 -0.2300 -1.0212
    8DOPE   HN2  906   4.234   7.404  16.628  0.5752  0.6638 -0.3274
    8DOPE   HN3  907   4.173   7.564  16.618 -2.2025 -0.2606  1.1840
    8DOPE   C12  908   4.207   7.449  16.441  0.0545 -0.3195 -0.0196
    8DOPE  H12A  909   4.312   7.486  16.442 -0.7034  2.0537 -0.7979
    8DOPE  H12B  910   4.146   7.520  16.379 -0.2419 -0.3817  0.1978
    8DOPE   C11  911   4.198   7.303  16.390 -0.0204 -0.0315  0.2840
    8DOPE  H11A  912   4.293   7.289  16.335  1.2324  1.8716  1.8356
    8DOPE  H11B  913   4.119   7.290  16.313  1.1186  0.1455 -0.9489
    8DOPE     P  914   4.307   7.159  16.575 -0.3621  0.4247 -0.2195
    8DOPE   O13  915   4.290   7.016  16.624 -0.2031  0.4888  0.4436
    8DOPE   O14  916   4.332   7.264  16.668 -0.0677 -0.6551 -0.9344
    8DOPE   O11  917   4.421   7.154  16.470 -0.5566  0.3712  0.4400
    8DOPE   O12  918   4.184   7.204  16.491  0.5104 -0.3914  0.0004
    8DOPE    C1  919   4.424   7.050  16.371 -0.1746  0.1183  0.3997
    8DOPE    HA  920   4.452   7.093  16.273  3.2197 -1.3511  0.6164
    8DOPE    HB  921   4.331   6.990  16.361  1.7069 -2.8560 -0.3450
    8DOPE    C2  922   4.537   6.945  16.396  0.0601  0.1386  0.2651
    8DOPE    HS  923   4.491   6.868  16.462  1.9909  0.1561  1.7286
    8DOPE   O21  924   4.639   7.013  16.465  0.3118  0.0505 -0.2189
    8DOPE   C21  925   4.723   6.932  16.523 -0.6547 -0.2924  0.8551
    8DOPE   O22  926   4.724   6.810  16.520 -0.0592 -1.0096 -0.2590
    8DOPE   C22  927   4.831   7.013  16.587  0.0851  0.7073 -0.1594
    8DOPE   H2R  928   4.815   6.994  16.695  1.8873  2.1244  0.4149
    8DOPE   H2S  929   4.825   7.121  16.559  0.8410  1.0171  0.8128
    8DOPE    C3  930   4.587   6.888  16.253 -0.6521  0.3337  0.2798
    8DOPE    HX  931   4.658   6.803  16.254 -1.8576 -0.7487 -1.3469
    8DOPE    HY  932   4.652   6.970  16.214 -0.3225 -0.9111 -1.9405
    8DOPE   O31  933   4.485   6.857  16.159  0.2032 -0.2372 -0.2039
    8DOPE   C31  934   4.428   6.736  16.168 -0.7918 -0.2678  0.4008
    8DOPE   O32  935   4.452   6.657  16.256  0.6459  0.6027 -0.0838
    8DOPE   C32  936   4.344   6.707  16.042  0.8664 -0.1693 -0.1838
    8DOPE   H2X  937   4.268   6.788  16.037  0.9431 -0.0257  0.8514
    8DOPE   H2Y  938   4.410   6.707  15.952  0.8626  1.1333 -0.2068
    8DOPE   C23  939   4.973   6.977  16.544  0.0120 -0.1865  1.0386
    8DOPE   H3R  940   5.003   6.870  16.547 -0.3388 -0.3470 -0.4018
    8DOPE   H3S  941   5.040   7.028  16.616  2.5045 -2.2061  0.2747
    8DOPE   C24  942   5.006   7.020  16.397 -0.4217 -0.8427 -0.3183
    8DOPE   H4R  943   4.969   7.122  16.371  0.0423 -0.4559  0.4831
    8DOPE   H4S  944   4.956   6.944  16.334 -0.6723 -0.9079 -0.0442
    8DOPE   C25  945   5.163   7.017  16.375  0.3653 -0.2284  0.4356
    8DOPE   H5R  946   5.195   6.919  16.418 -1.2337 -0.4205  1.2832
    8DOPE   H5S  947   5.207   7.105  16.427  2.3400  0.1687 -1.7781
    8DOPE   C26  948   5.176   7.024  16.219 -0.5266 -0.1218  0.0121
    8DOPE   H6R  949   5.217   7.122  16.186  0.9228 -0.6167  0.2636
    8DOPE   H6S  950   5.072   7.008  16.182 -0.7720  0.5703  0.3893
    8DOPE   C27  951   5.263   6.915  16.160 -0.0124  0.1421 -0.0469
    8DOPE   H7R  952   5.215   6.818  16.185  0.0636  0.4804  1.4922
    8DOPE   H7S  953   5.364   6.938  16.198  0.3403 -0.4894 -0.5687
    8DOPE   C28  954   5.272   6.924  16.001  0.1036  0.4847 -0.9717
    8DOPE   H8R  955   5.351   6.856  15.964  1.5648 -0.8315  3.8039
    8DOPE   H8S  956   5.315   7.024  15.978  1.5022 -0.0098 -0.5722
    8DOPE   C29  957   5.130   6.908  15.947 -0.1157  0.2465  0.4743
    8DOPE   H9R  958   5.057   6.987  15.971 -0.7435  0.2639 -1.3550
    8DOPE  C210  959   5.084   6.815  15.866 -0.1118 -0.0903 -0.3721
    8DOPE  H10R  960   4.977   6.820  15.844 -0.1176  3.4254 -0.1010
    8DOPE  C211  961   5.164   6.705  15.796  0.4348  0.1357 -0.5886
    8DOPE  H11R  962   5.171   6.616  15.862  0.9409  0.3229 -0.3758
    8DOPE  H11S  963   5.269   6.735  15.774  0.2638 -0.7221 -2.8397
    8DOPE  C212  964   5.099   6.670  15.655  0.1557 -0.0994 -0.3458
    8DOPE  H12R  965   4.993   6.637  15.666 -0.0278  0.4431 -0.4604
    8DOPE  H12S  966   5.158   6.580  15.628  1.5618  0.5457  0.4816
    8DOPE  C213  967   5.113   6.767  15.543 -0.7915  0.4599 -0.8815
    8DOPE  H13R  968   5.212   6.816  15.558 -0.6896  0.3793 -1.2929
    8DOPE  H13S  969   5.038   6.849  15.551  0.2597  1.3681  0.1185
    8DOPE  C214  970   5.100   6.698  15.407  0.1370  0.4596  0.5850
    8DOPE  H14R  971   4.996   6.659  15.403 -0.0102  0.9414 -0.8718
    8DOPE  H14S  972   5.166   6.612  15.385  1.1864  0.8915  1.8876
    8DOPE  C215  973   5.117   6.799  15.293  0.5364  0.1656  0.5511
    8DOPE  H15R  974   5.144   6.903  15.323 -0.4774  0.6557 -0.1705
    8DOPE  H15S  975   5.022   6.811  15.236  0.4241 -2.2033  0.1181
    8DOPE  C216  976   5.236   6.766  15.196 -0.5701 -0.4101 -0.2407
    8DOPE  H16R  977   5.233   6.660  15.162  1.8447 -0.6332  0.0962
    8DOPE  H16S  978   5.326   6.783  15.257 -0.7607  3.0752 -0.7108
    8DOPE  C217  979   5.243   6.841  15.062 -0.2630 -0.5433 -0.5345
    8DOPE  H17R  980   5.251   6.947  15.093 -2.8010 -0.6503  0.7572
    8DOPE  H17S  981   5.141   6.831  15.019 -0.9120  1.2446  0.4902
    8DOPE  C218  982   5.347   6.798  14.966  0.2894  1.2914  0.1469
    8DOPE  H18R  983   5.335   6.860  14.874 -1.3376  0.1348 -0.4891
    8DOPE  H18S  984   5.337   6.693  14.932  1.4740  0.6585  1.6638
    8DOPE  H18T  985   5.448   6.798  15.011 -0.0959  0.5072  1.0378
    8DOPE   C33  986   4.271   6.571  16.036  0.2129 -0.2757  0.0228
    8DOPE   H3X  987   4.194   6.569  15.957  1.2716 -1.6480 -1.0180
    8DOPE   H3Y  988   4.215   6.544  16.129 -0.5686 -0.3149 -0.4536
    8DOPE   C34  989   4.375   6.462  15.994  0.0195  0.2104  0.3939
    8DOPE   H4X  990   4.325   6.405  15.913  0.5025 -0.9185  0.8546
    8DOPE   H4Y  991   4.463   6.510  15.946  0.3265  0.2695  1.0057
    8DOPE   C35  992   4.418   6.358  16.103  0.1348  0.5747 -0.0061
    8DOPE   H5X  993   4.491   6.409  16.170 -0.1427  1.9298 -0.7039
    8DOPE   H5Y  994   4.463   6.272  16.049 -1.4495  0.1454 -0.6772
    8DOPE   C36  995   4.314   6.301  16.203 -0.4924 -0.4811 -0.2140
    8DOPE   H6X  996   4.257   6.387  16.242  1.2420 -0.2790  2.1594
    8DOPE   H6Y  997   4.369   6.258  16.290  0.9618  1.3700 -0.1492
    8DOPE   C37  998   4.211   6.204  16.144 -0.9272  0.3732 -0.4118
    8DOPE   H7X  999   4.151   6.151  16.221 -0.7105  0.4323 -0.2017
    8DOPE   H7Y 1000   4.143   6.263  16.079 -2.1406 -1.6981 -1.1265
    8DOPE   C38 1001   4.259   6.090  16.048  0.2255  0.5167 -0.5928
    8DOPE   H8X 1002   4.312   6.136  15.962  1.9630 -0.8751 -0.3332
    8DOPE   H8Y 1003   4.170   6.028  16.023 -0.1191  1.3615 -1.4643
    8DOPE   C39 1004   4.366   6.003  16.111  0.5872  0.3915 -0.8899
    8DOPE   H9X 1005   4.465   6.051  16.111  0.3767  0.8864  0.6528
    8DOPE  C310 1006   4.357   5.879  16.166 -0.4157 -0.2257  0.6714
    8DOPE  H10X 1007   4.450   5.843  16.213  0.6302  3.4255  1.7353
    8DOPE  C311 1008   4.234   5.798  16.185 -0.0759  0.2011 -0.2679
    8DOPE  H11X 1009   4.228   5.779  16.294  1.3404  4.0124  0.6469
    8DOPE  H11Y 1010   4.140   5.856  16.170 -0.7154 -0.8552 -0.4741
    8DOPE  C312 1011   4.253   5.664  16.103  0.0476 -0.6807 -0.2189
    8DOPE  H12X 1012   4.246   5.685  15.994 -0.8673  1.8887  0.2761
    8DOPE  H12Y 1013   4.169   5.601  16.139 -1.4764  0.8837 -0.9190
    8DOPE  C313 1014   4.379   5.575  16.126  0.3344 -0.2831  0.2846
    8DOPE  H13X 1015   4.463   5.609  16.061 -1.4807  2.7490 -0.6909
    8DOPE  H13Y 1016   4.405   5.592  16.233 -0.1990 -0.1831  0.4049
    8DOPE  C314 1017   4.363   5.427  16.113 -0.1353 -0.0789  0.0558
    8DOPE  H14X 1018   4.263   5.400  16.154  0.0186 -0.0524  0.4533
    8DOPE  H14Y 1019   4.434   5.369  16.175  0.0356  0.2241  0.1446
    8DOPE  C315 1020   4.382   5.375  15.966  0.9302  0.0343 -0.4000
    8DOPE  H15X 1021   4.491   5.390  15.949  1.2402 -0.5825  0.9619
    8DOPE  H15Y 1022   4.330   5.452  15.906 -0.3504  1.9808  2.9550
    8DOPE  C316 1023   4.330   5.238  15.942 -0.0095  0.0899 -0.5462
    8DOPE  H16X 1024   4.327   5.230  15.832 -2.4971  0.3383 -0.5491
    8DOPE  H16Y 1025   4.225   5.228  15.976  0.6815  1.5341  2.3554
    8DOPE  C317 1026   4.412   5.127  15.997 -0.0138  0.2568  0.2559
    8DOPE  H17X 1027   4.516   5.124  15.956 -0.2890  0.4036 -0.4601
    8DOPE  H17Y 1028   4.419   5.143  16.107 -0.6845  1.4133  0.1441
    8DOPE  C318 1029   4.348   4.992  15.960  0.0571  0.0084 -0.1105
    8DOPE  H18X 1030   4.416   4.906  15.976 -2.1982 -1.4663  2.2862
    8DOPE  H18Y 1031   4.321   4.987  15.852  0.4912  1.7423 -0.3340
    8DOPE  H18Z 1032   4.261   4.974  16.026 -0.8919  2.0650 -0.7076
    9DOPE     N 1033   1.566   4.971  16.834  0.2140  0.1459  0.4871
    9DOPE   HN1 1034   1.495   4.940  16.764  2.0565 -1.9334 -0.5568
    9DOPE   HN2 1035   1.533   5.067  16.858 -0.2227 -0.3575  2.0390
    9DOPE   HN3 1036   1.657   4.978  16.784  0.1097  1.4686  0.4401
    9DOPE   C12 1037   1.574   4.885  16.955 -0.6527 -0.3437 -0.1399
    9DOPE  H12A 1038   1.471   4.892  16.996 -1.9605 -0.6187 -3.0875
    9DOPE  H12B 1039   1.640   4.937  17.027 -2.1058  0.5438  0.5963
    9DOPE   C11 1040   1.610   4.742  16.922 -0.6300 -0.0310  0.2201
    9DOPE  H11A 1041   1.538   4.704  16.847 -1.3029 -0.2354  0.9519
    9DOPE  H11B 1042   1.593   4.678  17.011 -1.2443  0.1967  0.2700
    9DOPE     P 1043   1.786   4.581  16.836 -0.1576  0.0366 -0.2713
    9DOPE   O13 1044   1.672   4.489  16.840 -0.3989  0.2566  0.3152
    9DOPE   O14 1045   1.909   4.550  16.915  0.0949  0.6772 -0.2348
    9DOPE   O11 1046   1.811   4.601  16.682 -0.3722 -0.0684  0.4255
    9DOPE   O12 1047   1.741   4.730  16.884  0.2006 -0.2370 -0.5402
    9DOPE    C1 1048   1.785   4.720  16.612 -0.7066 -0.2409  0.2539
    9DOPE    HA 1049   1.854   4.801  16.641 -1.4786 -0.0817  1.7687
    9DOPE    HB 1050   1.682   4.758  16.630 -0.8228 -0.1524 -0.5519
    9DOPE    C2 1051   1.789   4.691  16.458 -0.3346 -0.1979 -0.4747
    9DOPE    HS 1052   1.722   4.604  16.436 -1.1221  0.8719 -2.6516
    9DOPE   O21 1053   1.921   4.650  16.416 -0.6911 -0.4168  0.0926
    9DOPE   C21 1054   1.923   4.576  16.311 -0.0926 -0.2057  0.0592
    9DOPE   O22 1055   1.828   4.524  16.252 -0.4625 -0.1814 -0.7368
    9DOPE   C22 1056   2.069   4.569  16.252  0.0931  0.0560 -0.2901
    9DOPE   H2R 1057   2.130   4.493  16.305  2.0091  2.5612  1.3614
    9DOPE   H2S 1058   2.119   4.657  16.297  2.5009 -1.6228  0.5481
    9DOPE    C3 1059   1.755   4.816  16.378  1.0189  0.2021 -1.1295
    9DOPE    HX 1060   1.831   4.896  16.385  0.4492  0.6859 -0.0679
    9DOPE    HY 1061   1.674   4.874  16.429  1.1542  0.0876 -0.7846
    9DOPE   O31 1062   1.720   4.794  16.237 -0.0052 -0.2198  0.1475
    9DOPE   C31 1063   1.594   4.740  16.225 -0.8078 -0.2297  0.8707
    9DOPE   O32 1064   1.513   4.734  16.314 -0.1426  0.6749 -0.0758
    9DOPE   C32 1065   1.569   4.697  16.080  0.4344 -0.0556  0.0489
    9DOPE   H2X 1066   1.552   4.784  16.013 -0.8799 -0.2520  0.1071
    9DOPE   H2Y 1067   1.656   4.649  16.029  0.1467  0.8165 -1.3355
    9DOPE   C23 1068   2.091   4.558  16.095 -0.4584  0.2446 -0.0677
    9DOPE   H3R 1069   2.038   4.470  16.053 -0.8714  0.6389 -0.3933
    9DOPE   H3S 1070   2.198   4.529  16.083 -0.9250 -2.0520  0.7676
    9DOPE   C24 1071   2.044   4.687  16.027 -0.5336 -0.4771  0.2004
    9DOPE   H4R 1072   1.941   4.703  16.067  0.3848 -2.1770  3.5610
    9DOPE   H4S 1073   2.028   4.653  15.922 -0.9676  0.9788 -0.2306
    9DOPE   C25 1074   2.132   4.812  16.034  0.5772  0.4178 -0.1038
    9DOPE   H5R 1075   2.237   4.776  16.041  1.1348  2.3011  2.6714
    9DOPE   H5S 1076   2.105   4.863  16.128  0.6611 -0.9005  0.6655
    9DOPE   C26 1077   2.116   4.903  15.909 -0.0123 -0.7549  0.2497
    9DOPE   H6R 1078   2.012   4.939  15.898  0.4278  1.1599  1.7516
    9DOPE   H6S 1079   2.151   4.858  15.813 -0.0365  0.3914 -0.3094
    9DOPE   C27 1080   2.192   5.037  15.929  0.0907 -0.9730 -0.3992
    9DOPE   H7R 1081   2.299   5.008  15.944  0.6708  0.7039 -1.0313
    9DOPE   H7S 1082   2.160   5.082  16.025 -1.3356 -2.7216 -0.0090
    9DOPE   C28 1083   2.167   5.140  15.818  0.6742  0.0179  0.1701
    9DOPE   H8R 1084   2.199   5.237  15.861  0.1187  0.5032 -0.4786
    9DOPE   H8S 1085   2.058   5.140  15.796  0.8974  0.7590 -1.0132
    9DOPE   C29 1086   2.249   5.105  15.699  0.2258  0.5691 -0.1291
    9DOPE   H9R 1087   2.341   5.047  15.715  0.3397  0.2939 -1.6716
    9DOPE  C210 1088   2.216   5.120  15.563  0.0214 -0.0143 -0.8062
    9DOPE  H10R 1089   2.283   5.078  15.487  0.9740  1.0637 -0.6100
    9DOPE  C211 1090   2.083   5.181  15.516  0.1884 -0.6831 -0.0849
    9DOPE  H11R 1091   2.105   5.262  15.443 -2.1102 -0.2079 -0.3100
    9DOPE  H11S 1092   2.033   5.237  15.598 -1.3726 -0.0776 -1.4063
    9DOPE  C212 1093   1.984   5.082  15.450  0.2013  0.0065  0.3143
    9DOPE  H12R 1094   1.882   5.125  15.440  0.0141 -0.3306  0.7008
    9DOPE  H12S 1095   1.981   4.988  15.509 -0.6904 -0.2261 -0.0835
    9DOPE  C213 1096   2.038   5.025  15.313 -0.2120 -0.2253  0.4246
    9DOPE  H13R 1097   2.130   4.966  15.332 -0.0851 -0.5555 -1.0829
    9DOPE  H13S 1098   2.074   5.112  15.254  0.3743 -1.1621 -0.6179
    9DOPE  C214 1099   1.935   4.939  15.244 -0.0577 -0.4069  0.6617
    9DOPE  H14R 1100   1.831   4.976  15.254 -0.3294 -0.8455 -0.3941
    9DOPE  H14S 1101   1.936   4.845  15.303 -0.8546 -0.2966  0.8536
    9DOPE  C215 1102   1.990   4.910  15.096  0.2921  0.6456 -0.1887
    9DOPE  H15R 1103   2.089   4.862  15.108  0.2609  0.4748 -0.6175
    9DOPE  H15S 1104   2.008   5.002  15.037  1.4755 -1.4590 -3.3260
    9DOPE  C216 1105   1.898   4.816  15.006 -0.0713 -0.4139  0.4522
    9DOPE  H16R 1106   1.948   4.804  14.908  1.6958 -2.2397  1.5084
    9DOPE  H16S 1107   1.796   4.857  14.990  0.8420  2.2624  0.8379
    9DOPE  C217 1108   1.883   4.671  15.046 -0.1128 -0.7070  0.0417
    9DOPE  H17R 1109   1.815   4.661  15.133 -0.0612 -1.1068  0.0361
    9DOPE  H17S 1110   1.985   4.631  15.064  0.9061  0.9488 -1.6877
    9DOPE  C218 1111   1.826   4.586  14.934  0.2451  0.1612 -0.4911
    9DOPE  H18R 1112   1.832   4.485  14.979 -0.2521 -1.4096 -3.6715
    9DOPE  H18S 1113   1.900   4.582  14.850 -0.1649 -2.4404 -0.8147
    9DOPE  H18T 1114   1.722   4.617  14.909  0.1527 -0.6278 -1.1292
    9DOPE   C33 1115   1.438   4.615  16.068 -0.8087 -0.3051 -0.0520
    9DOPE   H3X 1116   1.352   4.676  16.102 -1.7016 -1.5815  0.0795
    9DOPE   H3Y 1117   1.451   4.532  16.142  0.3293  0.4423  0.6213
    9DOPE   C34 1118   1.407   4.563  15.926  0.2514 -0.7058 -0.2117
    9DOPE   H4X 1119   1.302   4.525  15.927 -0.3822  0.8661  2.1030
    9DOPE   H4Y 1120   1.406   4.649  15.856  1.3587  0.3612  1.0331
    9DOPE   C35 1121   1.496   4.446  15.888 -0.3186 -0.2683  0.5033
    9DOPE   H5X 1122   1.471   4.367  15.963 -2.8178 -0.2114 -0.1813
    9DOPE   H5Y 1123   1.600   4.476  15.913  0.3345 -0.8964 -1.3089
    9DOPE   C36 1124   1.483   4.392  15.743  0.4595 -0.3766 -0.8427
    9DOPE   H6X 1125   1.373   4.383  15.729  0.7840 -1.2778 -3.0728
    9DOPE   H6Y 1126   1.525   4.290  15.732  2.3985  0.3909 -0.9008
    9DOPE   C37 1127   1.534   4.487  15.634  0.4278  0.2357  0.4623
    9DOPE   H7X 1128   1.484   4.586  15.643  0.6052  0.1974  2.1574
    9DOPE   H7Y 1129   1.638   4.496  15.673  0.1816 -1.3863  1.5780
    9DOPE   C38 1130   1.519   4.438  15.490 -0.4035  0.1820  0.3428
    9DOPE   H8X 1131   1.568   4.339  15.481 -0.7300  0.1082 -0.6559
    9DOPE   H8Y 1132   1.583   4.504  15.427 -2.4375  0.8302 -1.1644
    9DOPE   C39 1133   1.385   4.420  15.438  0.0484 -0.2822 -0.2410
    9DOPE   H9X 1134   1.322   4.348  15.493 -0.8289  0.3826 -0.3564
    9DOPE  C310 1135   1.328   4.494  15.343  0.0362  0.0626 -0.0300
    9DOPE  H10X 1136   1.225   4.467  15.316  0.2370 -1.3141  0.4740
    9DOPE  C311 1137   1.387   4.602  15.250  0.4016 -0.3103 -0.2268
    9DOPE  H11X 1138   1.480   4.571  15.197 -0.6615 -0.1569 -2.2988
    9DOPE  H11Y 1139   1.309   4.629  15.175 -0.1440  1.1634  0.8345
    9DOPE  C312 1140   1.424   4.741  15.310 -0.5632  0.5355  0.1634
    9DOPE  H12X 1141   1.437   4.810  15.224  0.1117  2.1789  1.5158
    9DOPE  H12Y 1142   1.518   4.726  15.367 -1.5120 -2.1966  1.1692
    9DOPE  C313 1143   1.309   4.797  15.389 -0.5040  0.2374  0.3392
    9DOPE  H13X 1144   1.220   4.799  15.323  1.3155  1.2190 -2.2273
    9DOPE  H13Y 1145   1.289   4.735  15.479  2.1879 -3.0691 -1.1568
    9DOPE  C314 1146   1.342   4.942  15.435  0.4409  0.1940  0.6642
    9DOPE  H14X 1147   1.322   5.013  15.353 -1.2588 -0.4584  0.4724
    9DOPE  H14Y 1148   1.451   4.942  15.457  0.2983  0.1557  1.4013
    9DOPE  C315 1149   1.262   4.984  15.559 -0.4453  0.1599  0.0532
    9DOPE  H15X 1150   1.294   5.090  15.564 -0.5231  0.3172 -2.1253
    9DOPE  H15Y 1151   1.294   4.935  15.654 -3.1364  1.2739  1.6554
    9DOPE  C316 1152   1.116   4.994  15.540  0.1894 -0.4181 -0.7617
    9DOPE  H16X 1153   1.065   4.911  15.487 -1.2207  2.0118 -3.4866
    9DOPE  H16Y 1154   1.109   5.073  15.462 -0.6363 -1.8937 -2.2684
    9DOPE  C317 1155   1.039   5.051  15.664 -0.6488 -0.3705 -0.5488
    9DOPE  H17X 1156   1.081   5.149  15.694 -2.1482  1.3997 -3.7216
    9DOPE  H17Y 1157   0.934   5.063  15.630 -0.7408 -0.1964 -0.1955
    9DOPE  C318 1158   1.056   4.965  15.791  1.2633  0.6619 -0.1835
    9DOPE  H18X 1159   0.996   4.994  15.879 -2.6334 -1.8678 -1.7493
    9DOPE  H18Y 1160   1.030   4.858  15.784 -1.8614  1.3481 -0.3272
    9DOPE  H18Z 1161   1.163   4.972  15.822  1.0159  1.4002  0.5299
   10DOPE     N 1162   2.294   6.805  16.322  0.3531  0.4509  0.1041
   10DOPE   HN1 1163   2.266   6.744  16.243  2.0180 -2.0491  1.3282
   10DOPE   HN2 1164   2.379   6.855  16.292  0.0736  0.4488 -0.7080
   10DOPE   HN3 1165   2.313   6.739  16.401  0.4696 -0.1006 -0.3814
   10DOPE   C12 1166   2.165   6.887  16.332 -0.9265  0.2206 -0.4775
   10DOPE  H12A 1167   2.127   6.916  16.232 -1.5712  0.1145 -0.2677
   10DOPE  H12B 1168   2.197   6.984  16.376  1.6730 -1.2300  1.0760
   10DOPE   C11 1169   2.071   6.803  16.409  0.2834  0.4701  0.2770
   10DOPE  H11A 1170   1.989   6.869  16.446 -0.5941 -0.9895  1.0499
   10DOPE  H11B 1171   2.115   6.771  16.506  1.0569  0.0711 -0.1935
   10DOPE     P 1172   1.874   6.657  16.290 -0.2647 -0.2179 -0.4100
   10DOPE   O13 1173   1.775   6.681  16.391 -0.0947  0.4552  0.4439
   10DOPE   O14 1174   1.874   6.522  16.228  0.2688 -0.3383  0.5809
   10DOPE   O11 1175   1.845   6.768  16.175 -0.1848  0.2392  0.0975
   10DOPE   O12 1176   2.019   6.686  16.344 -0.1449 -0.0677  0.4407
   10DOPE    C1 1177   1.896   6.744  16.040 -0.0401 -0.2438  0.1858
   10DOPE    HA 1178   2.000   6.704  16.041 -0.5290 -1.6004 -0.9010
   10DOPE    HB 1179   1.901   6.844  15.990 -0.3452  0.6132  1.7845
   10DOPE    C2 1180   1.805   6.665  15.952  0.2519  0.0425  0.4366
   10DOPE    HS 1181   1.790   6.571  16.009  3.9659  0.0873  1.7311
   10DOPE   O21 1182   1.866   6.630  15.824 -0.3727 -0.5730  0.4009
   10DOPE   C21 1183   1.830   6.519  15.767 -0.0558  0.1737  0.4144
   10DOPE   O22 1184   1.762   6.432  15.815 -0.2048 -0.3048 -0.5753
   10DOPE   C22 1185   1.896   6.499  15.633  0.5544 -0.1276  0.6040
   10DOPE   H2R 1186   1.877   6.393  15.606  3.5218 -0.0596 -2.4207
   10DOPE   H2S 1187   2.005   6.502  15.653  0.8511  1.2565 -1.0413
   10DOPE    C3 1188   1.668   6.738  15.929 -0.3651  0.5528  0.0757
   10DOPE    HX 1189   1.702   6.839  15.897  0.7044  0.6833  1.4954
   10DOPE    HY 1190   1.621   6.756  16.028  0.1861  0.6938  0.3190
   10DOPE   O31 1191   1.587   6.680  15.819 -0.1753 -0.6356 -0.1143
   10DOPE   C31 1192   1.469   6.631  15.864 -0.6025 -0.4254  0.1851
   10DOPE   O32 1193   1.433   6.629  15.977  0.3166 -0.7435 -0.4012
   10DOPE   C32 1194   1.386   6.592  15.743  0.1623  0.0052  0.3886
   10DOPE   H2X 1195   1.294   6.655  15.741  0.1139 -0.0642  0.4209
   10DOPE   H2Y 1196   1.445   6.611  15.651  1.2243 -0.8945  0.8680
   10DOPE   C23 1197   1.844   6.596  15.525  0.0653 -0.5224 -0.0987
   10DOPE   H3R 1198   1.910   6.610  15.437 -0.4998  0.0380 -0.4401
   10DOPE   H3S 1199   1.840   6.695  15.574  0.2256 -0.3032 -0.5201
   10DOPE   C24 1200   1.699   6.574  15.480 -0.1283 -0.3124 -0.7023
   10DOPE   H4R 1201   1.653   6.590  15.580  1.8019 -0.5140  0.2643
   10DOPE   H4S 1202   1.685   6.467  15.455 -0.9186 -0.5847  0.7814
   10DOPE   C25 1203   1.640   6.674  15.386  0.8914 -0.5474 -0.2595
   10DOPE   H5R 1204   1.657   6.777  15.425 -2.3662 -0.2708  0.7376
   10DOPE   H5S 1205   1.531   6.658  15.374  0.4887  1.4467  0.2755
   10DOPE   C26 1206   1.705   6.665  15.244 -0.1737  0.6546  0.1624
   10DOPE   H6R 1207   1.709   6.561  15.204 -1.6857  0.1160  1.2790
   10DOPE   H6S 1208   1.811   6.698  15.243 -0.0913  0.4743  1.4230
   10DOPE   C27 1209   1.616   6.732  15.138 -1.0145 -0.1034  0.1871
   10DOPE   H7R 1210   1.624   6.839  15.168 -0.8885 -0.0123 -0.1707
   10DOPE   H7S 1211   1.508   6.706  15.146 -1.3421  1.3435  0.8358
   10DOPE   C28 1212   1.681   6.724  14.995  0.2421 -0.3161 -0.0144
   10DOPE   H8R 1213   1.706   6.620  14.966  1.3314  0.1254 -0.7213
   10DOPE   H8S 1214   1.775   6.783  15.004  0.0665 -0.1236  0.6219
   10DOPE   C29 1215   1.598   6.783  14.891 -0.2950 -0.0395  0.0598
   10DOPE   H9R 1216   1.584   6.888  14.923  4.1239 -0.4095  4.3248
   10DOPE  C210 1217   1.534   6.731  14.786 -0.3742 -0.3724  0.7199
   10DOPE  H10R 1218   1.461   6.791  14.730 -0.3727 -1.9400 -1.0773
   10DOPE  C211 1219   1.542   6.588  14.743 -0.2656 -0.3030  0.5977
   10DOPE  H11R 1220   1.444   6.538  14.725 -2.2882  3.4278  0.2874
   10DOPE  H11S 1221   1.581   6.516  14.818 -0.1664 -2.9348 -1.8392
   10DOPE  C212 1222   1.639   6.574  14.620  0.4356  0.3793  0.6649
   10DOPE  H12R 1223   1.665   6.469  14.595 -0.9597  0.4400 -1.3180
   10DOPE  H12S 1224   1.736   6.627  14.630  1.1383  0.1814 -3.2228
   10DOPE  C213 1225   1.566   6.625  14.487 -0.3091 -0.2081  0.3719
   10DOPE  H13R 1226   1.532   6.730  14.500  3.5752  1.1526  1.0490
   10DOPE  H13S 1227   1.480   6.556  14.478  0.1172 -0.8132  0.8494
   10DOPE  C214 1228   1.646   6.616  14.357 -0.4485  0.2000 -1.3528
   10DOPE  H14R 1229   1.730   6.689  14.361 -1.4590  1.3454 -0.0835
   10DOPE  H14S 1230   1.581   6.636  14.268 -0.2001 -1.0829 -1.8489
   10DOPE  C215 1231   1.718   6.483  14.340 -0.0327 -0.0780  0.4027
   10DOPE  H15R 1232   1.776   6.460  14.432  0.0271 -1.2240  0.0955
   10DOPE  H15S 1233   1.785   6.494  14.253 -0.1834 -1.5758  0.0565
   10DOPE  C216 1234   1.621   6.375  14.313  0.0187 -0.2488 -0.3527
   10DOPE  H16R 1235   1.538   6.403  14.244 -2.5043  1.2699  2.9894
   10DOPE  H16S 1236   1.573   6.345  14.408  1.3005  1.0558  0.7441
   10DOPE  C217 1237   1.683   6.241  14.274 -0.0748 -0.7510 -0.3767
   10DOPE  H17R 1238   1.766   6.216  14.343  0.9350  1.4967 -0.6774
   10DOPE  H17S 1239   1.732   6.255  14.175  0.3419 -0.9665 -0.2033
   10DOPE  C218 1240   1.593   6.127  14.272  0.2217  0.3990 -0.9199
   10DOPE  H18R 1241   1.643   6.035  14.237 -2.4543 -1.7592  0.5814
   10DOPE  H18S 1242   1.515   6.153  14.197  1.1155  1.4517 -1.5081
   10DOPE  H18T 1243   1.537   6.113  14.367  0.5876  1.3267 -0.5482
   10DOPE   C33 1244   1.341   6.436  15.740 -0.1998  0.0708 -0.4547
   10DOPE   H3X 1245   1.288   6.421  15.837 -0.0973 -1.9565 -0.6731
   10DOPE   H3Y 1246   1.435   6.376  15.744 -0.9584 -1.2472 -1.4342
   10DOPE   C34 1247   1.254   6.400  15.620 -0.1744  0.2272  0.4289
   10DOPE   H4X 1248   1.169   6.472  15.617 -0.0142  0.3820 -1.0280
   10DOPE   H4Y 1249   1.312   6.411  15.526  2.2223 -2.3120  1.4799
   10DOPE   C35 1250   1.203   6.256  15.618  0.0785  0.1107  0.3942
   10DOPE   H5X 1251   1.138   6.238  15.706  0.8127 -1.7911  0.5921
   10DOPE   H5Y 1252   1.294   6.193  15.624 -1.7165 -2.9879 -1.9474
   10DOPE   C36 1253   1.126   6.222  15.493 -0.0564  0.0166  0.0798
   10DOPE   H6X 1254   1.132   6.112  15.482 -3.1999 -0.0747 -1.7537
   10DOPE   H6Y 1255   1.177   6.269  15.407 -1.0899  2.1955  0.5866
   10DOPE   C37 1256   0.986   6.268  15.491 -0.2962  0.1447 -0.0097
   10DOPE   H7X 1257   0.939   6.227  15.583 -0.6947  0.5268 -0.0364
   10DOPE   H7Y 1258   0.982   6.379  15.498  0.7669  0.1330  0.9662
   10DOPE   C38 1259   0.890   6.228  15.375 -0.4648  0.2628  0.5435
   10DOPE   H8X 1260   0.783   6.247  15.399 -0.9926 -1.5504 -0.2016
   10DOPE   H8Y 1261   0.887   6.117  15.378 -3.1405  0.2653  0.2296
   10DOPE   C39 1262   0.910   6.293  15.239  0.0408  0.1971 -0.1065
   10DOPE   H9X 1263   0.906   6.402  15.253 -1.2348  0.0757  0.6614
   10DOPE  C310 1264   0.937   6.234  15.115  0.1500 -0.5050 -0.2013
   10DOPE  H10X 1265   0.925   6.297  15.025  3.0358  0.9187  0.3057
   10DOPE  C311 1266   0.946   6.090  15.085 -0.0303 -0.5095  0.1310
   10DOPE  H11X 1267   1.049   6.064  15.053  0.5244  1.2734  0.3370
   10DOPE  H11Y 1268   0.925   6.032  15.177  1.6860 -0.0985  0.8233
   10DOPE  C312 1269   0.863   6.039  14.971 -0.0049 -0.4011 -0.2206
   10DOPE  H12X 1270   0.766   6.093  14.977 -0.3227 -0.8513 -1.1720
   10DOPE  H12Y 1271   0.836   5.931  14.978 -1.8607  0.0400  0.1413
   10DOPE  C313 1272   0.927   6.061  14.834 -0.4529  1.0066 -0.7948
   10DOPE  H13X 1273   0.956   6.166  14.812  0.3494  1.5254  2.3201
   10DOPE  H13Y 1274   1.024   6.008  14.826 -0.2852  1.1147  0.4622
   10DOPE  C314 1275   0.835   5.997  14.728 -0.2720 -0.3908  0.6831
   10DOPE  H14X 1276   0.744   6.059  14.715  0.0473  0.0338  0.4186
   10DOPE  H14Y 1277   0.813   5.896  14.769 -0.3216 -0.0641  1.4822
   10DOPE  C315 1278   0.911   5.997  14.594  0.5119  0.1935 -0.2306
   10DOPE  H15X 1279   1.000   5.932  14.609  0.7974  0.2709 -1.4467
   10DOPE  H15Y 1280   0.937   6.103  14.576  0.1148  0.7528  2.1623
   10DOPE  C316 1281   0.829   5.937  14.480 -0.5711  0.0414 -0.3569
   10DOPE  H16X 1282   0.747   6.008  14.454 -0.8263 -0.3835 -0.7374
   10DOPE  H16Y 1283   0.786   5.841  14.517 -1.0411  0.7521  0.9955
   10DOPE  C317 1284   0.909   5.919  14.349 -0.4535  0.2896 -0.3289
   10DOPE  H17X 1285   0.831   5.901  14.272 -0.6981 -0.4312  0.0779
   10DOPE  H17Y 1286   0.964   6.012  14.325 -2.2926  2.1275  2.0595
   10DOPE  C318 1287   1.009   5.797  14.361  0.6868  0.5566  0.6608
   10DOPE  H18X 1288   1.090   5.817  14.433 -0.0247  0.4560  1.5119
   10DOPE  H18Y 1289   0.961   5.706  14.403  0.9101 -1.0327 -2.2546
   10DOPE  H18Z 1290   1.045   5.769  14.259  0.1719  1.9909  0.0520
   11DOPE     N 1291   0.874   3.090  16.437 -0.3034 -0.5555 -0.2567
   11DOPE   HN1 1292   0.944   3.113  16.363 -1.7748  0.7568 -1.3121
   11DOPE   HN2 1293   0.908   3.133  16.526  0.8678 -3.3919  0.7862
   11DOPE   HN3 1294   0.894   2.992  16.464  2.2413 -0.7912 -2.5889
   11DOPE   C12 1295   0.742   3.142  16.390 -0.1108  0.6595  0.3000
   11DOPE  H12A 1296   0.665   3.100  16.458 -0.2680 -0.2092 -0.3849
   11DOPE  H12B 1297   0.726   3.102  16.287 -0.4214  0.4406  0.4317
   11DOPE   C11 1298   0.748   3.290  16.395  0.2293  0.7277 -0.4625
   11DOPE  H11A 1299   0.667   3.322  16.325 -0.5158 -0.5903 -0.2315
   11DOPE  H11B 1300   0.840   3.332  16.349  0.8479  0.4390  0.4922
   11DOPE     P 1301   0.617   3.411  16.584  0.4576  0.1852 -0.3778
   11DOPE   O13 1302   0.598   3.372  16.729 -0.1833 -0.9233  0.1628
   11DOPE   O14 1303   0.504   3.395  16.491  0.4045  0.4019 -0.6864
   11DOPE   O11 1304   0.685   3.554  16.578  0.4622 -0.5691 -0.3905
   11DOPE   O12 1305   0.739   3.337  16.532 -0.0631 -0.6893 -0.1156
   11DOPE    C1 1306   0.625   3.668  16.523  0.7270 -0.1405  0.0793
   11DOPE    HA 1307   0.630   3.757  16.588 -4.5943  0.5556 -0.0304
   11DOPE    HB 1308   0.519   3.651  16.493  0.1166 -1.7743  2.8776
   11DOPE    C2 1309   0.715   3.703  16.402 -0.0621 -0.4829  0.8079
   11DOPE    HS 1310   0.694   3.808  16.373  0.5556 -0.5854 -0.0605
   11DOPE   O21 1311   0.679   3.626  16.282 -0.0295  0.6529  0.0402
   11DOPE   C21 1312   0.565   3.651  16.218  0.7290  0.2731 -0.1119
   11DOPE   O22 1313   0.477   3.730  16.254 -0.1246  0.0474 -0.4015
   11DOPE   C22 1314   0.549   3.552  16.095 -0.5577  0.6178 -0.5200
   11DOPE   H2R 1315   0.531   3.445  16.122  0.2675  1.3241  3.3627
   11DOPE   H2S 1316   0.648   3.550  16.044 -0.5957 -0.9025 -0.5818
   11DOPE    C3 1317   0.862   3.689  16.441 -0.0091  0.3457  0.4916
   11DOPE    HX 1318   0.876   3.580  16.456  0.2987  0.2840 -0.2041
   11DOPE    HY 1319   0.891   3.739  16.535 -0.6184  2.3565 -0.3251
   11DOPE   O31 1320   0.952   3.727  16.330  0.1173  0.7785 -0.2021
   11DOPE   C31 1321   0.969   3.862  16.323 -0.0406  0.7685 -0.0395
   11DOPE   O32 1322   0.939   3.939  16.410  0.1597 -0.6583 -0.0600
   11DOPE   C32 1323   1.036   3.897  16.192 -0.0004 -0.3782 -0.4753
   11DOPE   H2X 1324   1.119   3.827  16.167 -0.1804 -1.1747  1.0435
   11DOPE   H2Y 1325   0.963   3.862  16.116 -1.6031  0.0527  0.8084
   11DOPE   C23 1326   0.454   3.598  15.983  0.3095  0.2862  0.2316
   11DOPE   H3R 1327   0.352   3.610  16.026 -0.4709  1.1672 -1.7273
   11DOPE   H3S 1328   0.447   3.519  15.905  5.2605  2.5382 -3.0262
   11DOPE   C24 1329   0.497   3.728  15.920 -0.9049  0.5073  0.2514
   11DOPE   H4R 1330   0.600   3.713  15.881 -0.1824 -0.9099  2.4734
   11DOPE   H4S 1331   0.513   3.807  15.996  1.8304  0.2240  0.0652
   11DOPE   C25 1332   0.404   3.777  15.806 -0.6661  0.5167 -0.4421
   11DOPE   H5R 1333   0.308   3.814  15.846 -0.8880  0.1957 -0.6698
   11DOPE   H5S 1334   0.373   3.679  15.763 -1.0157  0.3989  0.0781
   11DOPE   C26 1335   0.470   3.875  15.709  0.5442  0.2246 -0.3184
   11DOPE   H6R 1336   0.392   3.918  15.643  0.9997 -0.7562 -1.5542
   11DOPE   H6S 1337   0.540   3.816  15.646  0.1920 -1.1323  0.4971
   11DOPE   C27 1338   0.548   3.983  15.784  0.1200  0.4704 -0.8048
   11DOPE   H7R 1339   0.656   3.956  15.784  0.5527  2.0980 -1.3038
   11DOPE   H7S 1340   0.509   4.014  15.883  1.2809  0.1587 -0.2305
   11DOPE   C28 1341   0.543   4.114  15.707  0.2427 -0.5362 -0.3844
   11DOPE   H8R 1342   0.596   4.182  15.777  3.6618 -3.8073  0.5303
   11DOPE   H8S 1343   0.435   4.140  15.707  0.4093  0.2542 -1.6516
   11DOPE   C29 1344   0.592   4.121  15.561  0.3797 -0.4555  1.1127
   11DOPE   H9R 1345   0.698   4.095  15.549  0.6553  1.3391 -1.0798
   11DOPE  C210 1346   0.525   4.167  15.449 -0.0710  0.1245  0.2267
   11DOPE  H10R 1347   0.569   4.157  15.348  0.2304 -2.6848  0.5357
   11DOPE  C211 1348   0.383   4.213  15.453  0.5123  0.0624  0.1960
   11DOPE  H11R 1349   0.379   4.297  15.381  0.7821 -0.7387 -0.7860
   11DOPE  H11S 1350   0.341   4.235  15.554  1.0422  0.9636  0.2334
   11DOPE  C212 1351   0.282   4.117  15.383  0.4970 -0.4432 -0.1860
   11DOPE  H12R 1352   0.183   4.168  15.387 -0.2911 -1.9450  3.4063
   11DOPE  H12S 1353   0.284   4.016  15.428 -0.6956 -1.0032 -1.3210
   11DOPE  C213 1354   0.300   4.076  15.232 -0.0950  0.0087 -0.0026
   11DOPE  H13R 1355   0.385   4.007  15.215 -1.0389 -1.0266 -0.7441
   11DOPE  H13S 1356   0.316   4.166  15.169 -1.6511 -0.3547 -0.9707
   11DOPE  C214 1357   0.168   4.011  15.192 -0.3325 -0.1674  0.4964
   11DOPE  H14R 1358   0.092   4.092  15.200  0.1539  0.1617  2.1006
   11DOPE  H14S 1359   0.151   3.919  15.251  1.9040 -0.6342  0.4810
   11DOPE  C215 1360   0.177   3.969  15.045 -0.5956  0.7666  0.3425
   11DOPE  H15R 1361   0.075   3.941  15.013 -0.6460 -0.0100  1.1627
   11DOPE  H15S 1362   0.243   3.879  15.038  0.9121  1.6626  2.1160
   11DOPE  C216 1363   0.232   4.068  14.949  0.2808 -0.6863  0.1202
   11DOPE  H16R 1364   0.333   4.111  14.965 -0.2303  0.3460  0.6999
   11DOPE  H16S 1365   0.160   4.153  14.952 -0.2092 -1.1135  0.5421
   11DOPE  C217 1366   0.237   4.015  14.800  0.8629 -0.4318  0.2984
   11DOPE  H17R 1367   0.129   4.004  14.777  0.2424 -1.0745  3.1165
   11DOPE  H17S 1368   0.288   3.916  14.796  0.2805 -0.7048 -1.2515
   11DOPE  C218 1369   0.292   4.115  14.701 -0.4108 -0.0761 -0.2791
   11DOPE  H18R 1370   0.396   4.145  14.726  0.0960 -1.6588 -0.3629
   11DOPE  H18S 1371   0.236   4.210  14.704 -0.9462 -0.4148  0.8395
   11DOPE  H18T 1372   0.297   4.084  14.594 -0.1121 -0.5478 -0.1324
   11DOPE   C33 1373   1.081   4.041  16.186 -0.3630  0.3516 -0.1095
   11DOPE   H3X 1374   1.155   4.065  16.265 -1.7186 -1.1093  1.6995
   11DOPE   H3Y 1375   0.995   4.112  16.192 -0.5154  0.1813 -0.2667
   11DOPE   C34 1376   1.133   4.068  16.046  0.1858 -0.2538  0.3485
   11DOPE   H4X 1377   1.072   4.022  15.965  1.6681  0.7063 -1.3759
   11DOPE   H4Y 1378   1.127   4.178  16.032  0.5396 -0.2458  0.2462
   11DOPE   C35 1379   1.275   4.020  16.016 -0.4175 -0.4057 -0.2173
   11DOPE   H5X 1380   1.275   3.910  16.001  2.1882 -0.5863  0.5319
   11DOPE   H5Y 1381   1.341   4.038  16.104 -1.1403  0.7389  0.1174
   11DOPE   C36 1382   1.335   4.099  15.899  0.0099  0.7634 -0.5446
   11DOPE   H6X 1383   1.443   4.078  15.914  0.1589  0.2236 -2.1726
   11DOPE   H6Y 1384   1.325   4.208  15.918  0.0070  0.1625  4.0110
   11DOPE   C37 1385   1.289   4.059  15.763 -0.0395  0.1928 -0.8846
   11DOPE   H7X 1386   1.180   4.037  15.756 -0.1981  0.7521 -0.2567
   11DOPE   H7Y 1387   1.313   4.143  15.696  1.9537  0.8849  0.5999
   11DOPE   C38 1388   1.360   3.931  15.710 -0.5230 -0.4043 -0.2449
   11DOPE   H8X 1389   1.320   3.897  15.612  0.4476  2.1244 -1.6172
   11DOPE   H8Y 1390   1.349   3.862  15.796 -1.8759  0.7433  0.5551
   11DOPE   C39 1391   1.503   3.962  15.684  0.4787  0.4101 -0.4872
   11DOPE   H9X 1392   1.563   3.930  15.770 -0.1281  0.7598  0.0732
   11DOPE  C310 1393   1.555   4.018  15.578 -0.0742  0.0356 -0.1801
   11DOPE  H10X 1394   1.664   4.016  15.573 -0.1233 -0.0750 -1.5306
   11DOPE  C311 1395   1.486   4.038  15.447 -0.7972 -0.2593 -0.5041
   11DOPE  H11X 1396   1.398   3.971  15.436 -0.0537 -1.3823  0.1313
   11DOPE  H11Y 1397   1.460   4.145  15.442  1.5309  0.4744  1.1861
   11DOPE  C312 1398   1.582   4.018  15.330  0.5308 -0.0501  0.1281
   11DOPE  H12X 1399   1.520   4.026  15.238  0.9298  2.4385  0.0166
   11DOPE  H12Y 1400   1.644   3.926  15.328  0.7202  0.0253 -3.0410
   11DOPE  C313 1401   1.676   4.134  15.307 -0.9071  0.0203 -0.0971
   11DOPE  H13X 1402   1.639   4.239  15.307  1.4159  0.9320 -1.5454
   11DOPE  H13Y 1403   1.758   4.131  15.382 -3.0366 -0.5804  2.3173
   11DOPE  C314 1404   1.741   4.112  15.167  0.2146 -0.4161 -0.1968
   11DOPE  H14X 1405   1.684   4.135  15.075  1.8882 -0.0302 -1.1771
   11DOPE  H14Y 1406   1.767   4.004  15.166 -0.3973 -0.5670 -0.0801
   11DOPE  C315 1407   1.866   4.192  15.154 -0.1926  0.1268  1.1813
   11DOPE  H15X 1408   1.855   4.297  15.189 -0.5368  1.1297 -1.6636
   11DOPE  H15Y 1409   1.879   4.201  15.044  1.1834  0.9298  1.3889
   11DOPE  C316 1410   1.989   4.130  15.213  0.0742 -0.3309  0.6826
   11DOPE  H16X 1411   2.017   4.034  15.165  2.5896  1.9793 -2.9630
   11DOPE  H16Y 1412   1.978   4.115  15.322  1.1941 -1.7818  0.6194
   11DOPE  C317 1413   2.117   4.211  15.188 -0.4458 -0.7710 -0.3317
   11DOPE  H17X 1414   2.146   4.214  15.081 -0.4142  1.1547 -0.3124
   11DOPE  H17Y 1415   2.099   4.319  15.204 -3.3499 -0.5187 -3.9676
   11DOPE  C318 1416   2.238   4.162  15.266 -0.6151 -0.0689 -0.1843
   11DOPE  H18X 1417   2.287   4.074  15.220  0.8534  1.7096 -2.2203
   11DOPE  H18Y 1418   2.314   4.243  15.271  1.6417 -2.0680  0.0033
   11DOPE  H18Z 1419   2.219   4.131  15.371  0.9172 -0.1454  0.0971
   12DOPE     N 1420   2.699   0.124  16.718  0.2614 -0.3400 -0.1097
   12DOPE   HN1 1421   2.789   0.133  16.667 -1.1136  0.8115 -2.4640
   12DOPE   HN2 1422   2.640   0.206  16.699 -3.3522 -2.3865  1.2982
   12DOPE   HN3 1423   2.727   0.121  16.818  0.4556  0.0280 -0.1522
   12DOPE   C12 1424   2.606   0.021  16.665 -0.3958  0.2342 -0.1730
   12DOPE  H12A 1425   2.517   0.056  16.610  0.3862 -0.1197 -1.7119
   12DOPE  H12B 1426   2.577  -0.042  16.753  0.2552 -0.0489 -0.1523
   12DOPE   C11 1427   2.682  -0.069  16.566 -0.5501 -0.6450 -0.2897
   12DOPE  H11A 1428   2.707  -0.011  16.474  2.4138  1.0527  1.4434
   12DOPE  H11B 1429   2.609  -0.147  16.536 -0.0060 -0.4195 -2.3873
   12DOPE     P 1430   2.799  -0.280  16.676  0.2174 -0.0652  0.0610
   12DOPE   O13 1431   2.661  -0.307  16.722  0.7655  0.3457  0.3247
   12DOPE   O14 1432   2.908  -0.317  16.773 -0.0788 -0.4463  0.2575
   12DOPE   O11 1433   2.817  -0.354  16.538 -0.3909  0.4314  0.3418
   12DOPE   O12 1434   2.795  -0.128  16.632  0.1020  0.0044 -0.0772
   12DOPE    C1 1435   2.939  -0.400  16.491  0.1731  0.2219  0.1879
   12DOPE    HA 1436   2.907  -0.490  16.435  0.3002 -0.8880  1.8254
   12DOPE    HB 1437   3.016  -0.419  16.569 -2.4145 -1.5933  2.4763
   12DOPE    C2 1438   3.015  -0.306  16.392  0.3838  0.5241 -0.1519
   12DOPE    HS 1439   3.105  -0.262  16.442 -0.7490  1.9119  0.7724
   12DOPE   O21 1440   2.930  -0.201  16.348 -0.3957 -0.6732  0.1384
   12DOPE   C21 1441   2.998  -0.088  16.303 -0.9725 -0.6538 -0.3049
   12DOPE   O22 1442   3.118  -0.079  16.303 -0.4385 -0.3562  0.3155
   12DOPE   C22 1443   2.896   0.018  16.258  0.3106  0.1409  0.1008
   12DOPE   H2R 1444   2.891   0.094  16.339  0.6728  0.7687 -0.4504
   12DOPE   H2S 1445   2.795  -0.025  16.247 -0.0610  0.6671  1.2766
   12DOPE    C3 1446   3.070  -0.393  16.269  0.5359  0.2730 -0.6354
   12DOPE    HX 1447   2.979  -0.429  16.215 -0.3207  1.5092 -0.0702
   12DOPE    HY 1448   3.115  -0.488  16.303 -2.3357 -1.1179 -0.4655
   12DOPE   O31 1449   3.143  -0.321  16.166 -0.5119  0.2818  0.0730
   12DOPE   C31 1450   3.276  -0.310  16.195 -0.0833  0.3497 -0.8284
   12DOPE   O32 1451   3.325  -0.346  16.302 -0.3588 -0.6206  0.4001
   12DOPE   C32 1452   3.353  -0.245  16.081  0.5771 -0.6312 -0.7614
   12DOPE   H2X 1453   3.303  -0.147  16.063  0.5530 -0.4326  0.3346
   12DOPE   H2Y 1454   3.458  -0.220  16.108  0.0463  0.6979  0.1803
   12DOPE   C23 1455   2.931   0.090  16.125 -1.0747  0.4370 -0.5796
   12DOPE   H3R 1456   3.021   0.154  16.142  0.4504 -2.0065  1.2044
   12DOPE   H3S 1457   2.850   0.157  16.088 -2.4013 -0.9200 -0.2194
   12DOPE   C24 1458   2.957  -0.014  16.020 -0.4721  0.1169  0.3770
   12DOPE   H4R 1459   2.860  -0.066  16.001  0.5144 -1.5550 -0.2605
   12DOPE   H4S 1460   3.026  -0.092  16.060 -1.3203 -0.0299  1.6199
   12DOPE   C25 1461   2.998   0.057  15.892  0.0945  0.6438 -0.4845
   12DOPE   H5R 1462   3.107   0.078  15.883  0.2019  0.9454  1.1509
   12DOPE   H5S 1463   2.930   0.145  15.884 -1.6445 -0.3237  2.3657
   12DOPE   C26 1464   2.977  -0.040  15.769  0.2194 -0.7218  0.3955
   12DOPE   H6R 1465   2.871  -0.070  15.759  0.3600 -0.5549 -2.0224
   12DOPE   H6S 1466   3.035  -0.132  15.792 -0.8537 -1.2338  1.0840
   12DOPE   C27 1467   3.020   0.040  15.637  0.1219  0.1299 -0.3084
   12DOPE   H7R 1468   3.017  -0.041  15.560 -0.6538  0.7711 -0.9758
   12DOPE   H7S 1469   3.125   0.073  15.648  0.4758 -1.1206  0.1737
   12DOPE   C28 1470   2.931   0.157  15.596 -0.2307 -0.1154 -0.0141
   12DOPE   H8R 1471   2.964   0.192  15.496  0.4644 -0.4848  0.0745
   12DOPE   H8S 1472   2.949   0.241  15.666 -2.3277  0.8164 -0.5184
   12DOPE   C29 1473   2.792   0.119  15.611 -0.6653  0.2960  0.5063
   12DOPE   H9R 1474   2.772   0.049  15.693  1.5485  1.0406  1.7641
   12DOPE  C210 1475   2.688   0.153  15.532  1.1512  0.2580  0.1453
   12DOPE  H10R 1476   2.592   0.117  15.571  1.4383  0.4327  1.0501
   12DOPE  C211 1477   2.688   0.233  15.408 -0.8438  0.6557 -0.0888
   12DOPE  H11R 1478   2.794   0.261  15.387 -0.6450  1.0431  1.3118
   12DOPE  H11S 1479   2.641   0.332  15.426 -0.6983  0.4498  1.5803
   12DOPE  C212 1480   2.622   0.165  15.287 -0.1707  0.2316 -0.3435
   12DOPE  H12R 1481   2.590   0.241  15.212  3.1268  1.4975 -0.6336
   12DOPE  H12S 1482   2.547   0.086  15.308  0.2175 -0.3954 -1.2572
   12DOPE  C213 1483   2.727   0.072  15.212 -0.3276 -0.5312 -0.6945
   12DOPE  H13R 1484   2.780   0.002  15.279  0.3026 -0.0197 -0.6516
   12DOPE  H13S 1485   2.808   0.146  15.197 -0.9455  1.1912  3.1369
   12DOPE  C214 1486   2.679  -0.008  15.089  0.2878  0.4074 -0.5635
   12DOPE  H14R 1487   2.629   0.055  15.012  2.4192  1.4734 -1.1497
   12DOPE  H14S 1488   2.619  -0.096  15.121  2.4089 -1.6522 -1.8504
   12DOPE  C215 1489   2.798  -0.087  15.022 -0.7031 -0.2078 -0.0050
   12DOPE  H15R 1490   2.767  -0.174  14.959  1.2919 -0.5641 -0.5993
   12DOPE  H15S 1491   2.862  -0.132  15.101  0.2043 -0.3983 -0.8153
   12DOPE  C216 1492   2.892  -0.003  14.928 -0.4044  0.1067  0.1179
   12DOPE  H16R 1493   2.977  -0.062  14.887 -0.9984 -1.0618  0.5322
   12DOPE  H16S 1494   2.923   0.084  14.989  0.2869  0.2172 -0.3799
   12DOPE  C217 1495   2.827   0.050  14.796 -0.0020 -0.3083 -0.5838
   12DOPE  H17R 1496   2.903   0.118  14.752 -0.2515  0.5732  0.3120
   12DOPE  H17S 1497   2.737   0.113  14.809  0.3392  0.2656 -0.9804
   12DOPE  C218 1498   2.807  -0.054  14.688  0.5633 -0.1160  0.2513
   12DOPE  H18R 1499   2.725  -0.019  14.621  3.1637 -0.3922 -3.3316
   12DOPE  H18S 1500   2.773  -0.153  14.725  0.6322 -0.2567 -0.0558
   12DOPE  H18T 1501   2.892  -0.080  14.622 -1.5326 -0.0681 -2.6442
   12DOPE   C33 1502   3.342  -0.311  15.944  0.3810 -0.2960 -0.2821
   12DOPE   H3X 1503   3.235  -0.331  15.921  0.1799  1.1747 -0.7809
   12DOPE   H3Y 1504   3.394  -0.409  15.951 -1.5549 -1.2716  1.8139
   12DOPE   C34 1505   3.406  -0.225  15.837 -0.1555  0.3486  0.5514
   12DOPE   H4X 1506   3.330  -0.147  15.819 -0.1129  0.4489  0.8013
   12DOPE   H4Y 1507   3.507  -0.186  15.864  1.0487 -0.9303 -1.7959
   12DOPE   C35 1508   3.425  -0.303  15.701 -0.4960  0.6373  0.2974
   12DOPE   H5X 1509   3.503  -0.382  15.706 -2.9750 -1.8987  1.0935
   12DOPE   H5Y 1510   3.461  -0.224  15.631 -0.8094 -0.3615 -1.0301
   12DOPE   C36 1511   3.292  -0.377  15.661 -0.0383 -0.1662 -0.1275
   12DOPE   H6X 1512   3.207  -0.317  15.700  0.7697  0.6607  0.4070
   12DOPE   H6Y 1513   3.285  -0.475  15.714 -1.5230 -0.2586 -0.4380
   12DOPE   C37 1514   3.279  -0.407  15.510  0.2800  0.1417 -0.1271
   12DOPE   H7X 1515   3.204  -0.336  15.472  0.4373  0.2155 -0.3014
   12DOPE   H7Y 1516   3.380  -0.399  15.464  0.7030 -0.4669  0.6746
   12DOPE   C38 1517   3.222  -0.551  15.483  0.7835  0.5656 -0.4289
   12DOPE   H8X 1518   3.138  -0.571  15.552  0.3169  0.5356 -0.9966
   12DOPE   H8Y 1519   3.302  -0.626  15.501  0.4493  0.5735  1.2997
   12DOPE   C39 1520   3.179  -0.561  15.341 -0.1985  0.1691 -0.5076
   12DOPE   H9X 1521   3.070  -0.552  15.334 -0.0626  0.3386 -3.0142
   12DOPE  C310 1522   3.260  -0.556  15.233  0.2055  0.4641  0.1419
   12DOPE  H10X 1523   3.213  -0.528  15.137 -0.2133  0.4920  0.3566
   12DOPE  C311 1524   3.408  -0.552  15.225 -0.5005  0.3993  0.0901
   12DOPE  H11X 1525   3.443  -0.462  15.171  2.5914 -0.2009  0.9100
   12DOPE  H11Y 1526   3.463  -0.542  15.321 -0.1983 -0.7399  0.0563
   12DOPE  C312 1527   3.449  -0.679  15.137  0.0442 -0.1548 -0.1097
   12DOPE  H12X 1528   3.409  -0.776  15.175  0.1775  0.3898  1.5221
   12DOPE  H12Y 1529   3.560  -0.685  15.147 -0.0184  0.1176  0.8846
   12DOPE  C313 1530   3.423  -0.668  14.989  0.6681 -1.2552 -0.9027
   12DOPE  H13X 1531   3.319  -0.697  14.963  0.1700 -1.1834  0.8825
   12DOPE  H13Y 1532   3.426  -0.558  14.975  1.3376 -1.1438 -0.0123
   12DOPE  C314 1533   3.515  -0.745  14.904  0.0563  0.0877  0.5644
   12DOPE  H14X 1534   3.475  -0.847  14.924  1.0652 -0.2617  0.8417
   12DOPE  H14Y 1535   3.625  -0.748  14.919  0.3279  1.9211 -0.7083
   12DOPE  C315 1536   3.495  -0.727  14.748  0.3282 -0.1405  0.8866
   12DOPE  H15X 1537   3.395  -0.762  14.714  0.8828  1.0607 -2.2062
   12DOPE  H15Y 1538   3.569  -0.804  14.717  2.0175  2.1292 -1.0282
   12DOPE  C316 1539   3.554  -0.603  14.690  0.3412 -0.6426  0.1434
   12DOPE  H16X 1540   3.657  -0.590  14.730 -0.0735 -0.5424  1.1970
   12DOPE  H16Y 1541   3.491  -0.516  14.718  2.0864  0.2333  1.4999
   12DOPE  C317 1542   3.557  -0.598  14.531 -0.5574  0.5357 -0.4683
   12DOPE  H17X 1543   3.611  -0.691  14.502  0.1004  1.1428 -1.2062
   12DOPE  H17Y 1544   3.456  -0.610  14.486  0.0709 -2.1205 -1.4067
   12DOPE  C318 1545   3.637  -0.481  14.467  1.1345  0.5006 -0.7046
   12DOPE  H18X 1546   3.645  -0.485  14.356  0.3578 -0.7396 -0.7322
   12DOPE  H18Y 1547   3.597  -0.389  14.515  1.3941 -0.5424  1.6637
   12DOPE  H18Z 1548   3.740  -0.500  14.502  0.6903 -1.3968 -0.3187
   13DOPE     N 1549   1.752   2.626  16.866  0.8656 -0.1990  0.1151
   13DOPE   HN1 1550   1.836   2.659  16.814  0.2091  1.3537  0.0025
   13DOPE   HN2 1551   1.766   2.655  16.965 -1.0367  0.7973  0.1283
   13DOPE   HN3 1552   1.745   2.522  16.858 -0.2434 -0.2507  1.5031
   13DOPE   C12 1553   1.626   2.693  16.836  0.2668 -0.6524  0.4363
   13DOPE  H12A 1554   1.624   2.796  16.878 -2.1201  0.2241 -1.5040
   13DOPE  H12B 1555   1.545   2.636  16.887  0.3792 -1.1244  0.0958
   13DOPE   C11 1556   1.606   2.708  16.682 -0.4028  0.0662 -0.2974
   13DOPE  H11A 1557   1.684   2.780  16.647  1.2764 -1.7351 -0.4299
   13DOPE  H11B 1558   1.505   2.752  16.675  0.1163  1.3843  0.0552
   13DOPE     P 1559   1.506   2.501  16.569  0.0905 -0.4447  0.1471
   13DOPE   O13 1560   1.448   2.436  16.686  0.4463 -0.2062 -0.2420
   13DOPE   O14 1561   1.551   2.418  16.458 -0.2659  0.8087  0.1783
   13DOPE   O11 1562   1.402   2.597  16.494  0.4493 -0.0332 -0.6101
   13DOPE   O12 1563   1.624   2.586  16.614 -0.1821  0.0176  0.2328
   13DOPE    C1 1564   1.447   2.696  16.406 -0.1340  0.1810  0.0732
   13DOPE    HA 1565   1.527   2.760  16.449 -1.7470  2.1037  0.3639
   13DOPE    HB 1566   1.365   2.771  16.394  0.9856  1.1911 -1.9090
   13DOPE    C2 1567   1.504   2.653  16.262 -0.1658 -0.3425  0.4447
   13DOPE    HS 1568   1.579   2.571  16.267  0.6671  0.4018  0.2648
   13DOPE   O21 1569   1.556   2.771  16.204  0.0222  0.2162  0.8614
   13DOPE   C21 1570   1.678   2.768  16.154 -0.0872 -0.4235 -0.4584
   13DOPE   O22 1571   1.746   2.671  16.164  0.2697 -0.0258 -0.3675
   13DOPE   C22 1572   1.698   2.901  16.073  0.1293 -0.4017 -0.7383
   13DOPE   H2R 1573   1.730   2.986  16.138 -1.4789 -0.6104  0.3914
   13DOPE   H2S 1574   1.602   2.926  16.022  1.0254  1.0363 -1.8164
   13DOPE    C3 1575   1.391   2.605  16.171  0.3325  0.3789  0.3343
   13DOPE    HX 1576   1.312   2.683  16.171  1.2627  1.3810  1.8934
   13DOPE    HY 1577   1.351   2.517  16.226  2.7413 -0.9447  0.1019
   13DOPE   O31 1578   1.442   2.571  16.037 -0.0920 -0.4611 -0.6258
   13DOPE   C31 1579   1.489   2.448  16.034  0.5320 -0.9339 -0.8027
   13DOPE   O32 1580   1.473   2.371  16.126  0.0350 -0.1591  0.3651
   13DOPE   C32 1581   1.571   2.413  15.912 -0.2988 -0.6146  0.0817
   13DOPE   H2X 1582   1.502   2.406  15.826 -0.1038  1.7339 -0.3320
   13DOPE   H2Y 1583   1.625   2.506  15.885 -2.9032  1.7093  2.2092
   13DOPE   C23 1584   1.808   2.874  15.970 -0.0026 -0.3724 -0.1543
   13DOPE   H3R 1585   1.906   2.841  16.012  0.9175 -2.1822 -3.4221
   13DOPE   H3S 1586   1.822   2.967  15.910 -0.3499  0.1794  0.5964
   13DOPE   C24 1587   1.773   2.774  15.864 -0.5774  0.2605  0.6150
   13DOPE   H4R 1588   1.665   2.787  15.843 -0.9927 -0.9413  1.8417
   13DOPE   H4S 1589   1.780   2.676  15.916 -0.5566 -0.9364 -1.4915
   13DOPE   C25 1590   1.874   2.771  15.752  0.3837  0.3709  0.6397
   13DOPE   H5R 1591   1.967   2.736  15.802 -0.9944 -1.0820  2.3404
   13DOPE   H5S 1592   1.884   2.868  15.700  0.3292 -0.7205 -1.5243
   13DOPE   C26 1593   1.839   2.666  15.636 -1.0084 -0.5993  0.0518
   13DOPE   H6R 1594   1.817   2.562  15.669  0.9271 -1.2921 -0.6892
   13DOPE   H6S 1595   1.929   2.660  15.571 -0.3219  2.0440  0.6455
   13DOPE   C27 1596   1.728   2.732  15.543 -0.2361  0.4039 -0.0675
   13DOPE   H7R 1597   1.744   2.842  15.539  1.9738  0.1042 -2.0723
   13DOPE   H7S 1598   1.640   2.714  15.608  1.0225  1.6848  2.1318
   13DOPE   C28 1599   1.716   2.668  15.406 -0.3074 -0.2140 -0.2501
   13DOPE   H8R 1600   1.611   2.674  15.371 -1.5881 -3.1691  2.5038
   13DOPE   H8S 1601   1.728   2.558  15.421  1.1871 -0.2331 -1.3469
   13DOPE   C29 1602   1.823   2.713  15.305  0.2877  0.5655  0.5326
   13DOPE   H9R 1603   1.844   2.820  15.308  0.4077  0.5955 -0.6882
   13DOPE  C210 1604   1.913   2.635  15.236  0.1533 -0.5870 -0.2362
   13DOPE  H10R 1605   2.000   2.677  15.182 -0.5274 -0.3230 -1.1464
   13DOPE  C211 1606   1.922   2.483  15.238  0.4136 -0.6254 -0.4243
   13DOPE  H11R 1607   1.869   2.420  15.163  1.5994 -0.9722 -0.9966
   13DOPE  H11S 1608   1.873   2.441  15.328 -0.4826 -0.5367 -0.8613
   13DOPE  C212 1609   2.068   2.425  15.241  0.0006  0.2072  0.4156
   13DOPE  H12R 1610   2.111   2.447  15.141 -0.4470 -0.4656  0.0656
   13DOPE  H12S 1611   2.054   2.315  15.246  1.7383 -0.1498 -1.1641
   13DOPE  C213 1612   2.156   2.470  15.357 -0.1466  0.1673 -0.6743
   13DOPE  H13R 1613   2.143   2.580  15.360 -1.3949  0.0339 -0.7686
   13DOPE  H13S 1614   2.258   2.429  15.339  0.1994 -1.5401  3.8041
   13DOPE  C214 1615   2.107   2.416  15.492  0.4234  0.2718 -0.3582
   13DOPE  H14R 1616   2.088   2.309  15.473 -0.4966  0.2049  0.8458
   13DOPE  H14S 1617   2.017   2.476  15.518 -0.3058 -0.9081 -0.0953
   13DOPE  C215 1618   2.203   2.420  15.607 -0.3918 -0.3938 -0.2729
   13DOPE  H15R 1619   2.276   2.336  15.603  2.6770  2.0979 -0.4667
   13DOPE  H15S 1620   2.162   2.401  15.709  1.1135 -0.4111  0.3599
   13DOPE  C216 1621   2.277   2.558  15.619  0.0983 -0.2958  0.6003
   13DOPE  H16R 1622   2.202   2.639  15.605  2.0608  1.5170  0.0037
   13DOPE  H16S 1623   2.355   2.571  15.541 -0.3624  1.2250  0.3655
   13DOPE  C217 1624   2.337   2.575  15.752 -0.0779 -0.4156 -0.0507
   13DOPE  H17R 1625   2.259   2.559  15.830  0.8872 -2.1926  0.6157
   13DOPE  H17S 1626   2.372   2.680  15.761 -0.7069 -0.0256 -1.6884
   13DOPE  C218 1627   2.457   2.486  15.773 -0.5233  0.3357 -0.0019
   13DOPE  H18R 1628   2.424   2.380  15.776 -0.0416  0.1859  2.9624
   13DOPE  H18S 1629   2.498   2.501  15.875  0.4039 -2.9091  0.2152
   13DOPE  H18T 1630   2.540   2.498  15.700  0.3321 -0.4334  0.8200
   13DOPE   C33 1631   1.669   2.301  15.927 -0.4132  0.2382  0.1698
   13DOPE   H3X 1632   1.619   2.202  15.939  0.4155 -0.2085 -0.0032
   13DOPE   H3Y 1633   1.740   2.314  16.011  0.3547 -0.1854 -0.4050
   13DOPE   C34 1634   1.759   2.296  15.803  0.2114 -0.7230 -0.3517
   13DOPE   H4X 1635   1.687   2.289  15.719 -1.9376 -1.2971  1.4230
   13DOPE   H4Y 1636   1.819   2.388  15.785 -0.2713 -0.5384 -1.0779
   13DOPE   C35 1637   1.848   2.179  15.815 -0.3539  0.3285  0.1107
   13DOPE   H5X 1638   1.786   2.088  15.819  0.2923 -0.4390 -3.4258
   13DOPE   H5Y 1639   1.917   2.198  15.900 -0.7143  0.0267  0.4690
   13DOPE   C36 1640   1.935   2.153  15.690 -0.0963 -0.0258  0.5058
   13DOPE   H6X 1641   2.004   2.075  15.731  0.4324  0.0013 -0.3037
   13DOPE   H6Y 1642   1.992   2.247  15.673 -0.0446 -0.3817 -1.6176
   13DOPE   C37 1643   1.857   2.122  15.565  0.2938 -0.5567 -0.6041
   13DOPE   H7X 1644   1.755   2.080  15.579 -0.3826 -0.0659 -3.5000
   13DOPE   H7Y 1645   1.827   2.222  15.527  1.1369  0.2701  0.8028
   13DOPE   C38 1646   1.937   2.040  15.456  0.4907 -0.2604  0.0925
   13DOPE   H8X 1647   1.956   1.937  15.492  2.3781  0.6939  2.0020
   13DOPE   H8Y 1648   2.033   2.095  15.444 -0.2531  0.6548 -2.2658
   13DOPE   C39 1649   1.876   2.033  15.317  0.3720 -0.3998  0.0438
   13DOPE   H9X 1650   1.766   2.022  15.324  0.6265 -2.2987  2.9083
   13DOPE  C310 1651   1.929   2.038  15.192 -0.2911  0.2339 -0.4895
   13DOPE  H10X 1652   1.852   2.041  15.113 -1.7386  0.1745  0.8700
   13DOPE  C311 1653   2.074   2.057  15.163  0.1683  0.0122  0.4974
   13DOPE  H11X 1654   2.094   2.153  15.111 -0.3920  0.2802  0.7734
   13DOPE  H11Y 1655   2.143   2.065  15.250  0.2250 -0.1605  0.4684
   13DOPE  C312 1656   2.121   1.940  15.076 -0.1766  0.5799 -0.7484
   13DOPE  H12X 1657   2.225   1.963  15.045 -0.2962  2.2973  0.0113
   13DOPE  H12Y 1658   2.059   1.919  14.987  0.3436  2.1367 -1.5229
   13DOPE  C313 1659   2.127   1.798  15.147  0.5274 -0.1692 -1.2810
   13DOPE  H13X 1660   2.195   1.803  15.234 -0.4132  3.4041 -0.6020
   13DOPE  H13Y 1661   2.026   1.785  15.193  0.2194  4.5430 -0.0961
   13DOPE  C314 1662   2.179   1.683  15.056  0.3413  0.6379  0.2177
   13DOPE  H14X 1663   2.284   1.712  15.033  0.3928  1.5524  1.4942
   13DOPE  H14Y 1664   2.127   1.678  14.958 -0.3646 -0.8162  0.6420
   13DOPE  C315 1665   2.172   1.543  15.126  0.4956 -0.3993  0.2031
   13DOPE  H15X 1666   2.225   1.543  15.224  0.5947 -3.9892  0.2950
   13DOPE  H15Y 1667   2.236   1.465  15.080  1.1617  1.5738 -2.4778
   13DOPE  C316 1668   2.032   1.496  15.145  0.3193  0.8136 -0.5272
   13DOPE  H16X 1669   1.993   1.449  15.051 -1.5818  0.4160  0.4015
   13DOPE  H16Y 1670   1.972   1.584  15.175 -0.0429 -0.3445  2.4503
   13DOPE  C317 1671   2.021   1.395  15.262  0.0563  0.1448 -0.4543
   13DOPE  H17X 1672   2.070   1.427  15.356 -0.9906  0.7214 -0.0901
   13DOPE  H17Y 1673   1.914   1.372  15.283 -0.1638  0.0753 -1.5823
   13DOPE  C318 1674   2.088   1.261  15.230 -0.5040 -0.6888  0.2414
   13DOPE  H18X 1675   2.084   1.189  15.314  1.3489 -0.8169  0.2411
   13DOPE  H18Y 1676   2.035   1.211  15.146 -2.4846 -2.7142  2.5419
   13DOPE  H18Z 1677   2.195   1.276  15.204 -0.2415  1.8501  2.3632
   14DOPE     N 1678   5.056   6.140  16.904 -0.2372  0.4354  0.4354
   14DOPE   HN1 1679   5.013   6.231  16.877  0.8210  0.3782 -1.6849
   14DOPE   HN2 1680   5.139   6.166  16.962  0.3780 -2.5220  1.0476
   14DOPE   HN3 1681   5.101   6.100  16.819 -3.6391 -1.8478 -0.5032
   14DOPE   C12 1682   4.966   6.052  16.989  0.5720  0.7888 -0.7751
   14DOPE  H12A 1683   4.871   6.042  16.932  0.8766  1.9030 -1.5283
   14DOPE  H12B 1684   4.944   6.109  17.082 -2.6461  0.8353 -1.4361
   14DOPE   C11 1685   5.039   5.928  17.017  0.6080  0.6448 -0.6813
   14DOPE  H11A 1686   4.992   5.852  17.083  1.5670  0.4283 -0.2343
   14DOPE  H11B 1687   5.137   5.941  17.067  1.0540  0.4263 -1.4688
   14DOPE     P 1688   4.974   5.771  16.829  0.2896 -0.1650  0.1684
   14DOPE   O13 1689   4.847   5.846  16.817 -0.1044 -0.2590  0.8120
   14DOPE   O14 1690   4.977   5.655  16.918  0.0506 -0.2139  0.2218
   14DOPE   O11 1691   5.033   5.734  16.690  0.2643  0.1806  0.0247
   14DOPE   O12 1692   5.076   5.865  16.894  0.1240 -0.0737  0.1182
   14DOPE    C1 1693   5.150   5.655  16.685 -0.0254  0.4498 -0.1951
   14DOPE    HA 1694   5.141   5.545  16.678 -0.4221  0.5312 -1.1083
   14DOPE    HB 1695   5.214   5.671  16.775  0.6717 -0.4157 -0.5251
   14DOPE    C2 1696   5.241   5.694  16.562 -0.5890 -0.2748 -0.2000
   14DOPE    HS 1697   5.267   5.802  16.566 -0.2241 -0.3800  2.6620
   14DOPE   O21 1698   5.185   5.653  16.444 -0.2772  0.5378  0.1009
   14DOPE   C21 1699   5.105   5.742  16.394 -0.0146 -0.5996  0.6675
   14DOPE   O22 1700   5.087   5.858  16.430  0.1304 -0.5055 -0.1101
   14DOPE   C22 1701   5.049   5.679  16.267 -0.2568  0.2719 -0.7954
   14DOPE   H2R 1702   5.020   5.576  16.297 -1.0552  1.1587  1.7620
   14DOPE   H2S 1703   5.134   5.682  16.196  1.2806  0.0223  0.9662
   14DOPE    C3 1704   5.384   5.628  16.576 -0.0073  0.1155  0.0583
   14DOPE    HX 1705   5.379   5.519  16.555 -1.4771 -0.4529  2.8959
   14DOPE    HY 1706   5.419   5.624  16.682 -0.5636  1.8623  0.3314
   14DOPE   O31 1707   5.472   5.700  16.487 -0.0427  0.5643  0.3578
   14DOPE   C31 1708   5.592   5.738  16.533  0.4303  0.0871 -0.0022
   14DOPE   O32 1709   5.625   5.723  16.648 -0.3869  0.2608  0.1010
   14DOPE   C32 1710   5.668   5.814  16.431  0.6734  0.1564  0.4330
   14DOPE   H2X 1711   5.639   5.775  16.331  1.0552 -2.3430  1.2195
   14DOPE   H2Y 1712   5.638   5.920  16.446 -1.6753 -0.6460  1.9573
   14DOPE   C23 1713   4.931   5.761  16.216  0.0264  0.3264 -0.6163
   14DOPE   H3R 1714   4.942   5.871  16.228 -2.0065  0.4475  0.7436
   14DOPE   H3S 1715   4.844   5.728  16.277  0.7683 -2.2923 -0.8873
   14DOPE   C24 1716   4.890   5.727  16.068 -0.6711 -0.2056 -0.0307
   14DOPE   H4R 1717   4.876   5.618  16.052  0.3070 -0.2792 -0.4597
   14DOPE   H4S 1718   4.964   5.754  15.990  0.2215 -1.1408  0.4713
   14DOPE   C25 1719   4.762   5.794  16.025  1.0943 -0.5657 -0.2745
   14DOPE   H5R 1720   4.777   5.904  16.020  0.7834 -0.5714 -1.9920
   14DOPE   H5S 1721   4.687   5.772  16.104 -2.2159  3.5633 -1.8804
   14DOPE   C26 1722   4.699   5.750  15.891  0.7084  0.2537  0.1515
   14DOPE   H6R 1723   4.688   5.639  15.887 -1.2028  0.4007  0.3532
   14DOPE   H6S 1724   4.767   5.772  15.806 -0.2514  0.6369 -0.5483
   14DOPE   C27 1725   4.559   5.823  15.877 -0.3207 -0.0757  0.0791
   14DOPE   H7R 1726   4.575   5.931  15.895 -1.6175  0.0227  0.7276
   14DOPE   H7S 1727   4.494   5.778  15.955  1.1928 -0.6633  1.0578
   14DOPE   C28 1728   4.499   5.795  15.738 -0.0896  0.2259  0.0774
   14DOPE   H8R 1729   4.496   5.687  15.716  0.0069  0.0885  0.7209
   14DOPE   H8S 1730   4.565   5.849  15.667 -1.0418  0.4944 -0.6274
   14DOPE   C29 1731   4.368   5.863  15.722 -0.0518  0.0056 -0.6453
   14DOPE   H9R 1732   4.363   5.946  15.794 -0.4644 -1.4279  1.0466
   14DOPE  C210 1733   4.264   5.825  15.655 -0.5708  0.1584  0.7488
   14DOPE  H10R 1734   4.176   5.890  15.652 -1.0289 -0.4654 -1.4962
   14DOPE  C211 1735   4.247   5.702  15.568  1.2273  0.1111 -0.4212
   14DOPE  H11R 1736   4.338   5.675  15.510 -0.3711 -0.5749 -2.7878
   14DOPE  H11S 1737   4.169   5.713  15.490 -0.6502 -3.2794  0.7741
   14DOPE  C212 1738   4.193   5.575  15.640 -0.0869  0.4926 -0.5513
   14DOPE  H12R 1739   4.106   5.606  15.702  0.0108  1.2996 -0.8191
   14DOPE  H12S 1740   4.266   5.523  15.706  0.6358 -0.2770 -1.9083
   14DOPE  C213 1741   4.133   5.483  15.549  0.7462 -0.0295 -0.2270
   14DOPE  H13R 1742   4.030   5.505  15.514  0.3961 -0.5903  0.4468
   14DOPE  H13S 1743   4.122   5.394  15.613  2.8623  0.6471  1.1983
   14DOPE  C214 1744   4.218   5.441  15.422 -0.6454 -0.1437  0.4409
   14DOPE  H14R 1745   4.321   5.421  15.459 -0.2521  0.1602 -0.4599
   14DOPE  H14S 1746   4.216   5.528  15.353 -0.3096  0.8658  1.6728
   14DOPE  C215 1747   4.165   5.320  15.340  0.3214  0.2254 -0.0297
   14DOPE  H15R 1748   4.067   5.346  15.293 -0.8347  1.2756  2.7720
   14DOPE  H15S 1749   4.143   5.227  15.397 -1.3333  1.0783  0.7989
   14DOPE  C216 1750   4.266   5.294  15.231 -0.3926 -0.0556 -0.4426
   14DOPE  H16R 1751   4.368   5.274  15.270  0.7011  0.1670 -3.0080
   14DOPE  H16S 1752   4.265   5.389  15.173 -0.9471 -0.1247 -0.5589
   14DOPE  C217 1753   4.226   5.179  15.139  0.2363 -0.7216 -0.4327
   14DOPE  H17R 1754   4.142   5.213  15.076 -2.1940 -0.2653  2.7926
   14DOPE  H17S 1755   4.184   5.095  15.198 -3.2476  1.6011  0.7053
   14DOPE  C218 1756   4.335   5.124  15.048  0.2018 -0.0097 -0.8550
   14DOPE  H18R 1757   4.409   5.065  15.105  0.7360  0.4266 -1.0939
   14DOPE  H18S 1758   4.385   5.200  14.985  1.2502 -0.8231 -1.0256
   14DOPE  H18T 1759   4.283   5.050  14.983 -2.8581 -0.0014  1.3605
   14DOPE   C33 1760   5.819   5.803  16.453 -0.4161  0.3794  0.3151
   14DOPE   H3X 1761   5.854   5.798  16.558 -1.1739 -0.4795  0.5334
   14DOPE   H3Y 1762   5.862   5.899  16.416 -1.7375  1.0915  0.5650
   14DOPE   C34 1763   5.893   5.692  16.372  0.0484 -0.1397 -1.0411
   14DOPE   H4X 1764   5.992   5.695  16.421 -0.6063 -4.7177  1.0627
   14DOPE   H4Y 1765   5.864   5.586  16.385  0.9126 -0.3868 -1.0743
   14DOPE   C35 1766   5.912   5.745  16.229 -0.8810  0.0228 -0.3817
   14DOPE   H5X 1767   5.969   5.840  16.230 -0.5405 -0.1468  1.9813
   14DOPE   H5Y 1768   5.817   5.775  16.180  0.0563 -0.2180 -2.5027
   14DOPE   C36 1769   6.002   5.639  16.158 -0.2657 -0.3971  0.5811
   14DOPE   H6X 1770   5.954   5.539  16.164 -0.0977 -0.5338 -0.1971
   14DOPE   H6Y 1771   6.090   5.642  16.227 -0.9172 -0.1240  1.4120
   14DOPE   C37 1772   6.021   5.680  16.007  0.7938  0.1722  0.1065
   14DOPE   H7X 1773   6.066   5.597  15.948 -0.6699 -0.6591  0.1127
   14DOPE   H7Y 1774   5.918   5.696  15.968  0.7783  0.5567  0.2998
   14DOPE   C38 1775   6.099   5.809  15.987  0.4399  0.3018  0.1778
   14DOPE   H8X 1776   6.059   5.898  16.040 -0.5854 -0.4804  0.7460
   14DOPE   H8Y 1777   6.067   5.843  15.886  0.5766  1.8238  0.6182
   14DOPE   C39 1778   6.242   5.792  16.004  0.2862 -0.7950 -0.0883
   14DOPE   H9X 1779   6.272   5.764  16.106 -0.1763 -1.4891 -0.1370
   14DOPE  C310 1780   6.332   5.809  15.906 -0.6161 -0.3149  0.1680
   14DOPE  H10X 1781   6.438   5.801  15.931 -0.3609  1.0822 -0.3654
   14DOPE  C311 1782   6.315   5.849  15.758  0.5322 -0.2891  0.1449
   14DOPE  H11X 1783   6.234   5.921  15.733  0.1521 -0.9906 -0.6759
   14DOPE  H11Y 1784   6.403   5.908  15.724  0.6224 -0.5236 -0.0268
   14DOPE  C312 1785   6.283   5.733  15.662 -0.7291  0.1054  0.8527
   14DOPE  H12X 1786   6.207   5.674  15.717  0.3862 -1.3481  0.8788
   14DOPE  H12Y 1787   6.369   5.667  15.639  1.5547  3.0972  0.0307
   14DOPE  C313 1788   6.206   5.776  15.538  0.4644 -0.4381  1.0014
   14DOPE  H13X 1789   6.164   5.686  15.489  1.4169 -0.8674  0.9586
   14DOPE  H13Y 1790   6.123   5.841  15.576 -0.6272 -1.0964 -0.1662
   14DOPE  C314 1791   6.293   5.847  15.433 -0.4871  0.3799  0.4698
   14DOPE  H14X 1792   6.386   5.795  15.401 -1.0654  0.5830 -1.7013
   14DOPE  H14Y 1793   6.315   5.951  15.463  0.7116  0.5339 -0.8310
   14DOPE  C315 1794   6.220   5.849  15.299 -0.0629  1.0456  0.0008
   14DOPE  H15X 1795   6.130   5.913  15.311 -0.6171  0.0652  1.4090
   14DOPE  H15Y 1796   6.179   5.747  15.282  0.2766  0.8683  0.2208
   14DOPE  C316 1797   6.310   5.904  15.183  0.0591  0.2342 -1.3567
   14DOPE  H16X 1798   6.347   6.003  15.215  2.1281 -1.3883  1.7615
   14DOPE  H16Y 1799   6.252   5.927  15.091 -1.1924 -0.4900 -0.7798
   14DOPE  C317 1800   6.420   5.818  15.127  0.0719  0.6402 -0.1529
   14DOPE  H17X 1801   6.502   5.808  15.202  0.5184  0.5614 -0.6408
   14DOPE  H17Y 1802   6.390   5.714  15.103 -0.9408  1.2084 -1.4148
   14DOPE  C318 1803   6.479   5.873  15.001  0.2178  0.4340 -0.4884
   14DOPE  H18X 1804   6.555   5.796  14.974 -2.5492 -2.4579 -0.6494
   14DOPE  H18Y 1805   6.392   5.900  14.937 -0.5087 -0.9302 -0.1122
   14DOPE  H18Z 1806   6.522   5.971  15.029  0.7300  0.2651 -0.6748
   15DOPE     N 1807   0.308   2.443  16.907  0.0982  0.4243  0.0275
   15DOPE   HN1 1808   0.387   2.511  16.902  1.3359 -1.0053 -0.2814
   15DOPE   HN2 1809   0.223   2.476  16.956 -0.6544 -0.3626 -0.7132
   15DOPE   HN3 1810   0.349   2.364  16.960  0.1069  0.3216 -0.1308
   15DOPE   C12 1811   0.266   2.395  16.765 -0.8917 -0.0804  0.0683
   15DOPE  H12A 1812   0.190   2.316  16.780 -1.4113  0.2271 -0.8505
   15DOPE  H12B 1813   0.357   2.351  16.718  0.2955 -0.2878  2.4317
   15DOPE   C11 1814   0.208   2.509  16.674  0.5325 -0.4427  0.2319
   15DOPE  H11A 1815   0.105   2.529  16.712 -0.5414 -0.1912 -2.5650
   15DOPE  H11B 1816   0.193   2.460  16.575 -1.6765 -4.1363  2.1580
   15DOPE     P 1817   0.214   2.767  16.642  0.0554  0.2735  0.8074
   15DOPE   O13 1818   0.311   2.877  16.630  0.2315 -0.6569  0.4462
   15DOPE   O14 1819   0.120   2.765  16.753 -0.7506  0.4559  0.1179
   15DOPE   O11 1820   0.131   2.751  16.505 -0.1238  0.7592 -1.1001
   15DOPE   O12 1821   0.294   2.623  16.659 -0.3862  0.2634 -0.7554
   15DOPE    C1 1822   0.197   2.716  16.387  0.7005  0.0674  0.2195
   15DOPE    HA 1823   0.140   2.632  16.343 -0.2751 -0.4386  2.3213
   15DOPE    HB 1824   0.303   2.688  16.404  0.4638 -0.6286  0.5983
   15DOPE    C2 1825   0.188   2.846  16.295 -0.5779 -0.4781  0.2568
   15DOPE    HS 1826   0.200   2.940  16.352 -2.9863  2.3903 -3.4895
   15DOPE   O21 1827   0.056   2.841  16.227  0.4293 -0.0474 -0.0176
   15DOPE   C21 1828  -0.025   2.934  16.266 -0.2012  0.5082 -0.2009
   15DOPE   O22 1829   0.002   3.019  16.345 -0.0007  0.4066  0.1548
   15DOPE   C22 1830  -0.168   2.923  16.208  0.4630 -0.3561 -0.0695
   15DOPE   H2R 1831  -0.180   2.986  16.117  2.3491 -1.6155 -1.2635
   15DOPE   H2S 1832  -0.248   2.929  16.284  1.0189 -0.6373  0.5426
   15DOPE    C3 1833   0.302   2.846  16.191 -0.6116 -0.0994  0.2396
   15DOPE    HX 1834   0.281   2.753  16.133  2.1729 -0.3142 -0.5639
   15DOPE    HY 1835   0.403   2.829  16.234 -1.0417 -2.8607  0.3243
   15DOPE   O31 1836   0.287   2.969  16.106  0.5079 -0.3232  0.1052
   15DOPE   C31 1837   0.365   3.067  16.155 -1.2295  0.0052 -0.6596
   15DOPE   O32 1838   0.433   3.057  16.255 -0.5250 -0.7208 -0.0883
   15DOPE   C32 1839   0.373   3.186  16.069  0.0128  0.5570 -0.7708
   15DOPE   H2X 1840   0.282   3.201  16.007  0.8382  0.9428 -1.9144
   15DOPE   H2Y 1841   0.368   3.269  16.144  0.1355  0.9457 -1.1889
   15DOPE   C23 1842  -0.189   2.781  16.149 -0.2969  0.2640  0.0418
   15DOPE   H3R 1843  -0.188   2.707  16.232 -0.0990  1.8629  1.5409
   15DOPE   H3S 1844  -0.105   2.756  16.082 -0.2344 -0.2543  0.3076
   15DOPE   C24 1845  -0.317   2.775  16.077 -0.6935 -0.0883 -0.7742
   15DOPE   H4R 1846  -0.333   2.862  16.010  0.9537  0.7144 -0.2044
   15DOPE   H4S 1847  -0.402   2.782  16.148 -1.2817 -2.3986 -1.1626
   15DOPE   C25 1848  -0.338   2.639  16.004 -0.6137 -0.1163 -0.0708
   15DOPE   H5R 1849  -0.266   2.618  15.923 -2.2144  1.7610 -2.1094
   15DOPE   H5S 1850  -0.438   2.636  15.955 -1.4331  0.2683  1.4965
   15DOPE   C26 1851  -0.354   2.525  16.103 -0.6219  0.1553  0.4867
   15DOPE   H6R 1852  -0.402   2.563  16.196 -1.3644 -0.5802  0.4192
   15DOPE   H6S 1853  -0.252   2.492  16.129  0.3189  2.2105 -0.4057
   15DOPE   C27 1854  -0.431   2.403  16.043 -0.7989 -0.6474  0.4764
   15DOPE   H7R 1855  -0.377   2.375  15.949  0.8946 -1.1456  1.5500
   15DOPE   H7S 1856  -0.529   2.445  16.013 -0.0598  0.1136 -1.0019
   15DOPE   C28 1857  -0.429   2.275  16.127 -0.0683 -0.4967  0.0870
   15DOPE   H8R 1858  -0.494   2.203  16.073 -1.8112 -0.5377  2.0791
   15DOPE   H8S 1859  -0.492   2.284  16.218 -0.4448 -0.5867 -0.1643
   15DOPE   C29 1860  -0.294   2.218  16.158  0.1373 -0.4143  0.4892
   15DOPE   H9R 1861  -0.234   2.284  16.222 -1.7314 -0.1624  2.0869
   15DOPE  C210 1862  -0.234   2.109  16.098  0.3232  0.8255 -0.2160
   15DOPE  H10R 1863  -0.131   2.081  16.124 -0.8803 -1.3735  2.8967
   15DOPE  C211 1864  -0.287   2.018  15.987 -0.3702 -0.6270  0.3192
   15DOPE  H11R 1865  -0.357   2.076  15.923  0.1638 -0.6800 -0.3133
   15DOPE  H11S 1866  -0.342   1.927  16.020  0.3720 -0.7369  1.2973
   15DOPE  C212 1867  -0.170   1.966  15.898  0.1540  0.5498  0.4149
   15DOPE  H12R 1868  -0.219   1.881  15.845 -2.3613  0.1636  3.1112
   15DOPE  H12S 1869  -0.089   1.919  15.959  1.1573 -0.0224 -1.2830
   15DOPE  C213 1870  -0.102   2.069  15.811 -0.0632  0.4024  0.4974
   15DOPE  H13R 1871  -0.014   2.021  15.764  0.1114 -0.3359  1.5486
   15DOPE  H13S 1872  -0.072   2.159  15.869 -2.0600  2.7759 -1.8826
   15DOPE  C214 1873  -0.188   2.123  15.687  0.3909 -0.2293  0.2999
   15DOPE  H14R 1874  -0.141   2.216  15.648 -0.4244  0.2486  0.4322
   15DOPE  H14S 1875  -0.290   2.141  15.728  1.4409  0.0721  3.0110
   15DOPE  C215 1876  -0.191   2.022  15.575  0.0027  0.2133  0.4855
   15DOPE  H15R 1877  -0.245   1.937  15.621 -1.6143  0.7432 -0.3477
   15DOPE  H15S 1878  -0.088   1.992  15.543 -0.9810 -2.5445 -0.4252
   15DOPE  C216 1879  -0.276   2.076  15.456 -0.8042  0.1119 -0.5226
   15DOPE  H16R 1880  -0.209   2.150  15.408  0.3772 -0.4299  0.2513
   15DOPE  H16S 1881  -0.365   2.136  15.487 -0.6286  0.2459 -0.2700
   15DOPE  C217 1882  -0.299   1.980  15.341  0.2454 -0.2628 -0.4338
   15DOPE  H17R 1883  -0.360   2.025  15.260 -2.4110  0.3459  1.7562
   15DOPE  H17S 1884  -0.364   1.899  15.381  1.1035 -1.2615 -1.0086
   15DOPE  C218 1885  -0.172   1.918  15.275  0.3115 -0.7090 -0.2659
   15DOPE  H18R 1886  -0.112   2.001  15.232  1.4036 -0.3234  1.8315
   15DOPE  H18S 1887  -0.196   1.861  15.183  1.3627  0.3077 -1.1941
   15DOPE  H18T 1888  -0.124   1.858  15.356 -0.2835  0.6834  1.1826
   15DOPE   C33 1889   0.501   3.177  15.984  0.4065 -0.3100  0.3253
   15DOPE   H3X 1890   0.579   3.111  16.028  0.9567  0.8895  1.2213
   15DOPE   H3Y 1891   0.539   3.281  15.988  0.3943 -0.2083 -1.4546
   15DOPE   C34 1892   0.467   3.147  15.841 -0.6574  0.8205 -0.3844
   15DOPE   H4X 1893   0.395   3.219  15.798 -0.4624  0.8897 -0.6008
   15DOPE   H4Y 1894   0.554   3.178  15.779 -0.1466  0.6804  0.2496
   15DOPE   C35 1895   0.426   2.998  15.814 -0.1519 -0.3717  0.8789
   15DOPE   H5X 1896   0.342   2.959  15.876 -0.0211 -0.4351  1.0165
   15DOPE   H5Y 1897   0.519   2.949  15.848  1.2350  1.0647 -0.6601
   15DOPE   C36 1898   0.408   2.968  15.661  0.3922  0.8428 -0.0985
   15DOPE   H6X 1899   0.395   2.860  15.638 -2.0253  1.5082 -2.3899
   15DOPE   H6Y 1900   0.506   2.996  15.617  0.2994 -2.9405 -3.2319
   15DOPE   C37 1901   0.296   3.043  15.591  0.1970 -0.3777 -0.1836
   15DOPE   H7X 1902   0.198   3.040  15.643  0.1873 -0.3036 -0.1976
   15DOPE   H7Y 1903   0.326   3.150  15.592 -2.1991  0.3516 -0.6207
   15DOPE   C38 1904   0.284   3.000  15.451 -0.1837 -0.1727 -0.1728
   15DOPE   H8X 1905   0.383   2.984  15.405  0.3771 -0.0316  0.9570
   15DOPE   H8Y 1906   0.244   3.083  15.389  1.7435 -0.5031 -1.9335
   15DOPE   C39 1907   0.201   2.870  15.440  0.1029 -0.0951  0.7388
   15DOPE   H9X 1908   0.176   2.812  15.530 -0.4014 -1.7194 -0.4056
   15DOPE  C310 1909   0.133   2.829  15.331  0.0304  0.3458  0.2296
   15DOPE  H10X 1910   0.080   2.733  15.331 -0.2769  0.4837 -1.5073
   15DOPE  C311 1911   0.146   2.910  15.202 -0.1809 -0.1056  0.9090
   15DOPE  H11X 1912   0.197   3.008  15.208 -0.7633  0.1524  2.0022
   15DOPE  H11Y 1913   0.198   2.849  15.125 -2.5471 -1.4359  0.2757
   15DOPE  C312 1914   0.003   2.925  15.143  0.5039  0.4939  0.0488
   15DOPE  H12X 1915  -0.060   2.997  15.199 -1.3168 -1.4715  0.6995
   15DOPE  H12Y 1916  -0.051   2.828  15.141 -0.2652  0.8987  0.7537
   15DOPE  C313 1917   0.004   2.959  14.988 -0.1477 -0.5531 -0.5093
   15DOPE  H13X 1918   0.091   3.028  14.978 -0.5050  0.3719  1.8882
   15DOPE  H13Y 1919   0.027   2.861  14.941  0.8020 -1.8119  2.3221
   15DOPE  C314 1920  -0.127   3.013  14.923  0.0781 -0.6529  0.4793
   15DOPE  H14X 1921  -0.212   2.979  14.986 -2.5198  2.9866 -0.7042
   15DOPE  H14Y 1922  -0.136   2.966  14.823  0.7969  0.7400 -0.2754
   15DOPE  C315 1923  -0.131   3.165  14.908 -0.2284 -0.8750 -0.2492
   15DOPE  H15X 1924  -0.031   3.203  14.876 -0.1831  1.7414  2.5390
   15DOPE  H15Y 1925  -0.155   3.209  15.007 -2.2440 -2.6872  0.1420
   15DOPE  C316 1926  -0.236   3.198  14.807 -0.0097 -0.2729  0.3094
   15DOPE  H16X 1927  -0.338   3.173  14.845 -0.3250 -1.6024 -1.2698
   15DOPE  H16Y 1928  -0.217   3.135  14.717  1.0918 -0.1409  0.4379
   15DOPE  C317 1929  -0.245   3.348  14.758 -0.0990 -0.4672 -0.1956
   15DOPE  H17X 1930  -0.272   3.405  14.849 -0.5068 -1.3260  0.2420
   15DOPE  H17Y 1931  -0.141   3.377  14.734 -0.2647 -0.2444 -0.6336
   15DOPE  C318 1932  -0.342   3.375  14.644  0.1180 -0.1365 -0.6319
   15DOPE  H18X 1933  -0.440   3.325  14.658 -0.7737  0.9772 -2.4854
   15DOPE  H18Y 1934  -0.352   3.484  14.623 -0.0972  0.2529  1.2974
   15DOPE  H18Z 1935  -0.312   3.325  14.550 -2.0534 -2.0319 -0.4088
   16DOPE     N 1936   1.219   4.328  16.422  0.0838 -0.3728  0.0498
   16DOPE   HN1 1937   1.281   4.249  16.398  2.4437  1.4045 -0.1164
   16DOPE   HN2 1938   1.244   4.361  16.517 -1.0704 -0.3435  0.3598
   16DOPE   HN3 1939   1.119   4.301  16.433  0.1977 -0.5907  0.5739
   16DOPE   C12 1940   1.231   4.427  16.307  0.4796 -0.7152  0.7057
   16DOPE  H12A 1941   1.227   4.354  16.223 -1.2463 -1.3546  1.2890
   16DOPE  H12B 1942   1.326   4.480  16.328  0.4494 -1.2052  2.2061
   16DOPE   C11 1943   1.104   4.519  16.313  0.4337  0.1989  0.1234
   16DOPE  H11A 1944   1.106   4.576  16.218 -2.2281 -0.8075 -0.6305
   16DOPE  H11B 1945   1.122   4.597  16.390 -0.7279  1.1009 -0.5034
   16DOPE     P 1946   0.846   4.505  16.296 -0.1187 -0.0434  0.2679
   16DOPE   O13 1947   0.831   4.636  16.364 -0.2410 -0.4313 -0.1804
   16DOPE   O14 1948   0.748   4.398  16.319 -0.0926  0.1852 -0.3553
   16DOPE   O11 1949   0.869   4.515  16.132  0.2968  0.1248 -0.2547
   16DOPE   O12 1950   0.987   4.443  16.339  0.8616  0.1021 -0.3141
   16DOPE    C1 1951   0.866   4.386  16.061 -0.4681 -0.4186 -0.5930
   16DOPE    HA 1952   0.802   4.310  16.110 -0.6441 -0.5076 -0.9638
   16DOPE    HB 1953   0.968   4.341  16.071  0.2349  1.2662  0.2949
   16DOPE    C2 1954   0.818   4.397  15.919  0.0831  0.0661  0.4060
   16DOPE    HS 1955   0.826   4.293  15.880 -1.0521  0.0891  0.0800
   16DOPE   O21 1956   0.900   4.492  15.850  0.1148 -0.3577  0.5831
   16DOPE   C21 1957   1.011   4.437  15.805  0.0171  0.0983 -0.1786
   16DOPE   O22 1958   1.052   4.326  15.822 -0.1676 -0.3952 -0.1033
   16DOPE   C22 1959   1.084   4.544  15.720  0.0580 -0.0778  0.4356
   16DOPE   H2R 1960   1.185   4.509  15.689 -0.2859 -2.2328  1.5576
   16DOPE   H2S 1961   1.099   4.636  15.781  3.2971 -0.1017 -0.1295
   16DOPE    C3 1962   0.673   4.445  15.916 -0.2644  0.1348  0.5247
   16DOPE    HX 1963   0.676   4.544  15.965 -1.2870 -1.6532  4.5748
   16DOPE    HY 1964   0.601   4.378  15.968 -0.1879 -0.7594 -0.4782
   16DOPE   O31 1965   0.631   4.456  15.777 -0.0302 -0.6789 -0.6583
   16DOPE   C31 1966   0.517   4.524  15.765 -0.3193  0.0792  0.3098
   16DOPE   O32 1967   0.464   4.590  15.852  0.2205 -0.5351 -0.9744
   16DOPE   C32 1968   0.464   4.513  15.621  0.1824 -0.0789 -0.0934
   16DOPE   H2X 1969   0.544   4.467  15.558  0.2486  1.5167 -1.2380
   16DOPE   H2Y 1970   0.371   4.453  15.617 -2.0072  3.1129 -0.2072
   16DOPE   C23 1971   0.991   4.594  15.607 -0.0737  0.3118 -0.8529
   16DOPE   H3R 1972   1.026   4.680  15.547 -0.6998  0.6192 -0.7842
   16DOPE   H3S 1973   0.887   4.603  15.644 -0.6137 -1.0434 -1.9925
   16DOPE   C24 1974   0.961   4.481  15.502 -0.0751 -0.2409 -0.1327
   16DOPE   H4R 1975   0.914   4.394  15.552  1.9107 -1.0474  0.4262
   16DOPE   H4S 1976   1.058   4.442  15.464  0.5745 -0.0589  1.2912
   16DOPE   C25 1977   0.860   4.526  15.392 -0.5617  0.8067  0.0618
   16DOPE   H5R 1978   0.766   4.543  15.448 -1.6378 -0.6897 -1.2097
   16DOPE   H5S 1979   0.855   4.447  15.314  1.8267  0.4874  0.1483
   16DOPE   C26 1980   0.903   4.659  15.323 -0.0450  0.3562 -0.2481
   16DOPE   H6R 1981   1.000   4.655  15.269  0.2877 -1.9756  0.4086
   16DOPE   H6S 1982   0.923   4.731  15.405 -0.1094  1.7759 -1.4513
   16DOPE   C27 1983   0.802   4.715  15.227  0.0979  0.1172 -0.3571
   16DOPE   H7R 1984   0.715   4.744  15.290 -0.0388  0.0258 -0.5027
   16DOPE   H7S 1985   0.771   4.637  15.154  0.9108 -1.6095  1.0464
   16DOPE   C28 1986   0.841   4.841  15.151  0.1663 -0.6398  0.3489
   16DOPE   H8R 1987   0.752   4.860  15.087  1.3721 -1.2062 -1.6110
   16DOPE   H8S 1988   0.920   4.802  15.082 -0.4638 -0.8188 -0.2934
   16DOPE   C29 1989   0.875   4.960  15.234  0.1725 -0.1737  0.3971
   16DOPE   H9R 1990   0.865   4.943  15.342  0.2462 -1.1254  0.2649
   16DOPE  C210 1991   0.943   5.065  15.184 -0.1920  0.1252 -0.3169
   16DOPE  H10R 1992   0.974   5.146  15.252  0.3550 -2.1775  2.4139
   16DOPE  C211 1993   0.984   5.080  15.042 -0.2563 -0.0114 -0.0601
   16DOPE  H11R 1994   0.924   5.164  15.003 -1.1721 -0.9488 -0.7383
   16DOPE  H11S 1995   0.963   4.991  14.978 -0.2417  0.2290 -0.4063
   16DOPE  C212 1996   1.131   5.121  15.032  0.9947  0.0192  0.7026
   16DOPE  H12R 1997   1.160   5.191  15.113  1.1355  0.7107  0.0638
   16DOPE  H12S 1998   1.145   5.165  14.932  0.2340  1.9685  1.4138
   16DOPE  C213 1999   1.220   5.000  15.024 -0.2631  0.5530  0.0486
   16DOPE  H13R 2000   1.170   4.934  14.950 -0.6048 -0.5931  1.2704
   16DOPE  H13S 2001   1.224   4.939  15.117 -2.3939 -0.5595 -0.5227
   16DOPE  C214 2002   1.356   5.038  14.973  0.4722 -0.3133 -0.1733
   16DOPE  H14R 2003   1.410   5.096  15.051  0.4810 -0.0409 -0.3820
   16DOPE  H14S 2004   1.352   5.101  14.882 -0.4951  0.6091  0.4790
   16DOPE  C215 2005   1.447   4.922  14.942  0.3355  0.1608  0.0010
   16DOPE  H15R 2006   1.471   4.865  15.035 -1.1331 -2.9951 -1.4073
   16DOPE  H15S 2007   1.541   4.964  14.901  0.3835 -0.8248 -0.9500
   16DOPE  C216 2008   1.391   4.804  14.856 -0.2613 -0.1860 -0.0508
   16DOPE  H16R 2009   1.288   4.768  14.878 -0.5281  0.3959 -0.3158
   16DOPE  H16S 2010   1.459   4.718  14.874  1.9782  1.4674 -0.1383
   16DOPE  C217 2011   1.384   4.844  14.707  0.2977 -0.5893 -0.0118
   16DOPE  H17R 2012   1.481   4.888  14.675 -0.2194  0.4597 -0.1594
   16DOPE  H17S 2013   1.299   4.915  14.699  1.2588  0.6486  0.4215
   16DOPE  C218 2014   1.349   4.723  14.622 -0.4205  0.4196 -0.6207
   16DOPE  H18R 2015   1.415   4.643  14.661  0.7650  1.7139  0.1071
   16DOPE  H18S 2016   1.366   4.728  14.512  2.5153 -1.8297 -0.4076
   16DOPE  H18T 2017   1.246   4.688  14.645  0.6725 -2.5274  0.2824
   16DOPE   C33 2018   0.420   4.654  15.574 -0.1554 -0.3323 -0.6986
   16DOPE   H3X 2019   0.496   4.734  15.586 -1.4387  0.8365 -0.0185
   16DOPE   H3Y 2020   0.326   4.696  15.617 -1.6700 -0.9296 -3.2469
   16DOPE   C34 2021   0.405   4.662  15.423  0.9214 -0.8154  0.1497
   16DOPE   H4X 2022   0.506   4.652  15.377  0.9078 -1.8109  0.3269
   16DOPE   H4Y 2023   0.352   4.569  15.394 -0.1458 -0.0523 -0.4182
   16DOPE   C35 2024   0.317   4.782  15.385 -0.6542  0.3498 -0.4496
   16DOPE   H5X 2025   0.360   4.878  15.421  0.5144 -0.6674  0.9466
   16DOPE   H5Y 2026   0.216   4.770  15.430  0.6381 -1.0524  2.2988
   16DOPE   C36 2027   0.297   4.787  15.232 -0.0675 -0.6124  0.1901
   16DOPE   H6X 2028   0.241   4.698  15.195  0.3719 -0.8544  0.1078
   16DOPE   H6Y 2029   0.396   4.797  15.184 -0.3543  1.3840 -0.0747
   16DOPE   C37 2030   0.225   4.910  15.187  0.6150 -0.2626  0.3796
   16DOPE   H7X 2031   0.124   4.910  15.232  1.0006  1.5453  1.3434
   16DOPE   H7Y 2032   0.274   5.004  15.220 -0.4513 -0.0898  1.5571
   16DOPE   C38 2033   0.208   4.916  15.032  0.7492 -0.4797  0.2334
   16DOPE   H8X 2034   0.145   5.005  15.015 -1.9614 -2.6299 -1.9117
   16DOPE   H8Y 2035   0.145   4.829  15.003 -0.3458 -0.7366  3.0593
   16DOPE   C39 2036   0.334   4.910  14.954  0.1644 -0.3016  0.2580
   16DOPE   H9X 2037   0.370   5.013  14.941  1.5492 -0.6249  1.3255
   16DOPE  C310 2038   0.410   4.808  14.915  0.7913 -0.3616 -0.2121
   16DOPE  H10X 2039   0.485   4.842  14.842 -0.0898 -0.1310 -1.0301
   16DOPE  C311 2040   0.389   4.665  14.936  0.4156  0.2013  0.2806
   16DOPE  H11X 2041   0.295   4.648  14.994  0.8401 -4.4457 -0.0120
   16DOPE  H11Y 2042   0.369   4.618  14.838 -1.6802 -0.1677  0.8399
   16DOPE  C312 2043   0.498   4.585  15.004  1.2511 -0.1886  0.2900
   16DOPE  H12X 2044   0.538   4.632  15.097  0.2242  1.4046 -0.0342
   16DOPE  H12Y 2045   0.581   4.563  14.934  1.1012 -0.4116  0.1820
   16DOPE  C313 2046   0.445   4.441  15.037  0.2604  0.5405  0.3102
   16DOPE  H13X 2047   0.347   4.459  15.086 -0.0255 -0.7264  0.2414
   16DOPE  H13Y 2048   0.437   4.370  14.951  0.9375 -0.4967  1.0822
   16DOPE  C314 2049   0.544   4.368  15.122  0.4814  0.4778 -0.2147
   16DOPE  H14X 2050   0.484   4.288  15.170  2.5189 -0.3798  1.0369
   16DOPE  H14Y 2051   0.588   4.431  15.203  2.0451 -0.7735 -0.0397
   16DOPE  C315 2052   0.658   4.317  15.042  0.2275  0.2011 -0.0562
   16DOPE  H15X 2053   0.727   4.269  15.115 -0.7744  0.0131  0.7967
   16DOPE  H15Y 2054   0.711   4.398  14.987 -2.2083  1.3318 -0.8929
   16DOPE  C316 2055   0.625   4.225  14.927 -0.5436 -0.4902  0.3580
   16DOPE  H16X 2056   0.593   4.269  14.830 -0.1119 -1.8915 -0.4476
   16DOPE  H16Y 2057   0.542   4.155  14.950 -1.6782  0.4161 -0.8268
   16DOPE  C317 2058   0.740   4.127  14.903  0.4186 -0.9698 -0.4887
   16DOPE  H17X 2059   0.835   4.184  14.894 -0.8814  1.3292 -0.1970
   16DOPE  H17Y 2060   0.748   4.069  14.997 -1.5606  0.0466  0.3382
   16DOPE  C318 2061   0.734   4.053  14.773  0.2570  0.2811 -0.8313
   16DOPE  H18X 2062   0.647   3.983  14.775  0.0778  0.4891  2.1366
   16DOPE  H18Y 2063   0.722   4.125  14.689  2.1524  1.9058  0.2332
   16DOPE  H18Z 2064   0.823   3.988  14.761  0.7789  0.7203  0.5510
   17DOPE     N 2065   2.475   7.208  16.805 -0.2375 -0.5251 -0.3370
   17DOPE   HN1 2066   2.488   7.210  16.908  0.1203 -0.2515 -0.3832
   17DOPE   HN2 2067   2.478   7.111  16.769 -0.1047 -0.6263 -0.0517
   17DOPE   HN3 2068   2.553   7.263  16.764 -1.5377 -0.0587 -2.3339
   17DOPE   C12 2069   2.342   7.269  16.775 -0.4226 -0.7912 -0.3722
   17DOPE  H12A 2070   2.357   7.377  16.756  1.1874 -1.0033 -0.4182
   17DOPE  H12B 2071   2.289   7.261  16.872  2.5692 -0.3632  1.4234
   17DOPE   C11 2072   2.265   7.196  16.669 -0.8937 -0.2173  0.7031
   17DOPE  H11A 2073   2.163   7.234  16.648 -0.9998 -0.8360  0.0447
   17DOPE  H11B 2074   2.246   7.095  16.711 -3.4833  0.2188  0.7067
   17DOPE     P 2075   2.328   7.290  16.427  0.0510 -0.1485 -0.2242
   17DOPE   O13 2076   2.441   7.277  16.337  0.0561  0.0853 -0.2884
   17DOPE   O14 2077   2.301   7.421  16.486  0.3964  0.3061 -0.2206
   17DOPE   O11 2078   2.197   7.240  16.347  0.2504 -0.3020 -0.1176
   17DOPE   O12 2079   2.347   7.185  16.542 -0.1025  0.4854  0.5620
   17DOPE    C1 2080   2.057   7.249  16.386 -0.0211 -0.5267 -0.4335
   17DOPE    HA 2081   2.037   7.296  16.485 -1.3594  0.5758 -1.1851
   17DOPE    HB 2082   2.015   7.146  16.393  0.6062 -0.7112  0.7468
   17DOPE    C2 2083   1.982   7.328  16.280  0.2468  0.3278  1.2895
   17DOPE    HS 2084   1.874   7.302  16.289  0.0107  0.6471 -0.2839
   17DOPE   O21 2085   2.021   7.309  16.143 -0.6452  0.8929 -0.1469
   17DOPE   C21 2086   2.025   7.188  16.096 -0.0361 -0.6660 -0.3681
   17DOPE   O22 2087   1.971   7.092  16.143 -0.1944 -0.2350 -0.0411
   17DOPE   C22 2088   2.093   7.180  15.963  0.5675  0.7045  0.8507
   17DOPE   H2R 2089   2.195   7.138  15.978 -0.7757 -3.7367 -0.7724
   17DOPE   H2S 2090   2.087   7.276  15.908 -0.3860 -0.6755 -1.6808
   17DOPE    C3 2091   2.001   7.478  16.314  0.3510  0.0945 -0.0971
   17DOPE    HX 2092   2.112   7.486  16.307  0.4475 -0.6036  0.4599
   17DOPE    HY 2093   1.973   7.504  16.418 -1.5729  0.8254 -0.7480
   17DOPE   O31 2094   1.932   7.561  16.226 -0.3865  0.5498 -0.2926
   17DOPE   C31 2095   1.813   7.592  16.262 -0.3275 -0.2098 -0.1307
   17DOPE   O32 2096   1.758   7.564  16.364  0.3302  0.1641  0.3015
   17DOPE   C32 2097   1.742   7.664  16.144  0.1470 -0.2335 -0.1827
   17DOPE   H2X 2098   1.652   7.703  16.195 -0.0938 -0.7470 -0.2096
   17DOPE   H2Y 2099   1.808   7.749  16.116 -1.0418  0.5682 -0.6151
   17DOPE   C23 2100   2.031   7.066  15.874 -0.1283 -0.3827 -0.3174
   17DOPE   H3R 2101   1.920   7.071  15.872 -0.2376 -2.1899 -1.7105
   17DOPE   H3S 2102   2.055   6.966  15.916 -1.6010 -0.9336 -0.7243
   17DOPE   C24 2103   2.083   7.052  15.729  0.4001  0.0281 -0.3604
   17DOPE   H4R 2104   2.191   7.076  15.722  0.2648  0.3918 -1.3668
   17DOPE   H4S 2105   2.031   7.127  15.665 -0.1380  0.6380  0.7609
   17DOPE   C25 2106   2.055   6.912  15.662 -0.8031 -1.5292  0.2569
   17DOPE   H5R 2107   1.957   6.873  15.697  0.1534 -1.7812  2.8242
   17DOPE   H5S 2108   2.130   6.843  15.705  1.9522 -0.6472 -2.6806
   17DOPE   C26 2109   2.055   6.916  15.503  1.0507 -0.7145  0.0518
   17DOPE   H6R 2110   1.985   6.987  15.453  3.2801  0.4654 -1.5752
   17DOPE   H6S 2111   2.006   6.817  15.488 -2.2335  0.5095  1.7442
   17DOPE   C27 2112   2.191   6.898  15.440 -0.2082 -0.3253 -0.1250
   17DOPE   H7R 2113   2.250   6.819  15.492 -0.4282 -0.2457  0.2496
   17DOPE   H7S 2114   2.240   6.997  15.447 -1.5769  0.4453 -1.1089
   17DOPE   C28 2115   2.183   6.852  15.286 -0.2639 -0.2734 -0.0969
   17DOPE   H8R 2116   2.110   6.923  15.240  0.1103 -1.1087 -2.1106
   17DOPE   H8S 2117   2.135   6.752  15.281 -0.7120 -0.0705  0.0879
   17DOPE   C29 2118   2.316   6.843  15.215 -0.6692  0.2930  0.4669
   17DOPE   H9R 2119   2.374   6.750  15.221 -0.0501  0.6776  0.4995
   17DOPE  C210 2120   2.356   6.936  15.125  0.7821  0.1184 -0.0476
   17DOPE  H10R 2121   2.456   6.937  15.080  0.1287 -0.7564 -1.6412
   17DOPE  C211 2122   2.288   7.061  15.086 -0.4456  0.1242 -0.7682
   17DOPE  H11R 2123   2.366   7.139  15.070 -0.9874  0.5831 -1.2329
   17DOPE  H11S 2124   2.225   7.099  15.169 -1.8796 -1.8749 -0.8969
   17DOPE  C212 2125   2.200   7.056  14.958 -0.0074 -0.2948 -0.4922
   17DOPE  H12R 2126   2.258   7.011  14.875 -0.7308  2.8377 -2.8730
   17DOPE  H12S 2127   2.181   7.162  14.931  2.4718  0.5345  0.7488
   17DOPE  C213 2128   2.068   6.999  14.996 -0.2691 -0.5342  0.4551
   17DOPE  H13R 2129   2.012   7.077  15.051  0.7473  1.1708 -0.8106
   17DOPE  H13S 2130   2.084   6.908  15.057 -0.4233 -1.5790 -1.0109
   17DOPE  C214 2131   1.997   6.970  14.863 -0.1351  0.2172  0.6746
   17DOPE  H14R 2132   1.898   6.922  14.883 -0.3887  0.3225 -0.2694
   17DOPE  H14S 2133   2.051   6.892  14.805 -1.0522 -0.5691  0.8254
   17DOPE  C215 2134   1.980   7.092  14.759 -0.3654  0.2567 -0.5185
   17DOPE  H15R 2135   2.079   7.139  14.739  0.2694 -0.8197 -0.0239
   17DOPE  H15S 2136   1.924   7.179  14.799  1.0639  0.1980  1.7882
   17DOPE  C216 2137   1.924   7.044  14.625  0.2645  0.1587  0.0205
   17DOPE  H16R 2138   1.964   6.944  14.595  0.1567  0.5129 -1.3529
   17DOPE  H16S 2139   1.966   7.112  14.548  1.0626  0.7349  0.9370
   17DOPE  C217 2140   1.770   7.043  14.626  0.1546 -0.1981  0.8016
   17DOPE  H17R 2141   1.725   7.142  14.650 -0.5790 -0.4187  0.3648
   17DOPE  H17S 2142   1.735   6.975  14.707 -0.5092 -0.5858  0.2064
   17DOPE  C218 2143   1.714   7.000  14.492 -0.2415  0.1003  0.2853
   17DOPE  H18R 2144   1.753   7.071  14.417  3.5638 -1.5394  0.5142
   17DOPE  H18S 2145   1.603   7.002  14.502 -0.3062 -1.2058  0.0130
   17DOPE  H18T 2146   1.758   6.899  14.475 -2.3821 -0.9346  0.5066
   17DOPE   C33 2147   1.721   7.568  16.026 -0.1615 -0.0772  0.3406
   17DOPE   H3X 2148   1.814   7.517  15.993 -0.3018 -2.3427  3.1102
   17DOPE   H3Y 2149   1.691   7.638  15.945  0.7837  0.4498  0.4273
   17DOPE   C34 2150   1.604   7.479  16.035  0.1164 -0.3320 -0.2490
   17DOPE   H4X 2151   1.616   7.410  16.121  0.0741  0.4308  0.3704
   17DOPE   H4Y 2152   1.510   7.535  16.055  0.4686 -0.3125  1.4595
   17DOPE   C35 2153   1.590   7.398  15.899  0.3444  0.3901 -0.3405
   17DOPE   H5X 2154   1.589   7.476  15.819  3.2048  0.6245 -0.2434
   17DOPE   H5Y 2155   1.491   7.347  15.903  1.7374 -2.4549  1.3488
   17DOPE   C36 2156   1.701   7.299  15.871 -0.3742  0.8948  0.6463
   17DOPE   H6X 2157   1.699   7.213  15.941  0.1949  1.8888  1.9249
   17DOPE   H6Y 2158   1.796   7.352  15.893 -0.3993  0.7898  1.0235
   17DOPE   C37 2159   1.698   7.250  15.728 -0.1215  0.0754  0.4569
   17DOPE   H7X 2160   1.664   7.328  15.656  1.1978 -0.5553 -0.9073
   17DOPE   H7Y 2161   1.800   7.220  15.695 -0.8423 -1.8774 -0.1459
   17DOPE   C38 2162   1.603   7.130  15.711  0.1700  0.5669  0.3649
   17DOPE   H8X 2163   1.506   7.151  15.761  0.5630  0.5510  1.1493
   17DOPE   H8Y 2164   1.639   7.049  15.777 -2.4909  0.0976  1.3690
   17DOPE   C39 2165   1.565   7.062  15.584  0.1347 -0.3713 -0.5169
   17DOPE   H9X 2166   1.501   6.975  15.604 -0.0465 -0.1853 -0.2798
   17DOPE  C310 2167   1.611   7.079  15.460  0.3135 -0.3422  0.3534
   17DOPE  H10X 2168   1.567   7.020  15.378  0.1234  0.7534 -0.3515
   17DOPE  C311 2169   1.717   7.179  15.420 -0.2742 -0.0135 -0.0218
   17DOPE  H11X 2170   1.674   7.281  15.412  0.0889  0.9871  6.1475
   17DOPE  H11Y 2171   1.804   7.187  15.489 -0.0572  0.0125 -0.2961
   17DOPE  C312 2172   1.781   7.121  15.293 -0.2751 -0.0042 -0.6622
   17DOPE  H12X 2173   1.807   7.014  15.313  1.0910  0.2976 -0.7318
   17DOPE  H12Y 2174   1.869   7.184  15.270 -0.2541  0.1966 -0.0564
   17DOPE  C313 2175   1.703   7.129  15.157 -0.5964 -0.6868  0.2878
   17DOPE  H13X 2176   1.748   7.059  15.083  0.6225 -1.1043  1.3997
   17DOPE  H13Y 2177   1.596   7.115  15.183 -0.5602  0.2339  0.9958
   17DOPE  C314 2178   1.715   7.273  15.098 -0.5949 -0.7009 -0.1275
   17DOPE  H14X 2179   1.824   7.297  15.094 -0.6749  0.4681  2.7315
   17DOPE  H14Y 2180   1.666   7.345  15.167 -2.1803 -0.2864 -1.6147
   17DOPE  C315 2181   1.643   7.295  14.967 -0.0537 -0.8001 -0.3480
   17DOPE  H15X 2182   1.537   7.265  14.975 -0.2655  0.2706  1.3314
   17DOPE  H15Y 2183   1.693   7.223  14.898  0.7888 -1.4882  0.9342
   17DOPE  C316 2184   1.642   7.441  14.922 -0.6623  0.2197  0.6633
   17DOPE  H16X 2185   1.742   7.466  14.882 -1.2458  0.8178 -0.4882
   17DOPE  H16Y 2186   1.618   7.512  15.004 -0.9914  0.3055  0.4930
   17DOPE  C317 2187   1.541   7.470  14.805  0.4383  0.0541 -0.7961
   17DOPE  H17X 2188   1.441   7.447  14.847  0.9513 -0.4749  0.1758
   17DOPE  H17Y 2189   1.552   7.580  14.795 -0.1545  0.1228 -0.7183
   17DOPE  C318 2190   1.573   7.392  14.672  1.1880 -0.5300 -0.1057
   17DOPE  H18X 2191   1.679   7.414  14.648  1.1506  0.4944  0.5873
   17DOPE  H18Y 2192   1.563   7.283  14.692  1.7717 -0.7461 -0.9653
   17DOPE  H18Z 2193   1.503   7.419  14.590  1.1816  1.4664  0.4832
   18DOPE     N 2194   0.126   4.914  16.508 -0.1516 -0.1071 -0.1299
   18DOPE   HN1 2195   0.223   4.952  16.506  0.0327 -0.5427  0.2562
   18DOPE   HN2 2196   0.078   4.948  16.422  0.9836  1.4468 -0.1861
   18DOPE   HN3 2197   0.079   4.965  16.585 -0.0239  0.1500 -0.2191
   18DOPE   C12 2198   0.125   4.766  16.520 -0.0279  0.4429  0.2336
   18DOPE  H12A 2199   0.197   4.754  16.604 -0.0534  0.1473  0.2142
   18DOPE  H12B 2200   0.163   4.726  16.423 -0.6161  2.1843 -0.7493
   18DOPE   C11 2201  -0.022   4.717  16.553 -0.3551 -0.1535 -0.0352
   18DOPE  H11A 2202  -0.026   4.607  16.542 -3.3104 -0.0910 -0.3327
   18DOPE  H11B 2203  -0.085   4.773  16.481  0.4806 -0.0870 -0.7307
   18DOPE     P 2204  -0.130   4.870  16.738 -0.4447 -0.2783 -0.3291
   18DOPE   O13 2205  -0.065   4.991  16.690  0.1286 -0.6661  0.4362
   18DOPE   O14 2206  -0.151   4.860  16.879  0.7145 -0.1158  0.4062
   18DOPE   O11 2207  -0.276   4.851  16.675 -0.4788  0.4519  0.7961
   18DOPE   O12 2208  -0.045   4.743  16.693 -0.4429  0.0634  0.3516
   18DOPE    C1 2209  -0.349   4.731  16.687 -0.3669  0.3905 -0.3210
   18DOPE    HA 2210  -0.383   4.711  16.791 -0.4649  0.2336 -0.3834
   18DOPE    HB 2211  -0.289   4.648  16.644 -0.9124 -0.4819  0.5586
   18DOPE    C2 2212  -0.481   4.739  16.601  0.0546 -0.2817 -0.2850
   18DOPE    HS 2213  -0.524   4.639  16.620  1.4594 -0.7950  0.2823
   18DOPE   O21 2214  -0.453   4.767  16.462 -0.0993 -0.5370  0.2748
   18DOPE   C21 2215  -0.391   4.671  16.398  0.0500  1.0735 -0.0279
   18DOPE   O22 2216  -0.383   4.560  16.444 -0.2568 -0.2903 -0.3910
   18DOPE   C22 2217  -0.316   4.724  16.266 -0.5311 -0.1919 -0.5688
   18DOPE   H2R 2218  -0.263   4.636  16.223  2.3062 -0.0758  2.3529
   18DOPE   H2S 2219  -0.237   4.796  16.297  0.0002 -0.6553 -0.8271
   18DOPE    C3 2220  -0.569   4.854  16.641 -0.1725  0.3052 -0.3011
   18DOPE    HX 2221  -0.511   4.946  16.617  1.6979 -0.5393  0.7561
   18DOPE    HY 2222  -0.589   4.866  16.750 -2.1620  0.4284 -0.6353
   18DOPE   O31 2223  -0.694   4.865  16.565  0.5125  0.4490  1.1473
   18DOPE   C31 2224  -0.781   4.773  16.586  0.0821  0.9637 -0.0571
   18DOPE   O32 2225  -0.763   4.676  16.660  0.1383 -0.7131  0.1948
   18DOPE   C32 2226  -0.905   4.791  16.504  0.8459 -0.7290 -0.4925
   18DOPE   H2X 2227  -0.941   4.894  16.526  1.5918 -0.5255 -0.1745
   18DOPE   H2Y 2228  -0.862   4.788  16.401  1.1349 -0.6375 -0.3752
   18DOPE   C23 2229  -0.410   4.795  16.165  0.6589  0.5854  0.2979
   18DOPE   H3R 2230  -0.358   4.866  16.098  1.2698  0.5481  0.7257
   18DOPE   H3S 2231  -0.494   4.842  16.222 -0.1256  0.4753 -0.7486
   18DOPE   C24 2232  -0.480   4.687  16.078 -0.0533 -0.2285  0.6625
   18DOPE   H4R 2233  -0.571   4.722  16.026 -0.0229 -0.7865  0.2193
   18DOPE   H4S 2234  -0.504   4.599  16.142  0.6686 -1.7284 -1.0204
   18DOPE   C25 2235  -0.387   4.650  15.966  0.4079  0.0332  0.2029
   18DOPE   H5R 2236  -0.287   4.619  16.003  0.7821 -0.3209 -1.0527
   18DOPE   H5S 2237  -0.376   4.734  15.895 -0.3065  0.5195  0.6497
   18DOPE   C26 2238  -0.443   4.535  15.879  0.4150  0.3328 -0.0256
   18DOPE   H6R 2239  -0.369   4.511  15.799 -0.0611 -2.1867  0.2088
   18DOPE   H6S 2240  -0.538   4.558  15.826 -0.7252 -2.5847  0.6003
   18DOPE   C27 2241  -0.471   4.415  15.966 -0.0969  0.1018  0.4221
   18DOPE   H7R 2242  -0.568   4.446  16.011 -0.1581 -0.0882  0.4245
   18DOPE   H7S 2243  -0.401   4.405  16.052 -0.7334  0.2631  0.9644
   18DOPE   C28 2244  -0.477   4.271  15.909  0.5943  0.0109 -0.6073
   18DOPE   H8R 2245  -0.513   4.219  16.001  0.0018  0.8881 -0.3370
   18DOPE   H8S 2246  -0.378   4.231  15.878  0.9962 -1.4855  2.2407
   18DOPE   C29 2247  -0.570   4.249  15.796  0.4672 -0.5250 -0.2820
   18DOPE   H9R 2248  -0.531   4.191  15.711 -3.2823 -2.0765 -1.1326
   18DOPE  C210 2249  -0.709   4.252  15.802 -0.1817  0.1477  0.2919
   18DOPE  H10R 2250  -0.755   4.237  15.703  2.0071 -0.6593 -0.6668
   18DOPE  C211 2251  -0.798   4.313  15.909  0.3362 -0.7293  0.2653
   18DOPE  H11R 2252  -0.749   4.312  16.008  1.4933 -1.8897 -0.2944
   18DOPE  H11S 2253  -0.887   4.246  15.915  0.6745 -1.0714  1.9324
   18DOPE  C212 2254  -0.855   4.454  15.881  0.3919  0.7236 -0.9831
   18DOPE  H12R 2255  -0.780   4.531  15.856  0.3750  1.3747  0.7958
   18DOPE  H12S 2256  -0.909   4.491  15.972 -1.3071 -2.1190 -0.7098
   18DOPE  C213 2257  -0.948   4.454  15.759 -0.3326  0.2804  0.2796
   18DOPE  H13R 2258  -1.036   4.386  15.769  0.3790 -0.3919  2.5103
   18DOPE  H13S 2259  -0.876   4.435  15.676  2.6200  2.1045  2.2411
   18DOPE  C214 2260  -1.006   4.595  15.734  0.2113 -0.4270  0.7445
   18DOPE  H14R 2261  -0.923   4.667  15.751 -0.3163 -0.1678  2.4657
   18DOPE  H14S 2262  -1.079   4.626  15.812 -1.1784  1.7281 -1.2639
   18DOPE  C215 2263  -1.075   4.607  15.598 -0.0390  0.3162 -0.3725
   18DOPE  H15R 2264  -1.151   4.526  15.587  1.5047 -1.1287 -0.7730
   18DOPE  H15S 2265  -1.000   4.593  15.517 -0.5145  0.5862 -0.8693
   18DOPE  C216 2266  -1.155   4.735  15.581 -0.6034  0.5772 -0.5862
   18DOPE  H16R 2267  -1.201   4.765  15.678  0.1191  1.7461 -0.5903
   18DOPE  H16S 2268  -1.242   4.715  15.516 -1.2505 -0.5831  0.5762
   18DOPE  C217 2269  -1.077   4.848  15.511 -0.1976  0.1868 -0.4202
   18DOPE  H17R 2270  -0.983   4.858  15.570  0.6233 -0.4683 -1.5736
   18DOPE  H17S 2271  -1.142   4.938  15.518 -0.9315 -0.3684  0.0342
   18DOPE  C218 2272  -1.036   4.821  15.363 -0.0842  0.1385  0.2667
   18DOPE  H18R 2273  -0.958   4.890  15.323  1.2563 -1.4448  0.0581
   18DOPE  H18S 2274  -1.129   4.833  15.303 -1.3867  0.8514  2.3156
   18DOPE  H18T 2275  -0.994   4.719  15.350 -0.5950  0.1159 -1.4048
   18DOPE   C33 2276  -1.009   4.686  16.540  0.4848  0.1788 -0.1528
   18DOPE   H3X 2277  -1.111   4.716  16.507  0.9497  2.8695  0.6898
   18DOPE   H3Y 2278  -1.026   4.678  16.649 -1.3825 -0.9550 -0.4606
   18DOPE   C34 2279  -0.991   4.545  16.483 -0.4241 -0.0354 -0.1199
   18DOPE   H4X 2280  -0.911   4.490  16.536 -0.8817  0.8458  1.5355
   18DOPE   H4Y 2281  -1.085   4.489  16.502  0.1368 -1.3636 -1.1353
   18DOPE   C35 2282  -0.968   4.548  16.332  0.0792 -0.3634  0.5233
   18DOPE   H5X 2283  -0.902   4.628  16.292 -1.2654  0.3567 -0.3309
   18DOPE   H5Y 2284  -1.062   4.569  16.276 -0.6788 -2.3838  0.9552
   18DOPE   C36 2285  -0.915   4.419  16.271  0.7542  0.6140 -0.0548
   18DOPE   H6X 2286  -0.905   4.428  16.161 -3.1935  1.0432 -0.5117
   18DOPE   H6Y 2287  -0.986   4.337  16.295  2.3939 -1.0090 -0.4279
   18DOPE   C37 2288  -0.782   4.369  16.342  0.4125 -0.1667  1.0019
   18DOPE   H7X 2289  -0.738   4.465  16.375  0.4861 -0.4143  1.6343
   18DOPE   H7Y 2290  -0.815   4.309  16.430 -3.4553  0.2802  0.0206
   18DOPE   C38 2291  -0.679   4.299  16.249  0.0464 -0.4214 -1.1247
   18DOPE   H8X 2292  -0.645   4.361  16.163  0.6397 -0.3417 -0.8340
   18DOPE   H8Y 2293  -0.731   4.208  16.212  0.7287 -0.6525 -1.5329
   18DOPE   C39 2294  -0.552   4.257  16.320  0.0326  0.3122 -0.6839
   18DOPE   H9X 2295  -0.488   4.342  16.349  1.0474 -0.9842  1.0261
   18DOPE  C310 2296  -0.514   4.128  16.347 -0.4918 -0.2964  0.3910
   18DOPE  H10X 2297  -0.418   4.119  16.401  0.6923  0.7181 -1.4460
   18DOPE  C311 2298  -0.591   4.000  16.318  0.0372  0.3827  0.1537
   18DOPE  H11X 2299  -0.576   3.924  16.397  1.1711  0.4852  0.0526
   18DOPE  H11Y 2300  -0.699   4.026  16.312 -0.3925 -1.0103  1.2920
   18DOPE  C312 2301  -0.535   3.939  16.189 -0.5959  0.3611  0.8132
   18DOPE  H12X 2302  -0.529   4.013  16.106  4.3623  0.0189  0.5831
   18DOPE  H12Y 2303  -0.608   3.864  16.153  1.3286 -0.4660 -1.6414
   18DOPE  C313 2304  -0.404   3.858  16.212 -0.1525 -0.5412 -0.4457
   18DOPE  H13X 2305  -0.329   3.936  16.236 -1.6230  0.2355  1.9703
   18DOPE  H13Y 2306  -0.415   3.806  16.310 -1.6223 -0.1648 -0.3896
   18DOPE  C314 2307  -0.357   3.766  16.100  1.0627 -0.0567  0.2150
   18DOPE  H14X 2308  -0.436   3.689  16.088  0.6078  0.4041  0.1792
   18DOPE  H14Y 2309  -0.275   3.701  16.136 -0.4807 -2.1696  0.0845
   18DOPE  C315 2310  -0.321   3.837  15.973 -0.4845  0.5941  0.2402
   18DOPE  H15X 2311  -0.257   3.924  16.000  0.1738  0.4830 -0.8863
   18DOPE  H15Y 2312  -0.418   3.872  15.932 -0.1235  1.3939  0.0561
   18DOPE  C316 2313  -0.248   3.747  15.865 -0.4013 -0.2750  0.5000
   18DOPE  H16X 2314  -0.316   3.660  15.853  0.3367 -0.6877 -0.9417
   18DOPE  H16Y 2315  -0.152   3.715  15.910 -0.3874 -0.1098  0.5870
   18DOPE  C317 2316  -0.227   3.826  15.738  0.0914  0.1418 -0.4528
   18DOPE  H17X 2317  -0.326   3.848  15.693  0.0366  1.2849  0.1967
   18DOPE  H17Y 2318  -0.168   3.918  15.753  0.4811 -0.0924 -0.5385
   18DOPE  C318 2319  -0.149   3.745  15.640 -0.0590 -0.2991 -0.5858
   18DOPE  H18X 2320  -0.049   3.727  15.686 -0.4639 -0.5006  0.2363
   18DOPE  H18Y 2321  -0.192   3.644  15.623 -0.3576 -0.0571 -1.3060
   18DOPE  H18Z 2322  -0.129   3.798  15.544 -0.9045  0.0124 -0.5971
   19DOPE     N 2323   7.433   5.621  16.744  0.5129 -0.2996  0.2646
   19DOPE   HN1 2324   7.515   5.597  16.686  2.2443  1.2607  1.9143
   19DOPE   HN2 2325   7.419   5.724  16.754 -0.3696 -0.4204  0.3902
   19DOPE   HN3 2326   7.448   5.576  16.837 -0.2909 -0.5002  0.3056
   19DOPE   C12 2327   7.303   5.577  16.679  0.5700 -0.0099 -0.2767
   19DOPE  H12A 2328   7.311   5.487  16.614 -0.8387  0.4362 -1.1326
   19DOPE  H12B 2329   7.258   5.653  16.612 -0.2526 -0.5919 -0.4049
   19DOPE   C11 2330   7.198   5.543  16.792  0.2708  0.7244  0.5601
   19DOPE  H11A 2331   7.097   5.515  16.755 -0.1769  0.1106  2.1697
   19DOPE  H11B 2332   7.189   5.636  16.852  0.2099  1.2181 -0.2051
   19DOPE     P 2333   7.217   5.288  16.856  0.0894 -0.3793 -0.5446
   19DOPE   O13 2334   7.077   5.249  16.899 -0.5398  0.2817  0.3284
   19DOPE   O14 2335   7.335   5.218  16.909  0.0474  0.2280  0.2919
   19DOPE   O11 2336   7.222   5.284  16.704  0.5407  0.3921  0.6610
   19DOPE   O12 2337   7.245   5.443  16.882  0.3762  0.0566  0.1974
   19DOPE    C1 2338   7.329   5.205  16.640 -1.4679  0.5041 -0.0966
   19DOPE    HA 2339   7.311   5.099  16.670  1.7243 -0.8136 -2.2380
   19DOPE    HB 2340   7.433   5.227  16.672 -0.3650 -2.9769 -0.9047
   19DOPE    C2 2341   7.336   5.207  16.489  0.0702 -0.3395  0.0471
   19DOPE    HS 2342   7.367   5.310  16.459 -1.6029  0.3146  0.4895
   19DOPE   O21 2343   7.208   5.173  16.432 -0.4670  0.3102 -0.0300
   19DOPE   C21 2344   7.131   5.276  16.402 -0.8548  0.7193  0.1551
   19DOPE   O22 2345   7.160   5.394  16.414  0.4397 -0.0757  0.4136
   19DOPE   C22 2346   7.010   5.217  16.322 -0.3766  0.1224 -0.1067
   19DOPE   H2R 2347   6.928   5.192  16.393  0.5850  0.2681  1.0833
   19DOPE   H2S 2348   7.045   5.124  16.272  0.9755 -0.5459  1.9571
   19DOPE    C3 2349   7.446   5.113  16.434 -0.6180 -0.4600 -0.2619
   19DOPE    HX 2350   7.425   5.006  16.455  2.3023 -1.7498 -3.0517
   19DOPE    HY 2351   7.543   5.145  16.479 -0.7923  2.1323 -1.5277
   19DOPE   O31 2352   7.451   5.123  16.292  0.3959  0.4347  0.4220
   19DOPE   C31 2353   7.570   5.068  16.249 -0.5987 -0.4126  0.7315
   19DOPE   O32 2354   7.646   5.002  16.319 -0.0518 -0.4625  0.2191
   19DOPE   C32 2355   7.599   5.112  16.096 -0.8203 -0.2046  0.7713
   19DOPE   H2X 2356   7.693   5.172  16.096 -1.0540  0.2443 -1.4069
   19DOPE   H2Y 2357   7.634   5.025  16.038  1.7995  1.7306 -0.7811
   19DOPE   C23 2358   6.961   5.316  16.214 -0.6046 -0.4502 -0.0941
   19DOPE   H3R 2359   6.927   5.411  16.259 -0.0364  0.5089 -1.6237
   19DOPE   H3S 2360   6.881   5.266  16.155  0.1281  0.9531 -2.4087
   19DOPE   C24 2361   7.069   5.350  16.110 -0.3049  0.9154  0.0978
   19DOPE   H4R 2362   7.126   5.259  16.083  0.1047  0.6852  1.6582
   19DOPE   H4S 2363   7.147   5.421  16.145  1.1194 -0.9386  0.8774
   19DOPE   C25 2364   7.023   5.409  15.978 -0.0312  0.1442 -0.7246
   19DOPE   H5R 2365   7.115   5.455  15.936  1.2737  0.1928  1.9943
   19DOPE   H5S 2366   6.960   5.497  16.002  2.0342  1.1036  1.5401
   19DOPE   C26 2367   6.943   5.330  15.877 -0.2762 -0.2285 -0.1597
   19DOPE   H6R 2368   6.872   5.276  15.943  1.3832 -1.0223  1.0773
   19DOPE   H6S 2369   7.000   5.255  15.819 -3.0922 -2.0548 -0.7434
   19DOPE   C27 2370   6.866   5.414  15.777  0.6875  0.0887 -0.2416
   19DOPE   H7R 2371   6.940   5.478  15.725 -0.1133 -0.0639 -1.5918
   19DOPE   H7S 2372   6.803   5.480  15.842  0.1031 -0.4301 -0.2684
   19DOPE   C28 2373   6.777   5.325  15.693 -0.5646  0.6211  0.0569
   19DOPE   H8R 2374   6.698   5.268  15.748  0.4967 -0.5384  0.4276
   19DOPE   H8S 2375   6.846   5.252  15.645 -1.4145  0.4817 -1.0085
   19DOPE   C29 2376   6.710   5.413  15.586 -0.5453 -0.4135 -0.4644
   19DOPE   H9R 2377   6.658   5.497  15.633 -4.6251 -1.7668 -2.1459
   19DOPE  C210 2378   6.688   5.377  15.455 -0.2109 -0.0091  0.6802
   19DOPE  H10R 2379   6.652   5.453  15.384 -1.1972 -1.4774 -0.4392
   19DOPE  C211 2380   6.726   5.252  15.377  0.4468 -0.5508 -0.7638
   19DOPE  H11R 2381   6.759   5.172  15.447 -0.4700 -0.6522 -0.4370
   19DOPE  H11S 2382   6.811   5.268  15.307  1.5216 -0.0843  0.6080
   19DOPE  C212 2383   6.610   5.193  15.301 -0.1836  0.2391 -0.1219
   19DOPE  H12R 2384   6.544   5.141  15.373 -0.3673 -0.3059 -0.6733
   19DOPE  H12S 2385   6.664   5.106  15.259 -1.0758 -0.1745 -0.4517
   19DOPE  C213 2386   6.550   5.285  15.195 -0.3060  0.3043  0.1004
   19DOPE  H13R 2387   6.634   5.328  15.137  1.0484 -2.1023  0.1338
   19DOPE  H13S 2388   6.497   5.365  15.251 -1.1041 -0.5100  0.5420
   19DOPE  C214 2389   6.442   5.214  15.110 -0.1107  0.0234 -0.1091
   19DOPE  H14R 2390   6.345   5.231  15.160 -0.1364 -0.0685 -0.1283
   19DOPE  H14S 2391   6.470   5.106  15.114  1.2425  0.3667  0.3811
   19DOPE  C215 2392   6.419   5.264  14.970 -0.1521 -0.2455  0.2569
   19DOPE  H15R 2393   6.336   5.207  14.925  1.0937 -0.9454 -1.2507
   19DOPE  H15S 2394   6.507   5.242  14.906 -1.4397 -2.0644 -0.9471
   19DOPE  C216 2395   6.375   5.405  14.967  0.4795 -0.5333  0.1904
   19DOPE  H16R 2396   6.448   5.476  15.012 -0.2086  0.3623 -0.0668
   19DOPE  H16S 2397   6.273   5.424  15.007 -0.6302 -0.2274 -2.5316
   19DOPE  C217 2398   6.357   5.442  14.816 -0.4040  0.2043 -0.3348
   19DOPE  H17R 2399   6.287   5.374  14.763 -2.0983 -0.0932  2.0573
   19DOPE  H17S 2400   6.453   5.435  14.762 -0.8075 -0.1422 -1.0178
   19DOPE  C218 2401   6.296   5.579  14.794 -0.7177 -0.3681 -0.2195
   19DOPE  H18R 2402   6.306   5.608  14.687  0.1984  0.3744  0.0529
   19DOPE  H18S 2403   6.344   5.659  14.855 -0.7935 -0.0026 -0.6305
   19DOPE  H18T 2404   6.191   5.588  14.828  0.1408 -0.1785  2.6382
   19DOPE   C33 2405   7.477   5.161  16.019 -0.0987  0.1732 -0.2047
   19DOPE   H3X 2406   7.433   5.249  16.071  3.7898  1.9672  0.4713
   19DOPE   H3Y 2407   7.403   5.079  16.008  1.3401 -1.1637 -0.2314
   19DOPE   C34 2408   7.506   5.216  15.876  0.1339 -0.5141 -0.3119
   19DOPE   H4X 2409   7.588   5.290  15.886 -0.5541  0.4614 -1.6562
   19DOPE   H4Y 2410   7.564   5.134  15.827  0.7773 -0.4196  0.2731
   19DOPE   C35 2411   7.374   5.254  15.811  1.1142 -0.3211  0.1928
   19DOPE   H5X 2412   7.336   5.355  15.834 -1.9971 -1.2139 -0.6355
   19DOPE   H5Y 2413   7.293   5.190  15.851 -0.2090  0.4467 -1.1875
   19DOPE   C36 2414   7.372   5.241  15.658  0.3898  0.1766  0.6396
   19DOPE   H6X 2415   7.346   5.134  15.643 -0.4244  0.4939 -0.3014
   19DOPE   H6Y 2416   7.474   5.264  15.622 -0.0474  4.5402  1.7283
   19DOPE   C37 2417   7.264   5.322  15.585  0.3841 -0.0445  0.0675
   19DOPE   H7X 2418   7.166   5.291  15.629  0.0700 -0.3201 -0.8030
   19DOPE   H7Y 2419   7.281   5.429  15.608 -0.7881 -0.2532  2.2004
   19DOPE   C38 2420   7.269   5.292  15.435 -0.1361  0.1892  0.1388
   19DOPE   H8X 2421   7.239   5.185  15.427  1.0046 -0.0807 -0.8504
   19DOPE   H8Y 2422   7.376   5.297  15.406 -0.3764 -1.1994 -1.1342
   19DOPE   C39 2423   7.185   5.376  15.344  0.2299  0.4960  0.3937
   19DOPE   H9X 2424   7.177   5.482  15.370 -0.8813  0.7372 -0.8126
   19DOPE  C310 2425   7.097   5.331  15.253 -0.2687 -0.0080  0.0608
   19DOPE  H10X 2426   7.052   5.407  15.187  0.5847  0.1904 -0.2986
   19DOPE  C311 2427   7.067   5.187  15.217  0.2365  0.0166 -0.4648
   19DOPE  H11X 2428   7.039   5.143  15.315 -0.7136  0.5731 -0.4735
   19DOPE  H11Y 2429   6.970   5.188  15.164  0.3083 -0.1724 -0.5979
   19DOPE  C312 2430   7.163   5.092  15.132  0.3015 -0.1750  0.2548
   19DOPE  H12X 2431   7.142   4.983  15.136  0.2992 -0.2265 -0.8820
   19DOPE  H12Y 2432   7.269   5.102  15.165  0.6174 -2.1174 -0.0395
   19DOPE  C313 2433   7.161   5.144  14.983  0.3362 -0.0092  0.2511
   19DOPE  H13X 2434   7.062   5.124  14.936 -0.4667 -0.3004  1.9916
   19DOPE  H13Y 2435   7.181   5.253  14.984  0.5260 -0.0406  1.9994
   19DOPE  C314 2436   7.271   5.084  14.902 -0.2555 -0.4611  0.2096
   19DOPE  H14X 2437   7.277   4.978  14.938  0.6377 -1.7023 -3.2042
   19DOPE  H14Y 2438   7.361   5.146  14.925  1.0884 -2.4160  0.5321
   19DOPE  C315 2439   7.229   5.071  14.752  0.7682 -0.4062  0.2002
   19DOPE  H15X 2440   7.201   5.171  14.714  3.1306  0.1183 -0.2858
   19DOPE  H15Y 2441   7.145   4.998  14.743  1.1087 -0.9037  0.9110
   19DOPE  C316 2442   7.346   5.040  14.657 -0.6755  0.8457 -0.6381
   19DOPE  H16X 2443   7.403   4.956  14.702 -3.1606 -0.3234  0.5360
   19DOPE  H16Y 2444   7.421   5.122  14.659  0.5903 -0.2776 -0.8746
   19DOPE  C317 2445   7.303   5.023  14.515 -0.0401  0.4043  0.1026
   19DOPE  H17X 2446   7.404   4.998  14.476 -0.6934 -2.2851 -0.0109
   19DOPE  H17Y 2447   7.244   4.931  14.495  2.3653 -1.7028  2.0735
   19DOPE  C318 2448   7.259   5.152  14.441  0.2322 -0.2103 -0.0845
   19DOPE  H18X 2449   7.242   5.123  14.335 -3.3643 -0.6082  0.4693
   19DOPE  H18Y 2450   7.172   5.198  14.493  0.5016 -0.2472  0.4016
   19DOPE  H18Z 2451   7.331   5.235  14.426 -1.3149  0.8726 -1.9723
   20DOPE     N 2452   3.944   0.227  17.022  0.0482  0.2263  0.2012
   20DOPE   HN1 2453   3.869   0.284  17.066  0.2808 -1.6653  3.3678
   20DOPE   HN2 2454   3.972   0.156  17.092 -1.1422  1.4507  1.9994
   20DOPE   HN3 2455   4.031   0.284  17.012  0.3147 -0.3826 -1.2414
   20DOPE   C12 2456   3.913   0.167  16.889  1.0032 -0.8942 -0.1287
   20DOPE  H12A 2457   3.804   0.141  16.891  0.9477 -0.9437 -2.1324
   20DOPE  H12B 2458   3.957   0.066  16.872 -0.5474 -1.4968 -0.8207
   20DOPE   C11 2459   3.957   0.248  16.760  0.1278 -0.2893 -0.4998
   20DOPE  H11A 2460   3.916   0.351  16.749  0.3842 -0.1185  0.1046
   20DOPE  H11B 2461   3.914   0.190  16.676 -2.6564 -1.0319  1.2935
   20DOPE     P 2462   4.218   0.184  16.707  0.2258  0.2372 -0.0831
   20DOPE   O13 2463   4.177   0.043  16.718  0.6896 -0.4560  0.0788
   20DOPE   O14 2464   4.342   0.224  16.783  0.3886 -0.1490 -0.0824
   20DOPE   O11 2465   4.242   0.225  16.550  0.3261  0.0592  0.5273
   20DOPE   O12 2466   4.100   0.277  16.761  0.1635  0.0191  0.0772
   20DOPE    C1 2467   4.273   0.116  16.458 -0.0896 -0.2294 -0.2191
   20DOPE    HA 2468   4.183   0.080  16.403  0.0821 -0.0766 -0.6031
   20DOPE    HB 2469   4.315   0.027  16.509  1.2575  1.5692  2.0432
   20DOPE    C2 2470   4.387   0.158  16.355 -0.4448  0.2369  0.0572
   20DOPE    HS 2471   4.461   0.213  16.417  0.1769 -2.7054  2.0998
   20DOPE   O21 2472   4.330   0.242  16.258 -0.3103 -0.3733 -0.4319
   20DOPE   C21 2473   4.411   0.327  16.198  0.6085  0.3983 -0.2064
   20DOPE   O22 2474   4.534   0.342  16.218 -0.0280 -0.4608 -0.0299
   20DOPE   C22 2475   4.332   0.393  16.091  0.0644  0.0718  0.3137
   20DOPE   H2R 2476   4.235   0.422  16.137  0.0007  0.9463 -0.3582
   20DOPE   H2S 2477   4.326   0.320  16.008 -0.5613 -1.0968  1.3520
   20DOPE    C3 2478   4.468   0.049  16.285 -0.1490  0.0295  0.1558
   20DOPE    HX 2479   4.517  -0.006  16.368  3.3563 -1.0815 -2.4273
   20DOPE    HY 2480   4.549   0.086  16.218  1.1911 -0.4454  1.4570
   20DOPE   O31 2481   4.383  -0.053  16.229 -0.3411 -0.3168  0.3350
   20DOPE   C31 2482   4.381  -0.055  16.094  0.0548  0.9855  0.2734
   20DOPE   O32 2483   4.443   0.022  16.023  0.4675 -0.3754  0.7636
   20DOPE   C32 2484   4.290  -0.170  16.044 -0.8645  0.4417 -0.5677
   20DOPE   H2X 2485   4.241  -0.214  16.134  1.5833  0.7783  1.0354
   20DOPE   H2Y 2486   4.211  -0.122  15.982  0.4153  0.5806 -2.1402
   20DOPE   C23 2487   4.391   0.531  16.039 -0.2202  0.2390 -0.8132
   20DOPE   H3R 2488   4.477   0.502  15.976 -0.8801  1.4047 -2.3031
   20DOPE   H3S 2489   4.435   0.588  16.123  1.3089 -1.0767 -0.6722
   20DOPE   C24 2490   4.278   0.619  15.972 -0.0754  0.1142 -0.5484
   20DOPE   H4R 2491   4.312   0.721  15.942 -1.8390  0.7671 -0.4425
   20DOPE   H4S 2492   4.198   0.626  16.049  1.4984 -1.6582  1.3665
   20DOPE   C25 2493   4.223   0.543  15.851  1.0681  0.0934 -0.3850
   20DOPE   H5R 2494   4.195   0.440  15.879 -1.4208  0.7930 -0.0306
   20DOPE   H5S 2495   4.289   0.552  15.762  0.9560 -0.4480 -0.5212
   20DOPE   C26 2496   4.086   0.598  15.798 -0.3179 -0.3876 -0.2974
   20DOPE   H6R 2497   4.010   0.611  15.878  0.2882  2.5130 -0.0892
   20DOPE   H6S 2498   4.055   0.529  15.717  1.9126 -0.9827 -0.7083
   20DOPE   C27 2499   4.114   0.731  15.731  0.3245  0.2159  0.4277
   20DOPE   H7R 2500   4.175   0.714  15.640 -1.8501 -0.5594 -0.9548
   20DOPE   H7S 2501   4.182   0.790  15.797  0.7641  0.4354 -0.2068
   20DOPE   C28 2502   3.979   0.803  15.699 -0.7289 -0.3570 -0.9369
   20DOPE   H8R 2503   3.917   0.812  15.791 -0.4719  1.4613 -0.9139
   20DOPE   H8S 2504   3.922   0.739  15.628 -1.1332  1.3319 -2.2175
   20DOPE   C29 2505   4.000   0.942  15.641 -0.0728  0.1776  0.0393
   20DOPE   H9R 2506   4.053   1.006  15.713 -0.3297  0.1036  0.2964
   20DOPE  C210 2507   3.975   0.987  15.512  0.3663  0.3035  0.0936
   20DOPE  H10R 2508   4.010   1.087  15.486  1.0705 -0.3348 -1.5305
   20DOPE  C211 2509   3.938   0.898  15.402  0.7467  0.8180 -0.1208
   20DOPE  H11R 2510   3.827   0.890  15.410  0.7846  0.1698 -0.1961
   20DOPE  H11S 2511   3.965   0.792  15.422 -0.8034  0.4420  0.1065
   20DOPE  C212 2512   3.982   0.939  15.258  0.3538  0.2543  0.1334
   20DOPE  H12R 2513   3.981   0.859  15.182 -0.5851  1.3501 -1.0423
   20DOPE  H12S 2514   4.089   0.962  15.279  0.8791  1.1107 -2.9600
   20DOPE  C213 2515   3.915   1.070  15.217  0.6632  0.4855  0.6804
   20DOPE  H13R 2516   3.945   1.148  15.290  2.7645 -1.0033  1.5024
   20DOPE  H13S 2517   3.804   1.063  15.215  0.6376  0.8039 -1.4336
   20DOPE  C214 2518   3.946   1.110  15.066  0.2556  0.6722  0.1986
   20DOPE  H14R 2519   3.894   1.047  14.991  0.3727  1.7588 -0.8204
   20DOPE  H14S 2520   4.054   1.090  15.048 -0.3224 -2.8895 -0.0496
   20DOPE  C215 2521   3.916   1.252  15.032  0.3603  0.1583  0.6644
   20DOPE  H15R 2522   3.984   1.304  15.102  0.6812 -1.0035  1.2476
   20DOPE  H15S 2523   3.814   1.281  15.065  1.1205  0.8019  2.6014
   20DOPE  C216 2524   3.922   1.291  14.890 -0.3721 -0.4248  0.0846
   20DOPE  H16R 2525   3.837   1.257  14.827  0.5205  0.1316 -1.4894
   20DOPE  H16S 2526   4.014   1.247  14.846 -0.2991 -0.5914  0.4032
   20DOPE  C217 2527   3.953   1.440  14.864  0.2764  0.1565  0.4411
   20DOPE  H17R 2528   3.987   1.441  14.758 -1.7192  1.1210 -0.2297
   20DOPE  H17S 2529   4.040   1.465  14.928 -0.5595 -2.2045  2.6495
   20DOPE  C218 2530   3.830   1.530  14.867 -0.8146  0.0286  0.8910
   20DOPE  H18R 2531   3.849   1.620  14.805 -1.1295 -0.4023  0.1466
   20DOPE  H18S 2532   3.805   1.561  14.970 -0.2441  0.9572  0.7615
   20DOPE  H18T 2533   3.745   1.473  14.822 -2.4500  0.8120  2.8398
   20DOPE   C33 2534   4.357  -0.270  15.943  1.2116  0.2826  0.0021
   20DOPE   H3X 2535   4.318  -0.371  15.968 -0.4732  0.6493 -0.9913
   20DOPE   H3Y 2536   4.464  -0.278  15.972  1.2667  1.5898  0.2011
   20DOPE   C34 2537   4.329  -0.245  15.796  0.2161  0.2027  0.0523
   20DOPE   H4X 2538   4.347  -0.347  15.755 -0.2476 -0.8702  2.3535
   20DOPE   H4Y 2539   4.219  -0.235  15.779  0.0140 -1.9896 -0.2837
   20DOPE   C35 2540   4.423  -0.141  15.733 -0.3701 -0.4904  0.5144
   20DOPE   H5X 2541   4.528  -0.139  15.771  0.1065  1.6737 -0.7551
   20DOPE   H5Y 2542   4.379  -0.041  15.754 -0.7314 -0.9852  2.2353
   20DOPE   C36 2543   4.432  -0.144  15.580  0.5082 -0.0294  0.2722
   20DOPE   H6X 2544   4.487  -0.235  15.547  1.3187  0.4761  0.1923
   20DOPE   H6Y 2545   4.494  -0.056  15.553 -0.0930  0.6627  1.1069
   20DOPE   C37 2546   4.290  -0.161  15.503 -0.0070 -0.5705 -0.1398
   20DOPE   H7X 2547   4.258  -0.263  15.535  0.1193 -0.0364  1.8560
   20DOPE   H7Y 2548   4.227  -0.090  15.562  2.6094 -1.0581  3.6244
   20DOPE   C38 2549   4.293  -0.141  15.355 -0.0758 -0.0451 -0.6751
   20DOPE   H8X 2550   4.300  -0.033  15.328  0.1823  1.1141  3.4101
   20DOPE   H8Y 2551   4.198  -0.184  15.317 -1.5606  0.0561  2.6294
   20DOPE   C39 2552   4.412  -0.214  15.292  0.3993  0.7660  0.2420
   20DOPE   H9X 2553   4.488  -0.155  15.237  1.6341 -0.4259  0.6031
   20DOPE  C310 2554   4.427  -0.350  15.275  0.1199 -1.0142  0.2529
   20DOPE  H10X 2555   4.523  -0.383  15.233 -0.0962  0.5262 -1.5532
   20DOPE  C311 2556   4.344  -0.464  15.324 -0.3397 -0.5977 -0.1213
   20DOPE  H11X 2557   4.410  -0.541  15.370 -1.4836 -0.8755  1.1264
   20DOPE  H11Y 2558   4.266  -0.427  15.394  0.5975  0.3209  0.4684
   20DOPE  C312 2559   4.277  -0.524  15.206 -0.3185 -0.1589  0.0571
   20DOPE  H12X 2560   4.208  -0.445  15.170 -0.7240  0.7399  2.6332
   20DOPE  H12Y 2561   4.213  -0.611  15.233 -1.1542  0.2375 -0.6276
   20DOPE  C313 2562   4.366  -0.580  15.099  0.3591 -0.1054  0.1391
   20DOPE  H13X 2563   4.302  -0.615  15.015 -1.2916  1.2366  0.7577
   20DOPE  H13Y 2564   4.423  -0.499  15.048  1.7899 -1.8941 -1.1999
   20DOPE  C314 2565   4.431  -0.703  15.141 -0.1987  0.2345 -0.7049
   20DOPE  H14X 2566   4.357  -0.775  15.182  0.4051  0.3665  0.6638
   20DOPE  H14Y 2567   4.483  -0.691  15.238 -2.1218  0.4718  0.3520
   20DOPE  C315 2568   4.525  -0.769  15.038 -0.8097  0.0627 -0.5514
   20DOPE  H15X 2569   4.603  -0.695  15.012  0.7662 -0.5407  2.1284
   20DOPE  H15Y 2570   4.466  -0.799  14.948 -0.4516 -0.9925 -0.4583
   20DOPE  C316 2571   4.597  -0.902  15.097 -0.1801  0.2785 -0.0484
   20DOPE  H16X 2572   4.517  -0.971  15.131 -1.6901  1.5797 -0.8343
   20DOPE  H16Y 2573   4.654  -0.876  15.188 -0.8604 -1.5451  0.9335
   20DOPE  C317 2574   4.703  -0.949  14.993 -0.4132 -0.1449  0.3912
   20DOPE  H17X 2575   4.649  -0.979  14.900 -5.0659  1.4215  2.2956
   20DOPE  H17Y 2576   4.770  -0.866  14.960  0.0254 -0.4235  0.5781
   20DOPE  C318 2577   4.776  -1.073  15.049 -0.3753  0.0334  0.4610
   20DOPE  H18X 2578   4.840  -1.033  15.131 -0.7869  0.8948  0.3702
   20DOPE  H18Y 2579   4.707  -1.143  15.099  0.7018 -1.0546  0.4620
   20DOPE  H18Z 2580   4.847  -1.116  14.975 -0.6135  1.1353 -0.4380
   21DOPE     N 2581   2.216   0.501  17.120 -0.4182 -0.3024 -0.1874
   21DOPE   HN1 2582   2.226   0.489  17.223 -0.2167 -0.3371 -0.2098
   21DOPE   HN2 2583   2.116   0.508  17.091 -0.9562 -1.6604  1.1626
   21DOPE   HN3 2584   2.252   0.411  17.081  0.8346  0.0436  0.1185
   21DOPE   C12 2585   2.307   0.619  17.071  0.1400  0.4923  0.0536
   21DOPE  H12A 2586   2.255   0.713  17.100  1.2096  0.4392  2.4026
   21DOPE  H12B 2587   2.307   0.606  16.961  0.7692 -0.9004  0.1964
   21DOPE   C11 2588   2.447   0.621  17.134  0.0043  0.1043 -0.2904
   21DOPE  H11A 2589   2.443   0.636  17.245 -1.1394 -1.5120 -0.0829
   21DOPE  H11B 2590   2.507   0.705  17.093  0.6106 -0.0326  0.2900
   21DOPE     P 2591   2.587   0.460  16.967 -0.0947 -0.1406 -0.0141
   21DOPE   O13 2592   2.527   0.335  16.922  0.0529 -0.0931 -0.4277
   21DOPE   O14 2593   2.737   0.472  16.975 -0.4497 -0.4759  0.3098
   21DOPE   O11 2594   2.537   0.578  16.879 -0.1724  0.7064 -0.2119
   21DOPE   O12 2595   2.519   0.495  17.106 -0.5220 -0.0677 -0.2525
   21DOPE    C1 2596   2.626   0.650  16.786 -0.2253  0.1855 -0.3402
   21DOPE    HA 2597   2.702   0.583  16.740 -1.0688 -0.5451 -0.7053
   21DOPE    HB 2598   2.683   0.730  16.837 -2.1018  1.0521  0.5108
   21DOPE    C2 2599   2.549   0.707  16.664 -0.1961  0.4801 -0.5779
   21DOPE    HS 2600   2.481   0.785  16.705 -1.7518 -1.7162  1.2547
   21DOPE   O21 2601   2.483   0.600  16.601 -0.2132  0.6047 -0.5453
   21DOPE   C21 2602   2.381   0.634  16.525 -0.2620 -0.1421 -0.2003
   21DOPE   O22 2603   2.336   0.743  16.513 -0.6132  0.5107  0.3895
   21DOPE   C22 2604   2.314   0.515  16.459 -0.3818 -0.8163  0.6061
   21DOPE   H2R 2605   2.203   0.521  16.470 -0.6112  0.3357 -1.6905
   21DOPE   H2S 2606   2.337   0.418  16.508  1.4946 -1.0025 -0.5352
   21DOPE    C3 2607   2.651   0.778  16.568 -0.3583 -0.7350  0.1189
   21DOPE    HX 2608   2.699   0.856  16.631  2.7554 -1.1418 -1.5829
   21DOPE    HY 2609   2.585   0.830  16.495 -1.3984 -2.2760 -0.0887
   21DOPE   O31 2610   2.754   0.693  16.506 -0.2305  0.2010 -0.6656
   21DOPE   C31 2611   2.879   0.753  16.492  0.2923  0.7445  0.6926
   21DOPE   O32 2612   2.901   0.864  16.528  0.0362 -0.1905  0.2615
   21DOPE   C32 2613   2.975   0.654  16.431  0.5346 -0.0008  0.0011
   21DOPE   H2X 2614   3.032   0.715  16.358  0.1027  1.6496  0.9957
   21DOPE   H2Y 2615   3.037   0.601  16.506 -2.7633 -0.5805  2.5565
   21DOPE   C23 2616   2.350   0.496  16.306 -0.7659  0.1990  1.1759
   21DOPE   H3R 2617   2.329   0.595  16.261 -2.4467 -0.0322  1.3825
   21DOPE   H3S 2618   2.269   0.428  16.273 -0.8411 -0.8009  3.2146
   21DOPE   C24 2619   2.491   0.438  16.262  0.4241 -0.9917 -0.5163
   21DOPE   H4R 2620   2.523   0.351  16.322 -1.8423 -2.3169 -1.1007
   21DOPE   H4S 2621   2.556   0.520  16.298 -0.6595  1.0192 -2.8286
   21DOPE   C25 2622   2.495   0.409  16.112  0.1325  0.0170  0.1288
   21DOPE   H5R 2623   2.456   0.489  16.046 -1.7569 -0.1991  0.9170
   21DOPE   H5S 2624   2.433   0.318  16.095 -1.3633  0.8642  0.8382
   21DOPE   C26 2625   2.636   0.374  16.064 -0.1176  0.6521 -0.0920
   21DOPE   H6R 2626   2.679   0.297  16.131 -2.2890  1.0038  1.8081
   21DOPE   H6S 2627   2.700   0.464  16.078  1.2836 -0.3213 -0.0053
   21DOPE   C27 2628   2.645   0.323  15.916  0.1613 -0.4273  0.1669
   21DOPE   H7R 2629   2.593   0.226  15.923 -1.7615  0.1211 -3.9968
   21DOPE   H7S 2630   2.749   0.293  15.890 -0.5273 -0.7522 -2.4284
   21DOPE   C28 2631   2.580   0.415  15.807 -0.0773  0.5632  0.1837
   21DOPE   H8R 2632   2.471   0.403  15.823 -0.0375 -2.6841 -1.2045
   21DOPE   H8S 2633   2.578   0.367  15.707 -1.9816  1.6256 -0.3387
   21DOPE   C29 2634   2.625   0.566  15.807 -0.2299 -0.3476  0.1854
   21DOPE   H9R 2635   2.620   0.612  15.906 -2.1141 -1.4774  0.6469
   21DOPE  C210 2636   2.670   0.628  15.702 -0.2460 -0.2682  0.2145
   21DOPE  H10R 2637   2.712   0.729  15.710  1.1815 -0.8763  0.7429
   21DOPE  C211 2638   2.711   0.543  15.587  0.0856  0.2153 -0.2116
   21DOPE  H11R 2639   2.629   0.479  15.548 -0.7185  0.3630  1.1561
   21DOPE  H11S 2640   2.794   0.471  15.604 -0.1891 -0.2061 -0.6271
   21DOPE  C212 2641   2.747   0.631  15.464 -0.7931  0.5233 -0.3624
   21DOPE  H12R 2642   2.788   0.563  15.386  0.3652 -2.0638  2.3056
   21DOPE  H12S 2643   2.825   0.705  15.488 -0.6735  0.3209 -0.1218
   21DOPE  C213 2644   2.638   0.716  15.408 -0.3334 -0.3913  0.3754
   21DOPE  H13R 2645   2.616   0.787  15.490 -0.8574  1.4258 -1.2444
   21DOPE  H13S 2646   2.539   0.668  15.399 -0.8955  1.0521 -2.0521
   21DOPE  C214 2647   2.667   0.803  15.281 -0.1295  0.1552  0.2321
   21DOPE  H14R 2648   2.743   0.878  15.313  1.9310 -1.9407  0.4797
   21DOPE  H14S 2649   2.577   0.864  15.257  1.3143  1.7122 -1.5666
   21DOPE  C215 2650   2.717   0.729  15.152 -0.3193 -0.2282  0.1478
   21DOPE  H15R 2651   2.821   0.696  15.172  0.5776  2.1255 -0.3586
   21DOPE  H15S 2652   2.702   0.797  15.066 -0.1258 -0.2847  0.0692
   21DOPE  C216 2653   2.626   0.612  15.118 -0.2787  0.2024 -0.7733
   21DOPE  H16R 2654   2.528   0.656  15.091 -1.9746 -2.6142  0.3459
   21DOPE  H16S 2655   2.597   0.564  15.215  0.7957 -0.2892 -0.6720
   21DOPE  C217 2656   2.670   0.505  15.026  0.1928  0.1868  0.5236
   21DOPE  H17R 2657   2.661   0.530  14.918  2.4315 -1.6742 -0.1837
   21DOPE  H17S 2658   2.600   0.421  15.044  1.3212 -0.7287  0.7521
   21DOPE  C218 2659   2.811   0.456  15.059 -0.6597 -0.1477  0.3349
   21DOPE  H18R 2660   2.846   0.367  15.002  2.3514  1.2174 -0.1430
   21DOPE  H18S 2661   2.811   0.417  15.163 -1.5059 -2.8993 -0.5933
   21DOPE  H18T 2662   2.886   0.536  15.041 -1.6227  0.4834 -1.0389
   21DOPE   C33 2663   2.917   0.538  16.352 -0.1798  0.1881 -0.0936
   21DOPE   H3X 2664   2.827   0.567  16.292 -0.4732 -1.0966 -0.3158
   21DOPE   H3Y 2665   2.866   0.464  16.419 -0.6747 -1.5225 -2.2287
   21DOPE   C34 2666   3.022   0.468  16.262  0.3570  0.1509  0.7154
   21DOPE   H4X 2667   3.121   0.455  16.312 -0.0048  0.4906  1.5379
   21DOPE   H4Y 2668   2.984   0.364  16.251  1.2401 -0.1134  0.0807
   21DOPE   C35 2669   3.027   0.535  16.125  0.9366  0.5511  0.2971
   21DOPE   H5X 2670   3.057   0.641  16.116 -0.5283  0.8688 -1.2294
   21DOPE   H5Y 2671   2.923   0.532  16.085  0.7453 -1.2537  0.8472
   21DOPE   C36 2672   3.114   0.450  16.029 -0.2993 -0.3309 -0.7501
   21DOPE   H6X 2673   3.082   0.343  16.026 -1.9485  0.0669  1.2472
   21DOPE   H6Y 2674   3.222   0.452  16.057 -0.9074 -1.1438  1.9368
   21DOPE   C37 2675   3.100   0.489  15.887  0.0711  0.2143  0.2502
   21DOPE   H7X 2676   3.146   0.422  15.811  2.0279 -0.4116  1.8927
   21DOPE   H7Y 2677   2.991   0.497  15.868 -0.2758 -0.3880  1.8336
   21DOPE   C38 2678   3.152   0.624  15.846 -0.1381  0.0929  0.2635
   21DOPE   H8X 2679   3.261   0.623  15.869 -0.0518  0.6699 -0.1082
   21DOPE   H8Y 2680   3.112   0.705  15.911  1.2564  1.5568 -0.6113
   21DOPE   C39 2681   3.130   0.664  15.704 -0.1075  0.5739  0.6708
   21DOPE   H9X 2682   3.028   0.641  15.671  0.2626  0.6560 -0.6001
   21DOPE  C310 2683   3.203   0.737  15.618 -0.1311  0.2541 -0.2834
   21DOPE  H10X 2684   3.167   0.756  15.516 -0.4502  0.3969 -0.1459
   21DOPE  C311 2685   3.351   0.785  15.634 -0.1483  0.0201 -0.4923
   21DOPE  H11X 2686   3.347   0.889  15.672  0.5135 -0.0869 -0.1139
   21DOPE  H11Y 2687   3.410   0.719  15.700 -1.1360  1.1889  1.6636
   21DOPE  C312 2688   3.442   0.788  15.504 -0.6913 -0.4082  0.3362
   21DOPE  H12X 2689   3.453   0.684  15.464  1.8421  0.2025 -0.7935
   21DOPE  H12Y 2690   3.539   0.829  15.540 -1.3921  0.6272  1.0856
   21DOPE  C313 2691   3.403   0.873  15.382  0.0111  0.8069 -0.4136
   21DOPE  H13X 2692   3.301   0.847  15.347  0.2326  1.4351 -1.5826
   21DOPE  H13Y 2693   3.394   0.979  15.413 -0.9628 -0.3671  3.9416
   21DOPE  C314 2694   3.508   0.854  15.275 -0.0128  0.3643  0.7953
   21DOPE  H14X 2695   3.493   0.747  15.250  0.2405 -0.0109  2.1458
   21DOPE  H14Y 2696   3.608   0.876  15.319 -0.2425  0.4427  1.2855
   21DOPE  C315 2697   3.472   0.931  15.147  0.1229  0.1597  0.1160
   21DOPE  H15X 2698   3.470   1.042  15.153  0.2859  0.2107 -0.6764
   21DOPE  H15Y 2699   3.367   0.905  15.122  0.2648  1.7954 -2.6921
   21DOPE  C316 2700   3.571   0.903  15.034 -0.5429 -0.1977 -0.3210
   21DOPE  H16X 2701   3.568   0.794  15.013  1.5082  0.0324 -2.2089
   21DOPE  H16Y 2702   3.678   0.926  15.058 -0.9467  1.5997 -0.0679
   21DOPE  C317 2703   3.531   0.979  14.906 -0.5570  0.1363 -0.3990
   21DOPE  H17X 2704   3.430   0.943  14.878 -0.7176 -0.4255  0.8070
   21DOPE  H17Y 2705   3.532   1.088  14.923 -0.8163  0.2758 -1.2226
   21DOPE  C318 2706   3.638   0.966  14.797 -0.0005 -0.0599 -0.2626
   21DOPE  H18X 2707   3.600   0.893  14.722  0.2695 -1.4175  0.8856
   21DOPE  H18Y 2708   3.659   1.066  14.753 -0.7304  0.0953 -0.2737
   21DOPE  H18Z 2709   3.734   0.935  14.843 -1.7199 -1.9808  2.3697
   22DOPE     N 2710   0.769   5.292  16.401 -0.0099 -0.5535  0.1172
   22DOPE   HN1 2711   0.865   5.287  16.441 -0.3801 -0.8554  0.9886
   22DOPE   HN2 2712   0.724   5.375  16.444  1.0746  1.0800 -1.6923
   22DOPE   HN3 2713   0.710   5.208  16.420 -1.3811  0.2698 -0.3915
   22DOPE   C12 2714   0.769   5.317  16.255  0.4139 -0.5176  0.3497
   22DOPE  H12A 2715   0.772   5.217  16.209 -1.4993 -0.3383 -0.2570
   22DOPE  H12B 2716   0.865   5.361  16.221  0.8532 -1.9100 -0.2776
   22DOPE   C11 2717   0.642   5.384  16.212  0.5134 -0.4722  0.1846
   22DOPE  H11A 2718   0.544   5.333  16.226  0.3489 -0.7966 -1.8176
   22DOPE  H11B 2719   0.651   5.402  16.102  2.2543  4.3955  0.8865
   22DOPE     P 2720   0.557   5.568  16.389 -0.1433 -0.0638  0.5310
   22DOPE   O13 2721   0.585   5.710  16.402 -0.0514 -0.7000  0.0579
   22DOPE   O14 2722   0.588   5.480  16.500  0.3593  0.7639 -0.7483
   22DOPE   O11 2723   0.405   5.541  16.343 -0.0187  0.2924 -0.1840
   22DOPE   O12 2724   0.644   5.513  16.267  0.6743 -0.1295  0.0818
   22DOPE    C1 2725   0.350   5.621  16.238 -0.2527 -0.1080 -0.0961
   22DOPE    HA 2726   0.423   5.633  16.156 -1.6862  0.2682 -1.3523
   22DOPE    HB 2727   0.318   5.720  16.278  0.8564 -0.7458  2.6372
   22DOPE    C2 2728   0.229   5.557  16.174 -0.2556  0.2735 -0.7442
   22DOPE    HS 2729   0.150   5.538  16.250  0.6906 -1.3467 -0.1026
   22DOPE   O21 2730   0.272   5.430  16.109  0.0329 -0.4167 -0.4068
   22DOPE   C21 2731   0.257   5.320  16.165  0.2929  0.8489 -0.1859
   22DOPE   O22 2732   0.187   5.291  16.260  0.6808 -0.4070  0.3027
   22DOPE   C22 2733   0.347   5.209  16.102 -0.0587 -0.1429  0.1070
   22DOPE   H2R 2734   0.369   5.136  16.183 -0.3127 -2.5043 -1.8524
   22DOPE   H2S 2735   0.439   5.260  16.068 -0.9013  0.4871 -1.3425
   22DOPE    C3 2736   0.171   5.654  16.065  0.2952 -0.5525 -0.1504
   22DOPE    HX 2737   0.256   5.657  15.993  2.3120 -1.9645  2.0074
   22DOPE    HY 2738   0.157   5.757  16.102 -1.5206  0.1714 -2.5954
   22DOPE   O31 2739   0.048   5.616  16.004 -0.1833 -0.0655  0.1297
   22DOPE   C31 2740  -0.056   5.613  16.081 -0.0538  0.2256 -0.0326
   22DOPE   O32 2741  -0.062   5.661  16.192 -0.3656 -0.1804  0.3471
   22DOPE   C32 2742  -0.163   5.520  16.024  0.1540 -0.1648 -0.3574
   22DOPE   H2X 2743  -0.128   5.488  15.924  0.6671  0.9548 -0.5544
   22DOPE   H2Y 2744  -0.173   5.438  16.098  0.5868 -1.6107 -1.8251
   22DOPE   C23 2745   0.278   5.144  15.982 -0.2155  0.1800 -0.6098
   22DOPE   H3R 2746   0.187   5.092  16.020  0.8324 -2.8497 -1.9513
   22DOPE   H3S 2747   0.352   5.068  15.948 -0.8330 -1.6027  1.7878
   22DOPE   C24 2748   0.249   5.231  15.868  0.4359 -1.0757  0.2777
   22DOPE   H4R 2749   0.332   5.295  15.833  0.2798 -0.9952  0.0507
   22DOPE   H4S 2750   0.172   5.304  15.901  0.8910  0.4651 -1.8623
   22DOPE   C25 2751   0.173   5.170  15.752 -0.8871  0.0085 -0.0186
   22DOPE   H5R 2752   0.078   5.126  15.789 -1.2512 -0.0444 -0.9781
   22DOPE   H5S 2753   0.230   5.082  15.716 -1.5963 -0.4263 -0.1135
   22DOPE   C26 2754   0.148   5.263  15.629  0.2147  0.1111 -0.9357
   22DOPE   H6R 2755   0.092   5.209  15.549  0.5787 -4.1185  1.3630
   22DOPE   H6S 2756   0.236   5.301  15.573  1.5764 -0.5216  0.7169
   22DOPE   C27 2757   0.092   5.402  15.659  0.2254 -0.2397 -0.9034
   22DOPE   H7R 2758   0.147   5.447  15.745  0.5936 -0.8261 -0.8261
   22DOPE   H7S 2759  -0.013   5.379  15.687  1.2511 -1.2061  2.7945
   22DOPE   C28 2760   0.090   5.508  15.546 -0.4620 -0.6763 -0.1262
   22DOPE   H8R 2761   0.058   5.466  15.448  0.2739  0.2527 -0.7814
   22DOPE   H8S 2762   0.194   5.540  15.527  0.4624 -1.9651  2.3272
   22DOPE   C29 2763   0.010   5.624  15.596  0.8564 -0.7969 -0.5527
   22DOPE   H9R 2764   0.048   5.687  15.678 -3.1680  1.6306 -0.2716
   22DOPE  C210 2765  -0.113   5.671  15.556  1.3215  0.1049  0.2729
   22DOPE  H10R 2766  -0.150   5.760  15.608  0.8502 -0.0512  0.2128
   22DOPE  C211 2767  -0.207   5.619  15.452  0.4535  0.3880  0.1568
   22DOPE  H11R 2768  -0.309   5.625  15.498  0.8860 -1.9166  1.5745
   22DOPE  H11S 2769  -0.174   5.514  15.436 -0.5960  0.4907 -3.4389
   22DOPE  C212 2770  -0.197   5.700  15.323 -0.4657  0.0773 -0.0795
   22DOPE  H12R 2771  -0.103   5.676  15.270  0.1782 -0.7232  1.3545
   22DOPE  H12S 2772  -0.209   5.809  15.340  0.2238  0.4544 -1.8648
   22DOPE  C213 2773  -0.314   5.674  15.224 -0.0056  0.6496  0.1927
   22DOPE  H13R 2774  -0.403   5.732  15.255  1.1710  1.9593  1.2284
   22DOPE  H13S 2775  -0.325   5.563  15.219  2.5011  0.3707 -0.6054
   22DOPE  C214 2776  -0.268   5.737  15.093 -0.2301  0.7998 -0.1035
   22DOPE  H14R 2777  -0.171   5.691  15.066 -1.9051 -1.8532 -2.0616
   22DOPE  H14S 2778  -0.261   5.847  15.105  0.8326  0.6135  1.2139
   22DOPE  C215 2779  -0.374   5.704  14.980  1.0489  0.1271 -0.4944
   22DOPE  H15R 2780  -0.462   5.766  15.004  1.0163  0.2055 -0.8131
   22DOPE  H15S 2781  -0.398   5.596  14.989  0.3614  0.3742  0.8553
   22DOPE  C216 2782  -0.306   5.734  14.844  0.1813  0.1772 -0.4340
   22DOPE  H16R 2783  -0.215   5.670  14.844  0.5338  0.6675 -0.1725
   22DOPE  H16S 2784  -0.275   5.841  14.836  0.1139  0.0206 -4.6254
   22DOPE  C217 2785  -0.394   5.708  14.712  0.2653  0.1595 -0.6056
   22DOPE  H17R 2786  -0.472   5.787  14.716  0.8620  0.7243  0.2026
   22DOPE  H17S 2787  -0.444   5.613  14.741 -1.5204  0.1928 -3.1936
   22DOPE  C218 2788  -0.313   5.705  14.581 -0.0476 -0.5681  0.2134
   22DOPE  H18R 2789  -0.374   5.680  14.491  0.4080  2.7035 -1.1372
   22DOPE  H18S 2790  -0.225   5.639  14.596 -0.9483 -1.7935  0.2475
   22DOPE  H18T 2791  -0.283   5.812  14.575  0.0217 -0.5815  0.3191
   22DOPE   C33 2792  -0.298   5.595  16.008  0.5373 -0.1537  0.0835
   22DOPE   H3X 2793  -0.321   5.673  16.084 -1.2381  0.3037 -0.8585
   22DOPE   H3Y 2794  -0.374   5.517  16.028 -1.7662  2.4515  2.4926
   22DOPE   C34 2795  -0.315   5.654  15.875 -0.0812 -0.0945  0.4699
   22DOPE   H4X 2796  -0.231   5.723  15.854 -0.5875  0.6203  0.7557
   22DOPE   H4Y 2797  -0.316   5.572  15.799 -0.2848 -0.6681  1.0772
   22DOPE   C35 2798  -0.453   5.722  15.853  0.6379 -0.5863 -0.1532
   22DOPE   H5X 2799  -0.528   5.679  15.924 -2.1462  1.2638 -1.7922
   22DOPE   H5Y 2800  -0.483   5.710  15.747 -2.8007 -0.7383  0.6875
   22DOPE   C36 2801  -0.448   5.879  15.868 -0.0926 -0.5967 -0.1917
   22DOPE   H6X 2802  -0.399   5.911  15.962  1.9475 -2.7296 -0.4366
   22DOPE   H6Y 2803  -0.552   5.916  15.862  0.1795  0.2538  0.2109
   22DOPE   C37 2804  -0.365   5.948  15.757  0.2583 -0.0230  0.2909
   22DOPE   H7X 2805  -0.258   5.917  15.760  0.7557  0.5441 -3.9579
   22DOPE   H7Y 2806  -0.391   5.906  15.657 -1.8993  2.4112 -0.2919
   22DOPE   C38 2807  -0.377   6.100  15.756  0.2131  1.2080  0.1430
   22DOPE   H8X 2808  -0.301   6.130  15.680  0.0856 -2.2845 -1.5296
   22DOPE   H8Y 2809  -0.354   6.142  15.857 -1.7251  0.7379  0.8122
   22DOPE   C39 2810  -0.508   6.152  15.699  0.2526 -0.2824 -0.5893
   22DOPE   H9X 2811  -0.590   6.150  15.772  0.2505 -1.4116 -0.6024
   22DOPE  C310 2812  -0.524   6.207  15.574  0.4240  0.6379  0.1569
   22DOPE  H10X 2813  -0.627   6.240  15.551  0.4036  0.0808 -0.5786
   22DOPE  C311 2814  -0.420   6.214  15.473  0.3034 -0.0612 -0.3115
   22DOPE  H11X 2815  -0.398   6.323  15.465  0.2239  0.1911  2.2152
   22DOPE  H11Y 2816  -0.319   6.171  15.491  0.0503  0.0003  1.3526
   22DOPE  C312 2817  -0.469   6.169  15.334  0.2022  0.0166 -0.3699
   22DOPE  H12X 2818  -0.381   6.173  15.267 -0.0517 -3.3556 -1.0824
   22DOPE  H12Y 2819  -0.545   6.240  15.294  1.3635  1.3796 -0.2302
   22DOPE  C313 2820  -0.517   6.027  15.321 -0.1590  0.3699 -0.2339
   22DOPE  H13X 2821  -0.445   5.963  15.377 -0.8099  0.1138  0.3262
   22DOPE  H13Y 2822  -0.607   6.031  15.387  1.1876 -2.3260  1.9554
   22DOPE  C314 2823  -0.527   5.974  15.177 -0.2427  0.9257  0.8421
   22DOPE  H14X 2824  -0.542   5.864  15.184 -0.6182  0.9989  1.2052
   22DOPE  H14Y 2825  -0.432   6.002  15.126 -0.6227  0.7665  0.0274
   22DOPE  C315 2826  -0.638   6.028  15.090  0.1119 -0.1071 -0.0428
   22DOPE  H15X 2827  -0.629   6.138  15.081  1.8344 -0.1497  0.9359
   22DOPE  H15Y 2828  -0.737   6.015  15.139 -0.4822  2.6796 -0.3610
   22DOPE  C316 2829  -0.637   5.972  14.942 -0.4538 -0.1640  0.1289
   22DOPE  H16X 2830  -0.644   5.861  14.936 -0.5161 -0.1080 -1.5085
   22DOPE  H16Y 2831  -0.536   5.997  14.903 -0.6825  0.6121  0.0274
   22DOPE  C317 2832  -0.746   6.037  14.855 -0.6475  0.3551 -0.0314
   22DOPE  H17X 2833  -0.721   6.143  14.834  0.4835 -0.3234 -2.3669
   22DOPE  H17Y 2834  -0.752   5.987  14.756 -2.0850 -2.0362  1.1712
   22DOPE  C318 2835  -0.892   6.024  14.901  0.7719 -0.0915 -0.3644
   22DOPE  H18X 2836  -0.947   6.103  14.846  2.9769  1.1661 -0.9002
   22DOPE  H18Y 2837  -0.931   5.921  14.887  0.8968 -0.6432  2.6999
   22DOPE  H18Z 2838  -0.909   6.047  15.009 -1.0901 -0.9850 -0.4258
   23DOPE     N 2839   3.901   1.824  16.484 -0.0366  0.1368  0.0866
   23DOPE   HN1 2840   3.808   1.781  16.469  0.6252 -1.4137  0.2336
   23DOPE   HN2 2841   3.881   1.918  16.445  0.1301 -0.9506 -2.8209
   23DOPE   HN3 2842   3.976   1.775  16.431  0.8764  1.6140 -0.0417
   23DOPE   C12 2843   3.941   1.830  16.633  1.1276 -0.0208  0.5281
   23DOPE  H12A 2844   3.895   1.920  16.677  0.3894 -0.5856  0.9407
   23DOPE  H12B 2845   4.050   1.852  16.631  0.9768  0.7600  0.6769
   23DOPE   C11 2846   3.894   1.702  16.702 -0.0785 -0.2340  0.1235
   23DOPE  H11A 2847   3.924   1.710  16.809 -1.4410  0.6806  0.4656
   23DOPE  H11B 2848   3.926   1.617  16.638  0.2114 -2.0417  2.5502
   23DOPE     P 2849   3.672   1.640  16.813 -0.0511 -0.3767 -0.1952
   23DOPE   O13 2850   3.665   1.737  16.923  0.2234 -0.4939 -0.0231
   23DOPE   O14 2851   3.719   1.500  16.831  0.8492  0.2663 -0.0683
   23DOPE   O11 2852   3.522   1.645  16.756 -0.3987  0.9779  0.1050
   23DOPE   O12 2853   3.748   1.710  16.697 -0.7631 -0.7237  0.5513
   23DOPE    C1 2854   3.473   1.544  16.664  0.0733  0.0517 -0.2228
   23DOPE    HA 2855   3.363   1.554  16.655  0.0164  2.2948  1.8990
   23DOPE    HB 2856   3.499   1.440  16.693  2.2220  0.5153 -0.2722
   23DOPE    C2 2857   3.526   1.562  16.524 -0.4051  0.1069 -0.1966
   23DOPE    HS 2858   3.635   1.581  16.533 -0.5537  0.1105  2.3167
   23DOPE   O21 2859   3.462   1.676  16.465 -0.2108  0.7060  0.0782
   23DOPE   C21 2860   3.541   1.768  16.405  0.2205  0.3904  0.5198
   23DOPE   O22 2861   3.660   1.756  16.401  0.2774  0.1060  0.7951
   23DOPE   C22 2862   3.455   1.895  16.367 -0.2151  1.2580 -0.1293
   23DOPE   H2R 2863   3.433   1.956  16.457  1.3842  0.6758  0.7030
   23DOPE   H2S 2864   3.354   1.863  16.334 -0.1085  1.2236 -0.4269
   23DOPE    C3 2865   3.484   1.440  16.435  0.4526  0.1151 -0.3553
   23DOPE    HX 2866   3.379   1.427  16.467  1.4361 -1.2656  2.7644
   23DOPE    HY 2867   3.529   1.343  16.465 -0.4167  0.1608  1.1505
   23DOPE   O31 2868   3.504   1.470  16.296 -0.2360 -0.0184 -0.4762
   23DOPE   C31 2869   3.626   1.437  16.260 -0.3080  0.3347  0.3485
   23DOPE   O32 2870   3.710   1.389  16.335 -0.0064 -0.8007  0.2737
   23DOPE   C32 2871   3.651   1.484  16.116  0.5001  0.2951 -0.0808
   23DOPE   H2X 2872   3.563   1.451  16.057 -0.3724 -0.5075  1.5993
   23DOPE   H2Y 2873   3.644   1.595  16.104 -1.1751  0.1882 -0.2606
   23DOPE   C23 2874   3.524   1.986  16.259 -0.5952  0.5923 -0.0817
   23DOPE   H3R 2875   3.571   1.923  16.181  1.0788  0.4608  0.9791
   23DOPE   H3S 2876   3.617   2.031  16.300  1.4087 -1.1439 -2.4355
   23DOPE   C24 2877   3.433   2.092  16.201 -0.4625 -0.3393  0.4795
   23DOPE   H4R 2878   3.418   2.162  16.287  1.4622  0.3812  0.2918
   23DOPE   H4S 2879   3.332   2.053  16.178 -1.6393  0.4097  3.7245
   23DOPE   C25 2880   3.499   2.166  16.084  0.5186  0.1107 -0.0787
   23DOPE   H5R 2881   3.605   2.185  16.110  0.8983  0.5446 -1.8328
   23DOPE   H5S 2882   3.449   2.266  16.081 -2.8963 -1.4259  0.8836
   23DOPE   C26 2883   3.483   2.097  15.954  0.0493 -0.8738 -0.4740
   23DOPE   H6R 2884   3.544   2.004  15.961 -0.0526 -0.9997 -1.2031
   23DOPE   H6S 2885   3.543   2.166  15.891 -0.6205 -0.5785 -0.7992
   23DOPE   C27 2886   3.341   2.076  15.906  0.5547 -0.3668 -0.0286
   23DOPE   H7R 2887   3.292   2.175  15.919  2.1466  0.3273  1.0157
   23DOPE   H7S 2888   3.280   2.006  15.967 -2.1459  3.1923  1.7567
   23DOPE   C28 2889   3.340   2.027  15.761  0.2140  0.1642 -0.0796
   23DOPE   H8R 2890   3.391   1.928  15.757 -2.1291 -1.1134 -0.1419
   23DOPE   H8S 2891   3.413   2.088  15.703  2.8703 -1.3317  1.4603
   23DOPE   C29 2892   3.204   2.014  15.697 -0.2984 -0.0669  0.1079
   23DOPE   H9R 2893   3.137   1.942  15.747 -0.2919  0.5239  0.9845
   23DOPE  C210 2894   3.167   2.041  15.568  0.1538  0.4193  0.5814
   23DOPE  H10R 2895   3.065   2.029  15.530 -0.1275 -1.5906  1.7898
   23DOPE  C211 2896   3.263   2.124  15.474  0.7387 -0.1102 -0.7018
   23DOPE  H11R 2897   3.285   2.230  15.499 -1.1215  0.7257 -2.3439
   23DOPE  H11S 2898   3.210   2.141  15.378 -2.3696  2.7686  1.2466
   23DOPE  C212 2899   3.390   2.052  15.439 -0.3788 -0.3427  0.1846
   23DOPE  H12R 2900   3.409   1.973  15.515  0.0075 -0.1086  0.3328
   23DOPE  H12S 2901   3.479   2.118  15.446 -1.0800  0.6128  0.1275
   23DOPE  C213 2902   3.397   2.003  15.292 -0.1170  0.9877  1.1235
   23DOPE  H13R 2903   3.399   2.086  15.217 -1.0737 -1.0509 -1.3076
   23DOPE  H13S 2904   3.307   1.944  15.263 -0.1095  2.6646 -3.0789
   23DOPE  C214 2905   3.522   1.913  15.264 -0.7673 -0.0805 -0.4638
   23DOPE  H14R 2906   3.500   1.817  15.315  0.3650 -0.6352 -0.9872
   23DOPE  H14S 2907   3.608   1.963  15.313  0.7284 -1.8204 -1.2224
   23DOPE  C215 2908   3.549   1.869  15.116  0.0593 -0.2456  0.2111
   23DOPE  H15R 2909   3.631   1.793  15.122  2.0880  1.6510 -1.6497
   23DOPE  H15S 2910   3.581   1.953  15.051 -3.2991 -0.8165 -2.4515
   23DOPE  C216 2911   3.428   1.814  15.036  0.3662  0.7878  0.3207
   23DOPE  H16R 2912   3.361   1.897  15.005 -1.7299 -1.3681 -1.2749
   23DOPE  H16S 2913   3.365   1.757  15.108 -0.4869  1.2758 -0.0265
   23DOPE  C217 2914   3.458   1.710  14.925  0.4430 -0.1310 -0.1124
   23DOPE  H17R 2915   3.364   1.663  14.887  1.6099 -2.0135 -0.8351
   23DOPE  H17S 2916   3.514   1.629  14.976  0.1779  0.4202  1.0981
   23DOPE  C218 2917   3.540   1.761  14.803 -0.1103  0.2103  0.1187
   23DOPE  H18R 2918   3.627   1.819  14.842 -1.2059  1.6417  0.5219
   23DOPE  H18S 2919   3.464   1.824  14.754 -4.6136 -3.5195  1.6012
   23DOPE  H18T 2920   3.572   1.685  14.728 -0.2738 -1.1853  1.4157
   23DOPE   C33 2921   3.789   1.456  16.062 -0.0400  0.7867 -0.7710
   23DOPE   H3X 2922   3.823   1.353  16.084 -0.1579  1.0119  0.5527
   23DOPE   H3Y 2923   3.854   1.530  16.113 -2.9128  1.4518  2.3056
   23DOPE   C34 2924   3.817   1.471  15.909  0.4696  0.0399 -0.3360
   23DOPE   H4X 2925   3.736   1.421  15.851  1.5468 -0.1427 -1.7335
   23DOPE   H4Y 2926   3.818   1.579  15.883  0.0909  0.0024 -0.5192
   23DOPE   C35 2927   3.950   1.422  15.857 -0.5587  1.1901 -0.1628
   23DOPE   H5X 2928   3.960   1.311  15.861 -0.7115  1.2188  1.9031
   23DOPE   H5Y 2929   4.033   1.464  15.919 -0.5027  1.4884 -0.4360
   23DOPE   C36 2930   3.979   1.457  15.710 -0.1831  0.0472 -0.3154
   23DOPE   H6X 2931   3.985   1.567  15.694  0.0538  0.4720  2.2248
   23DOPE   H6Y 2932   3.902   1.420  15.639  0.3094 -0.5673 -0.5361
   23DOPE   C37 2933   4.121   1.404  15.666 -0.5058  0.4675  0.4707
   23DOPE   H7X 2934   4.193   1.431  15.747  1.6384 -2.8618 -0.1188
   23DOPE   H7Y 2935   4.122   1.293  15.665  1.7823  0.4210  0.9786
   23DOPE   C38 2936   4.153   1.456  15.526  0.9714  0.7229 -0.6704
   23DOPE   H8X 2937   4.133   1.565  15.517 -1.6538  0.6055  2.0682
   23DOPE   H8Y 2938   4.095   1.400  15.450  0.4371  1.1674 -0.5970
   23DOPE   C39 2939   4.298   1.443  15.512 -0.3225  0.5611  0.3774
   23DOPE   H9X 2940   4.352   1.410  15.602  1.1908 -1.4566 -1.1698
   23DOPE  C310 2941   4.371   1.466  15.401  0.5449  0.0746 -0.1727
   23DOPE  H10X 2942   4.479   1.449  15.401  0.1677 -2.9971  1.6027
   23DOPE  C311 2943   4.317   1.518  15.274  0.1954  0.1746  0.3043
   23DOPE  H11X 2944   4.354   1.467  15.182  1.5368  0.9568  0.3870
   23DOPE  H11Y 2945   4.207   1.503  15.277 -0.1121  1.4000 -2.2567
   23DOPE  C312 2946   4.330   1.673  15.264 -0.0618  1.0138  0.7939
   23DOPE  H12X 2947   4.306   1.718  15.363  0.5611  0.3052  1.2737
   23DOPE  H12Y 2948   4.254   1.707  15.191 -1.0506 -0.1228  1.2406
   23DOPE  C313 2949   4.471   1.709  15.219 -0.1887 -1.0778  0.0169
   23DOPE  H13X 2950   4.552   1.657  15.274  0.9705 -0.7286 -1.3077
   23DOPE  H13Y 2951   4.495   1.683  15.113  1.6260  0.5776 -0.0298
   23DOPE  C314 2952   4.506   1.858  15.225  0.3707 -0.2219 -0.0936
   23DOPE  H14X 2953   4.431   1.920  15.171 -1.3276  0.2621  2.6172
   23DOPE  H14Y 2954   4.605   1.878  15.179  0.8882 -2.8286 -0.2491
   23DOPE  C315 2955   4.521   1.923  15.365  0.3189  0.3464  0.2604
   23DOPE  H15X 2956   4.616   1.890  15.412  1.0702  3.4082  1.1202
   23DOPE  H15Y 2957   4.439   1.877  15.423  1.0005 -1.2440  0.0253
   23DOPE  C316 2958   4.515   2.074  15.363 -0.1204 -0.3648  0.5108
   23DOPE  H16X 2959   4.554   2.107  15.462  0.8372  1.7380 -0.5144
   23DOPE  H16Y 2960   4.410   2.095  15.333 -0.2648 -2.2700 -0.4711
   23DOPE  C317 2961   4.616   2.144  15.265  0.1699  0.3137  0.1481
   23DOPE  H17X 2962   4.719   2.108  15.283 -0.3166 -1.8163 -1.0477
   23DOPE  H17Y 2963   4.607   2.115  15.158  0.2879  0.6323  0.0496
   23DOPE  C318 2964   4.620   2.297  15.256 -0.2458  0.3480 -0.4206
   23DOPE  H18X 2965   4.709   2.319  15.193  1.4519 -2.7072  0.6987
   23DOPE  H18Y 2966   4.529   2.342  15.211 -0.0684  0.5457 -0.5810
   23DOPE  H18Z 2967   4.643   2.339  15.356 -0.1394 -1.6552  0.4352
   24DOPE     N 2968   6.251   6.168  17.410  0.3203 -0.0009  0.2686
   24DOPE   HN1 2969   6.165   6.190  17.463  0.3774  1.3584 -0.1713
   24DOPE   HN2 2970   6.323   6.127  17.472  1.2666 -2.4631 -2.2368
   24DOPE   HN3 2971   6.290   6.253  17.365  0.0054 -0.5474 -1.0882
   24DOPE   C12 2972   6.238   6.065  17.305 -0.1443  0.4628 -0.5209
   24DOPE  H12A 2973   6.201   5.968  17.344  0.8418 -0.0362 -0.8002
   24DOPE  H12B 2974   6.339   6.051  17.260  0.0089 -0.1479 -0.0030
   24DOPE   C11 2975   6.138   6.114  17.188 -0.1377 -0.0725  0.3180
   24DOPE  H11A 2976   6.033   6.109  17.224 -1.6284  2.3821 -3.1419
   24DOPE  H11B 2977   6.138   6.048  17.099 -0.2064  0.3955 -0.0296
   24DOPE     P 2978   6.269   6.283  17.030  0.1088  0.0073 -0.0478
   24DOPE   O13 2979   6.376   6.185  17.036 -0.1428  0.2817  0.5284
   24DOPE   O14 2980   6.303   6.425  17.033 -0.5245  0.7739  0.0551
   24DOPE   O11 2981   6.173   6.258  16.910  0.2507 -0.4791 -0.0242
   24DOPE   O12 2982   6.168   6.250  17.157 -0.0802 -0.6299 -0.2433
   24DOPE    C1 2983   6.031   6.283  16.914 -0.1881 -0.4355  0.4673
   24DOPE    HA 2984   6.005   6.351  16.997  1.0853 -1.2236  1.5522
   24DOPE    HB 2985   5.968   6.193  16.928  0.7624 -1.1324  0.3814
   24DOPE    C2 2986   5.975   6.341  16.788  0.5751 -0.4272 -0.2124
   24DOPE    HS 2987   5.864   6.346  16.794  0.5311 -0.7095 -0.7248
   24DOPE   O21 2988   6.021   6.260  16.682 -0.2035  0.6060 -0.1414
   24DOPE   C21 2989   5.940   6.189  16.615  0.0741  0.8671 -0.2632
   24DOPE   O22 2990   5.821   6.164  16.638  0.1860  0.0424 -0.3633
   24DOPE   C22 2991   6.014   6.118  16.498  0.8248 -0.4083  0.2268
   24DOPE   H2R 2992   6.013   6.008  16.517 -2.4639 -0.2046  2.0463
   24DOPE   H2S 2993   6.116   6.161  16.496  0.2895  0.9604  1.2463
   24DOPE    C3 2994   6.018   6.486  16.763  0.3987 -0.2950  0.2964
   24DOPE    HX 2995   6.128   6.477  16.749  0.5103  0.6771  0.4857
   24DOPE    HY 2996   5.992   6.537  16.858  1.8626 -1.3115  1.2928
   24DOPE   O31 2997   5.943   6.525  16.650 -0.5101  0.9115 -0.0788
   24DOPE   C31 2998   5.995   6.620  16.577 -0.8693 -0.0893  0.3038
   24DOPE   O32 2999   6.097   6.681  16.604 -0.0522 -0.6131 -0.3567
   24DOPE   C32 3000   5.898   6.657  16.474  0.4256 -0.1352 -0.2706
   24DOPE   H2X 3001   5.883   6.567  16.410 -3.7705  0.6192 -0.5955
   24DOPE   H2Y 3002   5.797   6.673  16.518  0.9916  1.0115  0.6745
   24DOPE   C23 3003   5.945   6.133  16.351 -0.4629 -0.0012 -0.0592
   24DOPE   H3R 3004   5.834   6.133  16.356 -0.5363 -1.2827 -1.1170
   24DOPE   H3S 3005   5.977   6.048  16.287  1.4624  0.5546  0.1175
   24DOPE   C24 3006   5.987   6.265  16.289  0.6135  0.1292  0.3979
   24DOPE   H4R 3007   6.098   6.263  16.281  0.5335  0.6495 -1.0150
   24DOPE   H4S 3008   5.952   6.343  16.359 -1.7690  0.8608 -1.4836
   24DOPE   C25 3009   5.922   6.304  16.158  0.0547 -0.5486 -0.8179
   24DOPE   H5R 3010   5.958   6.407  16.140  1.6472 -0.6424  1.4095
   24DOPE   H5S 3011   5.812   6.311  16.175  0.2796 -0.4992  0.7307
   24DOPE   C26 3012   5.935   6.209  16.039 -0.4875 -0.2409  0.5768
   24DOPE   H6R 3013   5.894   6.108  16.062 -0.0055 -0.1000  2.1832
   24DOPE   H6S 3014   6.042   6.196  16.012  0.2400  1.7535  2.2418
   24DOPE   C27 3015   5.871   6.266  15.912  0.0574  0.0851 -0.0774
   24DOPE   H7R 3016   5.920   6.363  15.889  0.5487 -0.1309  0.0515
   24DOPE   H7S 3017   5.760   6.272  15.925  0.4024  0.5258  3.8954
   24DOPE   C28 3018   5.895   6.178  15.783  1.0162 -0.1632 -0.4997
   24DOPE   H8R 3019   6.004   6.186  15.764  1.2229 -0.0872  0.6468
   24DOPE   H8S 3020   5.845   6.229  15.698  2.1094 -1.6961 -2.1330
   24DOPE   C29 3021   5.844   6.034  15.806 -0.3230  0.1608  0.5117
   24DOPE   H9R 3022   5.897   5.972  15.880 -1.7207 -1.1840  0.4360
   24DOPE  C210 3023   5.730   5.986  15.762  0.0782  0.7349  0.0760
   24DOPE  H10R 3024   5.708   5.880  15.785 -1.2404  0.2992 -2.7683
   24DOPE  C211 3025   5.631   6.047  15.671  0.1457  0.2588 -0.7099
   24DOPE  H11R 3026   5.645   6.157  15.672 -0.5938  0.3468  0.0180
   24DOPE  H11S 3027   5.525   6.043  15.703 -0.4226  0.6430 -2.4295
   24DOPE  C212 3028   5.659   6.002  15.526 -0.3529  0.9457  0.0953
   24DOPE  H12R 3029   5.652   5.891  15.527  0.2498  0.9002 -0.3945
   24DOPE  H12S 3030   5.760   6.033  15.491 -0.3828 -0.8018 -1.7345
   24DOPE  C213 3031   5.557   6.048  15.421 -0.5429  0.4542  0.1515
   24DOPE  H13R 3032   5.570   6.158  15.410  0.0388  0.5257  1.4524
   24DOPE  H13S 3033   5.464   6.008  15.467  1.1190 -1.6332  1.9441
   24DOPE  C214 3034   5.578   5.974  15.286 -0.1477  0.0794  0.2115
   24DOPE  H14R 3035   5.550   5.868  15.301 -0.7667  0.1822 -0.1730
   24DOPE  H14S 3036   5.685   5.997  15.264 -0.0615 -0.0919  0.4547
   24DOPE  C215 3037   5.498   6.025  15.167  0.5512 -0.4132  0.3298
   24DOPE  H15R 3038   5.496   6.133  15.144 -0.0547 -0.4028  0.4185
   24DOPE  H15S 3039   5.391   6.010  15.196  0.7830  0.3267  1.6379
   24DOPE  C216 3040   5.525   5.948  15.035 -0.1843  0.3776 -1.0160
   24DOPE  H16R 3041   5.503   5.843  15.064  0.1334  0.8952  1.3314
   24DOPE  H16S 3042   5.627   5.965  14.994 -0.2304  0.4085 -1.1178
   24DOPE  C217 3043   5.435   5.991  14.920 -0.4381 -0.9240  0.6140
   24DOPE  H17R 3044   5.458   6.098  14.900  1.2643 -1.0517  1.6756
   24DOPE  H17S 3045   5.326   5.976  14.933 -0.5492 -0.9658 -0.3302
   24DOPE  C218 3046   5.461   5.906  14.792 -0.5610  0.4741 -0.0664
   24DOPE  H18R 3047   5.393   5.932  14.709 -0.8314  2.4914  0.7260
   24DOPE  H18S 3048   5.461   5.796  14.807  0.4965  0.3285 -0.9918
   24DOPE  H18T 3049   5.562   5.931  14.753 -0.4697  1.7804  0.9499
   24DOPE   C33 3050   5.925   6.786  16.391  0.7226  0.4530 -0.0864
   24DOPE   H3X 3051   6.024   6.785  16.341  0.8838 -0.8870  0.2290
   24DOPE   H3Y 3052   5.920   6.864  16.471  0.6407  0.6260 -0.2584
   24DOPE   C34 3053   5.806   6.825  16.300  0.6462 -0.1745  0.4934
   24DOPE   H4X 3054   5.706   6.815  16.347 -0.7891  0.6226 -2.1457
   24DOPE   H4Y 3055   5.829   6.931  16.276  2.1695 -0.3524  1.0675
   24DOPE   C35 3056   5.797   6.750  16.174 -0.1326  0.5699  0.1484
   24DOPE   H5X 3057   5.798   6.641  16.194 -1.4834  0.9419  2.6144
   24DOPE   H5Y 3058   5.886   6.780  16.114  0.0155  0.7635  0.4580
   24DOPE   C36 3059   5.665   6.769  16.092 -0.2033  0.2796  0.6459
   24DOPE   H6X 3060   5.651   6.877  16.067  1.5151 -0.0740 -2.2555
   24DOPE   H6Y 3061   5.579   6.724  16.147 -1.3328  0.7019 -0.7203
   24DOPE   C37 3062   5.659   6.697  15.954 -0.5072  0.1665  0.6977
   24DOPE   H7X 3063   5.589   6.750  15.886  0.9021  0.8931 -0.2398
   24DOPE   H7Y 3064   5.749   6.718  15.892 -2.2097  2.5957 -1.1371
   24DOPE   C38 3065   5.618   6.548  15.963 -0.1895 -0.5572 -0.4967
   24DOPE   H8X 3066   5.682   6.514  16.048  0.5307 -2.4801 -1.7454
   24DOPE   H8Y 3067   5.658   6.506  15.869  1.9636  1.0961 -0.4057
   24DOPE   C39 3068   5.474   6.517  15.982 -0.2500 -0.2551  0.5095
   24DOPE   H9X 3069   5.430   6.578  16.062 -1.7879 -0.9029  0.1969
   24DOPE  C310 3070   5.396   6.445  15.898  0.1048 -0.6530 -0.4318
   24DOPE  H10X 3071   5.295   6.421  15.933 -0.5029  0.7066 -1.1790
   24DOPE  C311 3072   5.433   6.366  15.779  0.1247 -0.2512  0.4465
   24DOPE  H11X 3073   5.536   6.327  15.794  2.4531  5.0661  0.4800
   24DOPE  H11Y 3074   5.374   6.271  15.784 -2.4652  1.1310 -1.5019
   24DOPE  C312 3075   5.420   6.424  15.634 -0.5039  0.5259  0.3076
   24DOPE  H12X 3076   5.315   6.458  15.617 -1.1508 -0.5304  1.8972
   24DOPE  H12Y 3077   5.438   6.349  15.555 -1.6953 -0.2510  0.7399
   24DOPE  C313 3078   5.518   6.542  15.619  0.0917  0.5304  0.1703
   24DOPE  H13X 3079   5.482   6.623  15.686 -2.6442 -1.0804  0.8178
   24DOPE  H13Y 3080   5.620   6.503  15.643  0.1356  0.0614 -0.7360
   24DOPE  C314 3081   5.520   6.608  15.478 -0.9862 -0.3423  0.3521
   24DOPE  H14X 3082   5.584   6.698  15.486 -0.7043 -0.5515  0.4707
   24DOPE  H14Y 3083   5.427   6.659  15.446 -0.1137  0.1303 -1.5622
   24DOPE  C315 3084   5.566   6.508  15.369  0.5937 -0.9255 -0.5179
   24DOPE  H15X 3085   5.512   6.411  15.371 -0.6283 -0.2773 -0.9811
   24DOPE  H15Y 3086   5.676   6.492  15.374  1.1297  2.0860 -0.7620
   24DOPE  C316 3087   5.528   6.574  15.235  0.7797  0.4987  0.2419
   24DOPE  H16X 3088   5.538   6.684  15.248  0.5331  0.4241  1.1833
   24DOPE  H16Y 3089   5.420   6.551  15.223  0.7741  0.5955  0.0984
   24DOPE  C317 3090   5.599   6.500  15.121 -0.9284 -0.1830 -1.3173
   24DOPE  H17X 3091   5.705   6.529  15.133 -0.6648 -1.8315  0.8835
   24DOPE  H17Y 3092   5.585   6.391  15.137 -1.7923 -0.1547 -1.7757
   24DOPE  C318 3093   5.547   6.516  14.979  0.2527 -0.1322 -0.8277
   24DOPE  H18X 3094   5.437   6.508  14.962  0.0040 -0.7335  0.9129
   24DOPE  H18Y 3095   5.570   6.623  14.961 -0.5240  0.4258  1.2817
   24DOPE  H18Z 3096   5.601   6.442  14.916  0.8876 -0.9667  0.6494
   25DOPE     N 3097   6.930   6.450  16.949 -0.3263  0.2304 -0.3376
   25DOPE   HN1 3098   6.916   6.385  17.029  0.4184  0.5510  0.0669
   25DOPE   HN2 3099   7.021   6.499  16.962 -1.4749  1.9964  2.0403
   25DOPE   HN3 3100   6.858   6.524  16.964  2.2978  2.9631 -0.3775
   25DOPE   C12 3101   6.911   6.390  16.811  0.0231 -0.8922 -0.3649
   25DOPE  H12A 3102   6.931   6.462  16.729 -2.1009 -0.2339 -0.3683
   25DOPE  H12B 3103   6.806   6.355  16.804  0.1629 -1.0112 -2.7573
   25DOPE   C11 3104   6.999   6.260  16.801  0.5338 -0.2528  0.6221
   25DOPE  H11A 3105   6.968   6.206  16.708 -1.0185 -0.3768  1.1835
   25DOPE  H11B 3106   6.966   6.196  16.885  1.2986 -1.7535 -0.1814
   25DOPE     P 3107   7.214   6.351  16.683  0.1797  0.0985  0.1982
   25DOPE   O13 3108   7.354   6.335  16.713  0.4426 -0.4796 -0.1211
   25DOPE   O14 3109   7.156   6.483  16.664  0.8731 -0.3942  0.6869
   25DOPE   O11 3110   7.155   6.248  16.570  0.1535 -0.6203 -0.5188
   25DOPE   O12 3111   7.140   6.296  16.812  0.6822 -0.0246  0.5016
   25DOPE    C1 3112   7.229   6.129  16.546  0.7323 -0.3366  0.5895
   25DOPE    HA 3113   7.161   6.042  16.557  0.7840 -0.7901 -2.0114
   25DOPE    HB 3114   7.310   6.107  16.618  1.3728 -1.1305 -0.3531
   25DOPE    C2 3115   7.294   6.130  16.403 -0.0358 -0.5121  0.3427
   25DOPE    HS 3116   7.389   6.189  16.402 -0.4832  0.3665  2.8586
   25DOPE   O21 3117   7.191   6.171  16.310  0.3719 -0.2239  0.7057
   25DOPE   C21 3118   7.199   6.300  16.282  0.2136 -0.5872 -0.0983
   25DOPE   O22 3119   7.288   6.374  16.311 -0.7319  0.0844  0.1300
   25DOPE   C22 3120   7.072   6.344  16.204  0.8028  1.0568 -0.1357
   25DOPE   H2R 3121   7.090   6.451  16.177  2.2511  1.4752  2.2055
   25DOPE   H2S 3122   6.981   6.343  16.268  1.6659 -1.6071  1.1466
   25DOPE    C3 3123   7.327   5.987  16.372  1.0629 -0.3266 -0.2172
   25DOPE    HX 3124   7.234   5.926  16.381  1.7525 -1.3060  0.4654
   25DOPE    HY 3125   7.394   5.940  16.447  1.1695 -0.3114 -0.3038
   25DOPE   O31 3126   7.381   5.979  16.234 -0.2947  0.6260  0.3054
   25DOPE   C31 3127   7.513   5.987  16.234 -0.1617  0.3257  0.6599
   25DOPE   O32 3128   7.584   5.983  16.334 -0.1430  0.3321  1.1289
   25DOPE   C32 3129   7.559   6.006  16.085 -0.3094 -1.0771  0.5283
   25DOPE   H2X 3130   7.560   5.909  16.031 -0.5034 -0.4459 -0.6533
   25DOPE   H2Y 3131   7.482   6.067  16.032 -0.1647  0.4903  2.0195
   25DOPE   C23 3132   7.051   6.259  16.073 -0.0918 -0.7864 -0.7391
   25DOPE   H3R 3133   7.037   6.151  16.097  1.3755 -1.6044 -3.2615
   25DOPE   H3S 3134   7.144   6.251  16.014  0.6757  1.6506  0.0007
   25DOPE   C24 3135   6.936   6.312  15.991 -0.5284  0.0734 -0.0557
   25DOPE   H4R 3136   6.865   6.348  16.068  0.4877 -1.2606  1.5810
   25DOPE   H4S 3137   6.885   6.227  15.941 -3.6447  1.2452  0.9657
   25DOPE   C25 3138   6.977   6.418  15.894  0.6162 -0.0300 -0.8583
   25DOPE   H5R 3139   7.065   6.381  15.836 -0.4412 -2.8984 -0.8026
   25DOPE   H5S 3140   7.002   6.505  15.959 -0.0093 -0.8172  0.4650
   25DOPE   C26 3141   6.874   6.473  15.796  0.3996  0.2208  0.5827
   25DOPE   H6R 3142   6.846   6.388  15.730 -1.1960 -0.5150  2.1315
   25DOPE   H6S 3143   6.934   6.543  15.734  1.3543 -0.5498  0.6103
   25DOPE   C27 3144   6.745   6.532  15.853  0.7542  0.9919 -0.4583
   25DOPE   H7R 3145   6.773   6.620  15.916 -0.8096  1.9190 -1.0017
   25DOPE   H7S 3146   6.703   6.454  15.920  1.2374 -0.0208 -1.3024
   25DOPE   C28 3147   6.648   6.586  15.742 -0.0596 -0.0372  0.0121
   25DOPE   H8R 3148   6.548   6.572  15.789 -0.4781  1.3975 -0.3984
   25DOPE   H8S 3149   6.651   6.533  15.644  1.0884  0.0095  0.0048
   25DOPE   C29 3150   6.666   6.730  15.693  0.0279  0.0573 -1.1256
   25DOPE   H9R 3151   6.765   6.767  15.724  0.1047  0.2357 -1.5612
   25DOPE  C210 3152   6.582   6.814  15.626 -0.5291 -0.0574  0.2638
   25DOPE  H10R 3153   6.626   6.902  15.576  0.2345  0.7135  2.1746
   25DOPE  C211 3154   6.443   6.786  15.576  0.0512 -0.4305 -1.1512
   25DOPE  H11R 3155   6.376   6.858  15.628  0.2755 -0.7601 -0.3763
   25DOPE  H11S 3156   6.410   6.682  15.598 -2.0178  0.3644 -0.1857
   25DOPE  C212 3157   6.413   6.805  15.426  0.1509  0.3652 -0.2983
   25DOPE  H12R 3158   6.327   6.743  15.393  1.1006 -0.4406 -1.3662
   25DOPE  H12S 3159   6.489   6.744  15.371 -1.3363 -0.3070 -1.6810
   25DOPE  C213 3160   6.412   6.947  15.377 -0.2018 -0.5876  0.0701
   25DOPE  H13R 3161   6.518   6.982  15.381 -0.2298 -0.4070 -0.5376
   25DOPE  H13S 3162   6.353   7.014  15.443  0.3969  0.2550 -0.2190
   25DOPE  C214 3163   6.366   6.967  15.226  0.7778 -0.0486  0.3341
   25DOPE  H14R 3164   6.255   6.960  15.230  0.7128  0.9813  0.7327
   25DOPE  H14S 3165   6.411   6.888  15.163  0.5355  0.5680 -0.6434
   25DOPE  C215 3166   6.407   7.101  15.158  0.2494  0.5172 -0.6326
   25DOPE  H15R 3167   6.352   7.121  15.063 -3.0396 -2.3357  0.4363
   25DOPE  H15S 3168   6.514   7.091  15.132 -0.0064 -0.5110 -1.3828
   25DOPE  C216 3169   6.393   7.224  15.245 -0.1140 -1.0778 -0.5887
   25DOPE  H16R 3170   6.445   7.218  15.343 -0.7690  0.4124 -0.1235
   25DOPE  H16S 3171   6.285   7.224  15.270  0.2826  1.1503  1.4833
   25DOPE  C217 3172   6.434   7.355  15.179 -0.3156  0.7934 -0.4633
   25DOPE  H17R 3173   6.408   7.436  15.251  2.0971  0.1656  1.2262
   25DOPE  H17S 3174   6.377   7.368  15.085  0.0095 -3.1505 -1.3741
   25DOPE  C218 3175   6.583   7.347  15.152 -0.3854  0.4905 -1.0626
   25DOPE  H18R 3176   6.627   7.328  15.252 -2.5524 -2.3842 -0.5358
   25DOPE  H18S 3177   6.628   7.437  15.103  0.3565  0.5982 -0.2107
   25DOPE  H18T 3178   6.615   7.270  15.078 -0.5641 -0.6472  0.0168
   25DOPE   C33 3179   7.704   6.063  16.078 -0.0888 -0.1491 -0.6221
   25DOPE   H3X 3180   7.771   5.986  16.121  0.0091 -0.4378 -1.2873
   25DOPE   H3Y 3181   7.705   6.158  16.137  0.7227 -0.2357 -0.4849
   25DOPE   C34 3182   7.756   6.104  15.939  0.0732 -0.2424  0.0933
   25DOPE   H4X 3183   7.677   6.149  15.875  0.1258 -1.4396 -0.8534
   25DOPE   H4Y 3184   7.841   6.172  15.962 -0.3461  0.1841  0.4098
   25DOPE   C35 3185   7.792   5.978  15.856 -0.0218 -0.6773 -0.2752
   25DOPE   H5X 3186   7.712   5.901  15.866 -0.7215  0.0267 -0.3539
   25DOPE   H5Y 3187   7.889   5.940  15.893 -0.0065  0.2650  0.6898
   25DOPE   C36 3188   7.816   6.017  15.710  0.0458 -0.1757  0.0556
   25DOPE   H6X 3189   7.875   5.939  15.656  1.5578  0.5687  0.5740
   25DOPE   H6Y 3190   7.879   6.108  15.716  0.6502 -0.6560  1.5058
   25DOPE   C37 3191   7.699   6.051  15.620  0.2697  0.2091  1.1625
   25DOPE   H7X 3192   7.639   5.958  15.616 -2.7907  2.0444  1.3659
   25DOPE   H7Y 3193   7.623   6.122  15.658 -0.0117  0.8078 -0.4485
   25DOPE   C38 3194   7.742   6.081  15.469 -0.5101 -0.6099  0.3057
   25DOPE   H8X 3195   7.816   6.001  15.446 -1.3443 -1.2330 -0.2528
   25DOPE   H8Y 3196   7.798   6.176  15.466 -2.0442  0.3069 -0.5624
   25DOPE   C39 3197   7.633   6.073  15.370  0.4550 -0.3202 -0.0789
   25DOPE   H9X 3198   7.540   6.038  15.416  0.3209 -0.1234 -0.1973
   25DOPE  C310 3199   7.648   6.065  15.235  0.5745  0.0673 -0.4129
   25DOPE  H10X 3200   7.552   6.065  15.182 -0.9985  0.8682  2.2388
   25DOPE  C311 3201   7.776   6.089  15.160  0.0080 -0.2800  0.1971
   25DOPE  H11X 3202   7.830   6.181  15.193 -0.0586 -0.5323  1.0384
   25DOPE  H11Y 3203   7.844   6.001  15.167 -1.4732 -1.4190  0.8728
   25DOPE  C312 3204   7.757   6.102  15.014 -0.2725 -0.0834  0.2516
   25DOPE  H12X 3205   7.839   6.157  14.963  0.8892 -2.1920 -0.2590
   25DOPE  H12Y 3206   7.675   6.175  14.995  2.0303  2.6687  0.3342
   25DOPE  C313 3207   7.730   5.970  14.933  0.4246 -0.2992 -0.3491
   25DOPE  H13X 3208   7.785   5.882  14.972 -0.9998 -1.3523 -0.6375
   25DOPE  H13Y 3209   7.626   5.952  14.965 -0.2890  0.9105 -1.8574
   25DOPE  C314 3210   7.740   5.987  14.784 -0.7308  0.1702 -0.0946
   25DOPE  H14X 3211   7.845   6.012  14.756 -0.6896  0.5934  0.4028
   25DOPE  H14Y 3212   7.678   6.071  14.745  0.6277  0.5897 -1.4372
   25DOPE  C315 3213   7.734   5.851  14.709  0.5348 -0.0599  0.6656
   25DOPE  H15X 3214   7.631   5.808  14.711 -0.1449  1.3740 -1.0008
   25DOPE  H15Y 3215   7.809   5.780  14.750  2.5378  3.2394  3.1328
   25DOPE  C316 3216   7.771   5.857  14.557 -0.5284  0.1715  0.1766
   25DOPE  H16X 3217   7.877   5.882  14.535 -0.8423 -0.2817 -2.1274
   25DOPE  H16Y 3218   7.710   5.936  14.509 -0.5860  0.0059 -0.0263
   25DOPE  C317 3219   7.739   5.726  14.478 -0.7595  0.8110  0.1803
   25DOPE  H17X 3220   7.796   5.650  14.536 -1.8802  0.3328  0.6753
   25DOPE  H17Y 3221   7.630   5.707  14.472 -0.9763  2.4205 -3.1336
   25DOPE  C318 3222   7.795   5.723  14.333  0.5858 -0.4432 -0.2514
   25DOPE  H18X 3223   7.898   5.765  14.328  0.8143 -1.0182 -0.5040
   25DOPE  H18Y 3224   7.786   5.624  14.284 -1.1952 -0.7877  0.6942
   25DOPE  H18Z 3225   7.720   5.784  14.279 -1.0807 -1.8217  0.4289
   26DOPE     N 3226   7.591   6.872  16.769 -0.1360  0.1457  0.4776
   26DOPE   HN1 3227   7.529   6.855  16.850 -1.2032 -1.1575 -0.5707
   26DOPE   HN2 3228   7.569   6.797  16.701 -0.8299 -0.6304  1.5287
   26DOPE   HN3 3229   7.679   6.844  16.816  1.4528  4.0957  0.2003
   26DOPE   C12 3230   7.590   7.014  16.713 -0.2233  0.3634  0.4718
   26DOPE  H12A 3231   7.486   7.047  16.690  0.2248  1.8562  0.4489
   26DOPE  H12B 3232   7.648   7.009  16.618  1.4105  0.0714  1.4461
   26DOPE   C11 3233   7.661   7.116  16.805 -0.1406  0.0764  0.5436
   26DOPE  H11A 3234   7.609   7.121  16.903  0.1752 -0.6472  0.7509
   26DOPE  H11B 3235   7.643   7.216  16.760 -1.7343  0.0954  1.1637
   26DOPE     P 3236   7.918   7.154  16.815  0.1134 -0.0880 -0.3203
   26DOPE   O13 3237   8.021   7.111  16.909  0.1317 -0.9099  0.3963
   26DOPE   O14 3238   7.869   7.294  16.814 -0.3207  0.0305  0.0576
   26DOPE   O11 3239   7.967   7.115  16.676  0.2380 -0.2144 -0.0328
   26DOPE   O12 3240   7.795   7.063  16.827 -0.3832 -0.3802  0.6165
   26DOPE    C1 3241   8.001   6.980  16.642 -0.1073  0.0869 -0.1480
   26DOPE    HA 3242   7.982   6.908  16.725  1.3831  0.0029  0.1456
   26DOPE    HB 3243   8.109   6.965  16.620 -0.2929 -1.1740 -0.3120
   26DOPE    C2 3244   7.932   6.944  16.503 -0.0659 -0.0933 -0.0798
   26DOPE    HS 3245   7.822   6.928  16.513  0.2019 -1.9016  0.4424
   26DOPE   O21 3246   8.007   6.833  16.448 -0.7775 -0.0657  0.0281
   26DOPE   C21 3247   8.003   6.714  16.507  0.1683  0.4320 -0.0811
   26DOPE   O22 3248   7.952   6.697  16.620  0.8136  0.3335  0.2722
   26DOPE   C22 3249   8.080   6.609  16.424 -0.4362 -0.4398 -0.2384
   26DOPE   H2R 3250   8.044   6.506  16.446  0.0030 -0.3583  0.9093
   26DOPE   H2S 3251   8.187   6.611  16.451 -0.5963  1.3622  0.3944
   26DOPE    C3 3252   7.958   7.063  16.399 -0.4626  0.2077  0.7786
   26DOPE    HX 3253   8.066   7.086  16.388 -0.4404 -1.2048 -4.0028
   26DOPE    HY 3254   7.903   7.149  16.445  1.2635  1.3036  0.8871
   26DOPE   O31 3255   7.910   7.028  16.264  0.8305 -0.1288  0.2811
   26DOPE   C31 3256   7.781   7.045  16.234  0.1878 -0.4216 -0.0465
   26DOPE   O32 3257   7.696   7.083  16.313 -0.4618 -0.0759 -0.0863
   26DOPE   C32 3258   7.762   7.025  16.083 -0.2460 -0.5191  0.2228
   26DOPE   H2X 3259   7.669   7.073  16.047  0.0099 -0.0209  0.2149
   26DOPE   H2Y 3260   7.843   7.079  16.028  1.0794 -1.5905  1.0488
   26DOPE   C23 3261   8.069   6.627  16.277  0.1457  0.4691  0.2095
   26DOPE   H3R 3262   8.121   6.716  16.236  0.5546  0.6239  1.0358
   26DOPE   H3S 3263   7.966   6.654  16.245  0.2475  1.7592  0.8877
   26DOPE   C24 3264   8.116   6.504  16.198  0.5408  1.1280  0.2847
   26DOPE   H4R 3265   8.030   6.442  16.165  2.3075 -0.3568 -1.8967
   26DOPE   H4S 3266   8.195   6.443  16.247 -1.2700 -0.6249  1.1829
   26DOPE   C25 3267   8.182   6.539  16.057  0.4799 -0.7814 -0.5353
   26DOPE   H5R 3268   8.201   6.438  16.015  1.3079 -0.7580 -0.2182
   26DOPE   H5S 3269   8.279   6.587  16.080  0.9786 -1.4981 -1.1018
   26DOPE   C26 3270   8.097   6.632  15.973  0.5048  0.1421 -0.0951
   26DOPE   H6R 3271   8.092   6.729  16.027 -0.3262  0.0941 -0.0588
   26DOPE   H6S 3272   7.994   6.590  15.977  0.3912  0.4056 -0.2169
   26DOPE   C27 3273   8.133   6.638  15.822 -0.1273 -0.6422 -0.3084
   26DOPE   H7R 3274   8.232   6.687  15.808  0.2697  0.0408  3.8128
   26DOPE   H7S 3275   8.057   6.699  15.769 -0.1995 -0.1894  0.3160
   26DOPE   C28 3276   8.140   6.498  15.751 -0.0025 -0.2689 -0.7340
   26DOPE   H8R 3277   8.224   6.446  15.802 -1.4359 -2.4302 -0.4755
   26DOPE   H8S 3278   8.158   6.517  15.643 -0.1420 -0.3311 -0.7682
   26DOPE   C29 3279   8.003   6.434  15.761 -0.1152  0.2156 -0.9962
   26DOPE   H9R 3280   7.980   6.385  15.857  1.2104  1.0234 -0.2348
   26DOPE  C210 3281   7.914   6.416  15.659  0.0387 -0.5883 -1.0189
   26DOPE  H10R 3282   7.826   6.353  15.682 -1.0602  1.0226 -0.6388
   26DOPE  C211 3283   7.927   6.462  15.519  0.1078  0.4389  0.0750
   26DOPE  H11R 3284   7.951   6.570  15.519  2.5546 -0.0434 -0.2483
   26DOPE  H11S 3285   7.826   6.441  15.476 -0.7719 -0.4136  2.3646
   26DOPE  C212 3286   8.038   6.388  15.440 -0.2507 -0.3475 -0.5434
   26DOPE  H12R 3287   8.026   6.278  15.428  1.7721 -0.3890 -3.2155
   26DOPE  H12S 3288   8.134   6.380  15.495  0.4411 -2.1187 -1.8994
   26DOPE  C213 3289   8.048   6.450  15.303  0.2104  0.6455 -0.1690
   26DOPE  H13R 3290   8.041   6.560  15.315 -0.2580  0.5350  0.6574
   26DOPE  H13S 3291   7.963   6.413  15.241  0.2852 -0.1505  0.1931
   26DOPE  C214 3292   8.184   6.423  15.230 -0.4136  0.3007 -1.1897
   26DOPE  H14R 3293   8.207   6.314  15.232 -2.7003 -0.2811  2.0383
   26DOPE  H14S 3294   8.267   6.459  15.294  0.1763 -0.2017 -1.6508
   26DOPE  C215 3295   8.206   6.486  15.101 -0.5297  0.1336  0.6493
   26DOPE  H15R 3296   8.191   6.596  15.101  0.0963  0.2404 -0.8932
   26DOPE  H15S 3297   8.140   6.429  15.033  0.3364 -0.3144  0.1723
   26DOPE  C216 3298   8.353   6.476  15.052 -0.3036  0.3351 -0.5517
   26DOPE  H16R 3299   8.377   6.368  15.045  2.7464  0.8412  0.6996
   26DOPE  H16S 3300   8.420   6.518  15.129 -0.9249  1.9528 -0.8603
   26DOPE  C217 3301   8.372   6.544  14.919  0.2282  0.3036  0.1244
   26DOPE  H17R 3302   8.323   6.640  14.892 -0.2495 -0.3976 -1.6448
   26DOPE  H17S 3303   8.325   6.470  14.851 -1.2411  0.7006  0.6692
   26DOPE  C218 3304   8.521   6.560  14.885  0.3351 -0.5388 -0.6570
   26DOPE  H18R 3305   8.563   6.649  14.936  0.6960 -0.9394 -0.2525
   26DOPE  H18S 3306   8.541   6.560  14.776  4.3177 -2.5399 -0.0811
   26DOPE  H18T 3307   8.580   6.471  14.913  1.6024  0.9755  1.8138
   26DOPE   C33 3308   7.769   6.877  16.042  0.4484  0.0465  0.2757
   26DOPE   H3X 3309   7.721   6.815  16.121  0.9391  0.9123  1.2780
   26DOPE   H3Y 3310   7.877   6.851  16.041  0.2633 -0.8284 -1.8667
   26DOPE   C34 3311   7.725   6.831  15.897 -0.4551  0.8273  0.4141
   26DOPE   H4X 3312   7.734   6.720  15.898 -1.0987  0.6757 -2.4144
   26DOPE   H4Y 3313   7.619   6.852  15.873 -0.4310  0.6515  0.1461
   26DOPE   C35 3314   7.819   6.889  15.794  0.0633 -0.1752  0.8678
   26DOPE   H5X 3315   7.923   6.886  15.832  0.1414 -0.2666  0.6514
   26DOPE   H5Y 3316   7.802   6.999  15.796  0.9385 -0.0515  2.0818
   26DOPE   C36 3317   7.834   6.825  15.649  0.6132  0.2648 -1.2531
   26DOPE   H6X 3318   7.733   6.794  15.615 -0.5561  1.8614  0.5299
   26DOPE   H6Y 3319   7.900   6.736  15.657 -0.9809 -0.8955 -0.4574
   26DOPE   C37 3320   7.903   6.930  15.556  0.1624  0.3575  0.5261
   26DOPE   H7X 3321   7.836   7.016  15.534  1.2824  0.9126 -0.8242
   26DOPE   H7Y 3322   7.994   6.967  15.606  0.8405 -0.6454  0.0636
   26DOPE   C38 3323   7.960   6.867  15.429 -0.6714  0.4089  0.1798
   26DOPE   H8X 3324   8.003   6.768  15.454 -3.4330 -0.9480 -0.1121
   26DOPE   H8Y 3325   8.047   6.926  15.392  0.9050 -1.6773  0.3939
   26DOPE   C39 3326   7.849   6.829  15.327 -0.0715 -0.0604 -0.2413
   26DOPE   H9X 3327   7.768   6.764  15.363 -0.0299  1.8302  3.8085
   26DOPE  C310 3328   7.838   6.887  15.204 -0.2046  0.0816  0.3495
   26DOPE  H10X 3329   7.754   6.851  15.142  0.2618 -2.9757  1.2869
   26DOPE  C311 3330   7.942   6.977  15.151 -0.3048 -0.0489  0.2290
   26DOPE  H11X 3331   8.041   6.954  15.195 -0.3695 -0.6456  0.0720
   26DOPE  H11Y 3332   7.943   6.972  15.040 -0.1749 -0.8169  0.2654
   26DOPE  C312 3333   7.912   7.127  15.179  0.1154  0.4126  0.1538
   26DOPE  H12X 3334   8.003   7.186  15.155  0.9720 -1.5726 -1.7261
   26DOPE  H12Y 3335   7.873   7.129  15.283  0.2557 -4.4741  0.5089
   26DOPE  C313 3336   7.799   7.192  15.098  0.1256  0.4133  0.7764
   26DOPE  H13X 3337   7.819   7.179  14.990  0.0663  1.1435  0.6750
   26DOPE  H13Y 3338   7.702   7.144  15.124 -2.3004  2.1012 -3.8794
   26DOPE  C314 3339   7.772   7.334  15.131  0.1390  0.9288  0.0090
   26DOPE  H14X 3340   7.864   7.397  15.127  1.2431 -0.6248 -0.3858
   26DOPE  H14Y 3341   7.732   7.347  15.234 -0.4859 -2.7857  0.3831
   26DOPE  C315 3342   7.680   7.397  15.022  0.2072 -0.3183 -0.1308
   26DOPE  H15X 3343   7.578   7.354  15.030  0.0879  0.0544  0.4133
   26DOPE  H15Y 3344   7.710   7.376  14.917 -0.6446  0.7577 -0.6025
   26DOPE  C316 3345   7.660   7.552  15.050  0.9024  0.3934 -0.0863
   26DOPE  H16X 3346   7.753   7.612  15.037 -0.4835  2.7308  0.3406
   26DOPE  H16Y 3347   7.633   7.566  15.156  2.5741  0.7402  0.3276
   26DOPE  C317 3348   7.546   7.615  14.969  0.4089  0.6371  0.0408
   26DOPE  H17X 3349   7.559   7.575  14.866  0.2853 -2.6116  1.1779
   26DOPE  H17Y 3350   7.448   7.570  14.997  0.7555 -0.3082 -0.2166
   26DOPE  C318 3351   7.542   7.771  14.972 -0.3112  0.3240  0.0173
   26DOPE  H18X 3352   7.540   7.804  15.078  1.3921 -0.8735  0.4625
   26DOPE  H18Y 3353   7.632   7.817  14.925 -0.8647  0.2707 -1.1273
   26DOPE  H18Z 3354   7.454   7.810  14.917 -1.3340 -1.5204  0.2549
   27DOPE     N 3355   5.028   0.514  17.117 -0.1012 -0.2095 -0.0148
   27DOPE   HN1 3356   5.029   0.416  17.152  1.4376 -0.6075 -1.0873
   27DOPE   HN2 3357   5.086   0.559  17.190  0.5851  0.6607 -1.0657
   27DOPE   HN3 3358   4.932   0.556  17.118  0.5643  1.3585  0.3060
   27DOPE   C12 3359   5.099   0.516  16.988 -0.1263 -0.6194  1.1273
   27DOPE  H12A 3360   5.121   0.624  16.976 -1.5514 -0.3083  1.2480
   27DOPE  H12B 3361   5.038   0.476  16.905  3.5419 -2.7121 -0.8420
   27DOPE   C11 3362   5.229   0.441  17.002  0.2628 -0.0206 -0.0281
   27DOPE  H11A 3363   5.287   0.490  17.083 -0.6943 -0.7933  1.1473
   27DOPE  H11B 3364   5.291   0.454  16.910 -2.2777  0.2069 -1.7958
   27DOPE     P 3365   5.223   0.177  16.956 -0.2462  0.2862  0.1738
   27DOPE   O13 3366   5.098   0.157  16.880  0.3748  0.2450 -0.6508
   27DOPE   O14 3367   5.273   0.062  17.036  0.6229  0.4557  0.1167
   27DOPE   O11 3368   5.345   0.209  16.857  0.7472 -0.0197 -0.1633
   27DOPE   O12 3369   5.201   0.309  17.041  0.3920  0.5893 -0.6232
   27DOPE    C1 3370   5.375   0.112  16.760 -0.3832 -0.3950  1.3353
   27DOPE    HA 3371   5.303   0.104  16.676 -0.0873 -1.6316  1.1797
   27DOPE    HB 3372   5.382   0.010  16.804  0.9445 -1.1742 -0.5604
   27DOPE    C2 3373   5.518   0.135  16.701  0.1516  0.2013  0.3978
   27DOPE    HS 3374   5.592   0.122  16.783 -1.1804 -3.4102  1.2079
   27DOPE   O21 3375   5.530   0.267  16.640 -0.1009 -0.4805  0.1685
   27DOPE   C21 3376   5.647   0.299  16.595  0.3481  0.3120 -0.9191
   27DOPE   O22 3377   5.751   0.237  16.618 -0.7336  0.6476  0.5486
   27DOPE   C22 3378   5.631   0.424  16.508  0.5964 -0.2470 -0.1178
   27DOPE   H2R 3379   5.628   0.520  16.564 -1.9294 -0.5443  0.3982
   27DOPE   H2S 3380   5.528   0.418  16.466  1.0010 -1.0841 -1.0184
   27DOPE    C3 3381   5.565   0.012  16.608  0.2127 -0.5987 -0.7381
   27DOPE    HX 3382   5.590  -0.074  16.673  1.2046  0.3784  0.2152
   27DOPE    HY 3383   5.653   0.032  16.543  1.0273  0.2123  0.5658
   27DOPE   O31 3384   5.449  -0.011  16.525 -0.3085  0.2231 -0.0125
   27DOPE   C31 3385   5.460  -0.097  16.430 -0.1387 -0.2360 -0.0449
   27DOPE   O32 3386   5.559  -0.171  16.418  0.4338 -0.2347  0.1516
   27DOPE   C32 3387   5.340  -0.086  16.336  0.2176 -0.3061 -0.1936
   27DOPE   H2X 3388   5.379  -0.114  16.235 -1.0490  0.4844 -0.9372
   27DOPE   H2Y 3389   5.265  -0.161  16.370 -0.2260  1.1053  2.1471
   27DOPE   C23 3390   5.728   0.447  16.392  0.0581  0.2170 -0.4057
   27DOPE   H3R 3391   5.830   0.449  16.437 -0.1371 -0.1755  0.0671
   27DOPE   H3S 3392   5.706   0.543  16.341  0.0348 -0.0698 -0.9443
   27DOPE   C24 3393   5.705   0.336  16.287  0.5129 -0.1290  0.1878
   27DOPE   H4R 3394   5.595   0.337  16.268  0.7416  2.3626 -1.4491
   27DOPE   H4S 3395   5.742   0.240  16.329  0.1329 -0.3374  0.0515
   27DOPE   C25 3396   5.779   0.351  16.148  0.6945 -0.2701 -0.1101
   27DOPE   H5R 3397   5.752   0.452  16.109 -1.2832 -0.6778  0.0890
   27DOPE   H5S 3398   5.745   0.271  16.079  2.2635 -0.3523 -0.8250
   27DOPE   C26 3399   5.928   0.342  16.159 -0.3195 -0.1331 -0.2794
   27DOPE   H6R 3400   5.969   0.241  16.179  0.8141  0.5757  1.0957
   27DOPE   H6S 3401   5.964   0.397  16.248 -0.1223 -0.1401 -0.3539
   27DOPE   C27 3402   6.008   0.380  16.027  0.3165  0.7217 -0.9138
   27DOPE   H7R 3403   6.000   0.490  16.021  1.5527  0.9368  0.6944
   27DOPE   H7S 3404   5.949   0.329  15.948 -1.5669  3.3472 -1.3255
   27DOPE   C28 3405   6.156   0.320  16.030 -0.2124  0.5513  0.6258
   27DOPE   H8R 3406   6.141   0.211  16.049 -0.5099  0.5884  0.6103
   27DOPE   H8S 3407   6.205   0.368  16.118  1.2851  1.4999 -0.6801
   27DOPE   C29 3408   6.236   0.330  15.903 -0.0245 -0.0676  0.9111
   27DOPE   H9R 3409   6.281   0.425  15.871  0.7866 -0.6244  0.3795
   27DOPE  C210 3410   6.264   0.227  15.819  0.3170  0.2301  0.5564
   27DOPE  H10R 3411   6.317   0.246  15.724 -0.3430 -0.6204  0.0084
   27DOPE  C211 3412   6.212   0.089  15.819 -0.2609 -0.3452 -1.0198
   27DOPE  H11R 3413   6.155   0.057  15.910  0.4508  1.0914 -0.0378
   27DOPE  H11S 3414   6.306   0.029  15.820  0.4157  0.5613  2.3126
   27DOPE  C212 3415   6.123   0.040  15.707  0.2792  0.0141 -0.2395
   27DOPE  H12R 3416   6.033   0.105  15.703  0.3637  0.2709  1.3692
   27DOPE  H12S 3417   6.099  -0.067  15.722 -0.5037  0.3775  1.3787
   27DOPE  C213 3418   6.193   0.068  15.572  0.0159 -0.2956 -0.0394
   27DOPE  H13R 3419   6.304   0.069  15.577  0.2426 -2.9574 -1.9737
   27DOPE  H13S 3420   6.172   0.176  15.560  0.1663 -0.2988 -0.3417
   27DOPE  C214 3421   6.140  -0.021  15.455  0.3008 -0.2323 -1.2138
   27DOPE  H14R 3422   6.031  -0.040  15.464  0.0586  1.3689 -0.3796
   27DOPE  H14S 3423   6.177  -0.125  15.470 -0.4980 -0.2282  1.1390
   27DOPE  C215 3424   6.169   0.054  15.323  0.7791  0.2632 -0.1711
   27DOPE  H15R 3425   6.275   0.086  15.318  0.3994  1.3756 -2.3658
   27DOPE  H15S 3426   6.111   0.147  15.339  1.4513  0.8039 -0.8163
   27DOPE  C216 3427   6.138  -0.024  15.201 -0.6172 -0.0782  0.3661
   27DOPE  H16R 3428   6.033  -0.058  15.199 -0.4550 -0.5597 -0.4033
   27DOPE  H16S 3429   6.189  -0.121  15.187 -1.6538 -0.2574 -3.3344
   27DOPE  C217 3430   6.164   0.065  15.081 -0.0966  0.2980  0.3876
   27DOPE  H17R 3431   6.252   0.131  15.094  0.0976 -0.1072  1.2680
   27DOPE  H17S 3432   6.084   0.141  15.068 -0.0207  0.1647 -0.9094
   27DOPE  C218 3433   6.180  -0.026  14.952 -0.0857 -0.7397 -0.0436
   27DOPE  H18R 3434   6.281  -0.067  14.969  0.6910  0.8608 -0.5671
   27DOPE  H18S 3435   6.168   0.039  14.863 -2.1898  0.7069  1.1885
   27DOPE  H18T 3436   6.100  -0.103  14.958 -0.2863 -0.4663  0.8681
   27DOPE   C33 3437   5.289   0.056  16.323 -0.1886 -0.3039 -0.5892
   27DOPE   H3X 3438   5.375   0.115  16.287  1.1176  0.1686  2.8737
   27DOPE   H3Y 3439   5.257   0.105  16.418 -1.4770 -0.9871 -0.6477
   27DOPE   C34 3440   5.168   0.066  16.235  0.2002  0.0181 -0.4355
   27DOPE   H4X 3441   5.188   0.022  16.136 -1.3905 -0.6335 -0.4893
   27DOPE   H4Y 3442   5.082   0.009  16.275  1.1724 -1.8911 -0.9525
   27DOPE   C35 3443   5.121   0.212  16.228  0.4743  0.3555 -0.7257
   27DOPE   H5X 3444   5.200   0.277  16.184  1.6275 -0.0498  0.6778
   27DOPE   H5Y 3445   5.095   0.245  16.331 -2.2434  0.7769 -1.4701
   27DOPE   C36 3446   4.990   0.220  16.149 -0.6965 -0.1190 -0.6302
   27DOPE   H6X 3447   4.904   0.221  16.219 -1.0243  0.6975 -1.0368
   27DOPE   H6Y 3448   4.962   0.131  16.089 -1.8075  1.2878 -2.3030
   27DOPE   C37 3449   4.976   0.349  16.068 -0.0888 -0.5818  0.4606
   27DOPE   H7X 3450   4.954   0.437  16.133 -0.1435  0.5237 -1.0036
   27DOPE   H7Y 3451   5.075   0.374  16.024  0.1354 -1.3363  0.5315
   27DOPE   C38 3452   4.859   0.346  15.964  0.3761 -0.2374  0.6371
   27DOPE   H8X 3453   4.860   0.445  15.912  1.0389 -1.3020 -1.4769
   27DOPE   H8Y 3454   4.760   0.330  16.013 -1.0221  1.0413 -1.6161
   27DOPE   C39 3455   4.880   0.256  15.848  0.0545  0.6995  0.8197
   27DOPE   H9X 3456   4.987   0.235  15.830  0.1247  0.8595  1.0449
   27DOPE  C310 3457   4.790   0.181  15.783  0.0747  0.0791 -0.0595
   27DOPE  H10X 3458   4.823   0.107  15.708  1.5685  0.0826  0.5572
   27DOPE  C311 3459   4.644   0.175  15.804  0.0199 -0.0399  0.3543
   27DOPE  H11X 3460   4.612   0.072  15.830  0.0095 -0.0054  0.4794
   27DOPE  H11Y 3461   4.608   0.226  15.896  1.9962 -2.4594  2.6178
   27DOPE  C312 3462   4.570   0.220  15.683 -0.4040  0.0845  0.6257
   27DOPE  H12X 3463   4.464   0.193  15.698  0.1705 -2.5507  0.5644
   27DOPE  H12Y 3464   4.609   0.177  15.588  0.3064  0.8897  0.5390
   27DOPE  C313 3465   4.576   0.368  15.658 -0.1494 -0.3003  0.5222
   27DOPE  H13X 3466   4.532   0.425  15.743  0.1014  0.3594  0.2153
   27DOPE  H13Y 3467   4.682   0.394  15.639 -0.7008  0.1760 -2.5409
   27DOPE  C314 3468   4.500   0.408  15.526  0.2242  0.1115  0.3466
   27DOPE  H14X 3469   4.400   0.360  15.537 -0.3919  0.6154 -2.4238
   27DOPE  H14Y 3470   4.546   0.364  15.435  2.6239  1.6419  0.7278
   27DOPE  C315 3471   4.502   0.556  15.488 -0.3819 -0.4114 -0.3542
   27DOPE  H15X 3472   4.603   0.597  15.512 -1.4298  1.4417  1.1889
   27DOPE  H15Y 3473   4.424   0.609  15.547 -0.4363 -0.9699  0.0779
   27DOPE  C316 3474   4.478   0.577  15.338  0.3544 -0.4428 -0.8657
   27DOPE  H16X 3475   4.547   0.510  15.284  0.4562  1.0085 -2.6282
   27DOPE  H16Y 3476   4.506   0.681  15.310 -2.0581  0.8052  0.9732
   27DOPE  C317 3477   4.332   0.539  15.306 -0.0541 -0.2481 -0.1816
   27DOPE  H17X 3478   4.301   0.438  15.338 -0.0574 -0.9683 -2.2609
   27DOPE  H17Y 3479   4.276   0.613  15.366  1.5836 -0.4527  1.7007
   27DOPE  C318 3480   4.299   0.554  15.164  0.0411  0.0235  0.2595
   27DOPE  H18X 3481   4.333   0.657  15.138 -1.8485  0.5910 -0.1114
   27DOPE  H18Y 3482   4.358   0.480  15.105  0.6953 -0.8203  1.8978
   27DOPE  H18Z 3483   4.192   0.541  15.138 -0.5390  0.1126  2.4759
   28DOPE     N 3484   6.354   6.853  16.631  1.0717  0.4207  0.3849
   28DOPE   HN1 3485   6.263   6.829  16.588  0.8803  1.8439 -0.0436
   28DOPE   HN2 3486   6.375   6.777  16.699 -0.8272 -0.7323 -0.2405
   28DOPE   HN3 3487   6.347   6.943  16.682 -2.4383 -0.6667  2.1003
   28DOPE   C12 3488   6.473   6.848  16.537  0.4735 -0.1715  0.2356
   28DOPE  H12A 3489   6.464   6.919  16.452  1.1926  0.7110  0.8692
   28DOPE  H12B 3490   6.480   6.742  16.505 -0.6516 -0.4810  0.9902
   28DOPE   C11 3491   6.601   6.883  16.617 -0.3947  0.5373 -0.2046
   28DOPE  H11A 3492   6.591   6.987  16.656  1.3260  0.8654 -0.5644
   28DOPE  H11B 3493   6.690   6.887  16.550 -0.6968  0.2847 -0.6248
   28DOPE     P 3494   6.695   6.652  16.713  0.0067 -0.3978 -0.1146
   28DOPE   O13 3495   6.728   6.599  16.846  0.4108  0.0537  0.6477
   28DOPE   O14 3496   6.806   6.651  16.614 -0.0661  0.3478 -0.3473
   28DOPE   O11 3497   6.569   6.571  16.650 -0.3388 -0.0845 -0.2673
   28DOPE   O12 3498   6.624   6.795  16.728  0.0586  0.0464  0.1429
   28DOPE    C1 3499   6.571   6.446  16.588  0.3308  0.2800  0.2806
   28DOPE    HA 3500   6.504   6.381  16.647  0.0425  1.5139  1.3529
   28DOPE    HB 3501   6.674   6.405  16.581  0.8659  1.6159  0.0755
   28DOPE    C2 3502   6.505   6.457  16.449  0.6260 -0.4880 -0.0623
   28DOPE    HS 3503   6.506   6.358  16.400 -2.2364 -0.7913  0.3235
   28DOPE   O21 3504   6.580   6.550  16.371  0.4248  0.1616 -0.0374
   28DOPE   C21 3505   6.681   6.499  16.305  0.3417  0.5311  0.2706
   28DOPE   O22 3506   6.727   6.384  16.317 -0.5473 -0.2595 -0.0040
   28DOPE   C22 3507   6.740   6.613  16.231 -0.1436  0.2186 -0.0193
   28DOPE   H2R 3508   6.818   6.581  16.160  0.5343 -0.8627  1.1681
   28DOPE   H2S 3509   6.781   6.676  16.313 -1.2884  0.1858  0.6102
   28DOPE    C3 3510   6.352   6.487  16.442  0.0179 -0.4187  0.2772
   28DOPE    HX 3511   6.335   6.585  16.492 -1.8681  0.0089 -1.0866
   28DOPE    HY 3512   6.296   6.412  16.503 -1.4179 -1.1888 -1.8646
   28DOPE   O31 3513   6.287   6.482  16.315  0.0099 -0.3574 -0.1997
   28DOPE   C31 3514   6.292   6.589  16.250 -0.3009  0.7427 -0.2430
   28DOPE   O32 3515   6.315   6.700  16.289 -0.7273  0.3140  0.3458
   28DOPE   C32 3516   6.247   6.553  16.100  0.4041  0.4651 -0.9392
   28DOPE   H2X 3517   6.332   6.501  16.052  1.3217  1.2081 -0.1612
   28DOPE   H2Y 3518   6.155   6.490  16.100 -1.0996  2.4373  1.7185
   28DOPE   C23 3519   6.634   6.692  16.152 -0.6283  0.0668 -0.1051
   28DOPE   H3R 3520   6.554   6.727  16.221  0.6178  0.3849  1.2459
   28DOPE   H3S 3521   6.590   6.622  16.078 -0.9329  0.3784 -0.2181
   28DOPE   C24 3522   6.694   6.817  16.078  0.4796  0.3097 -0.3767
   28DOPE   H4R 3523   6.781   6.790  16.013  0.8157  2.1785 -0.7453
   28DOPE   H4S 3524   6.739   6.888  16.151  1.0612  0.4890 -0.8978
   28DOPE   C25 3525   6.602   6.888  15.985  0.3972  0.4604  0.1875
   28DOPE   H5R 3526   6.546   6.810  15.929  2.2317 -3.7637  3.6751
   28DOPE   H5S 3527   6.657   6.958  15.919  0.1718  0.6655  0.2165
   28DOPE   C26 3528   6.487   6.969  16.059  0.0700 -0.1349 -0.4268
   28DOPE   H6R 3529   6.528   7.045  16.130 -3.1500  1.5561 -0.2241
   28DOPE   H6S 3530   6.434   6.893  16.121  1.5692 -0.2207  0.8214
   28DOPE   C27 3531   6.375   7.041  15.979 -0.2359 -0.2313 -0.1590
   28DOPE   H7R 3532   6.311   6.968  15.924 -1.1266 -0.1408  0.7263
   28DOPE   H7S 3533   6.427   7.105  15.905 -1.4404 -0.0717 -0.8947
   28DOPE   C28 3534   6.288   7.138  16.059 -0.3587 -0.0429 -0.7270
   28DOPE   H8R 3535   6.235   7.205  15.988  0.1624  0.8583 -0.2876
   28DOPE   H8S 3536   6.336   7.210  16.129 -0.8041 -0.8635  0.4497
   28DOPE   C29 3537   6.182   7.058  16.133  0.1430 -0.3062 -0.4442
   28DOPE   H9R 3538   6.224   7.008  16.221 -1.1728 -0.4163  0.1495
   28DOPE  C210 3539   6.049   7.054  16.112  0.4671  0.2075  0.3803
   28DOPE  H10R 3540   5.987   6.983  16.168 -1.4527  0.2051 -1.5942
   28DOPE  C211 3541   5.983   7.131  16.000 -0.5877 -0.0233 -1.0428
   28DOPE  H11R 3542   6.057   7.179  15.933  0.7071 -0.0925  0.2876
   28DOPE  H11S 3543   5.919   7.210  16.044  1.2560  0.2178  1.4029
   28DOPE  C212 3544   5.886   7.049  15.914  0.2454 -0.4435 -0.3051
   28DOPE  H12R 3545   5.821   6.997  15.988  0.3779 -0.9579 -0.5422
   28DOPE  H12S 3546   5.940   6.974  15.853 -0.8851 -0.7879 -0.9138
   28DOPE  C213 3547   5.805   7.133  15.812  1.0661 -0.7154  0.1584
   28DOPE  H13R 3548   5.742   7.201  15.873 -0.2643 -1.0756 -0.7792
   28DOPE  H13S 3549   5.738   7.053  15.774 -0.0979 -1.6887  3.8173
   28DOPE  C214 3550   5.883   7.215  15.706 -0.2667 -0.6887  0.1225
   28DOPE  H14R 3551   5.945   7.141  15.652 -2.2857 -2.0389 -0.4826
   28DOPE  H14S 3552   5.931   7.301  15.757 -1.3693  0.2554 -0.3760
   28DOPE  C215 3553   5.786   7.275  15.596 -1.2951  0.7634 -0.2976
   28DOPE  H15R 3554   5.714   7.343  15.647 -1.3363 -0.0842  0.8165
   28DOPE  H15S 3555   5.734   7.189  15.549 -0.2362  0.9976 -1.9855
   28DOPE  C216 3556   5.855   7.340  15.474  0.1888  0.0983 -0.2766
   28DOPE  H16R 3557   5.956   7.378  15.500  0.3712 -1.2692  1.2471
   28DOPE  H16S 3558   5.790   7.425  15.443  1.7065  1.1804 -0.5623
   28DOPE  C217 3559   5.874   7.259  15.352 -0.6332  0.9722 -0.0975
   28DOPE  H17R 3560   5.783   7.224  15.299  0.3796 -2.0328 -0.0846
   28DOPE  H17S 3561   5.930   7.168  15.383 -1.6089  0.5016  0.3342
   28DOPE  C218 3562   5.968   7.340  15.262 -0.0467  0.4855  0.6445
   28DOPE  H18R 3563   5.929   7.444  15.257  0.6480  0.9719  3.3832
   28DOPE  H18S 3564   5.966   7.295  15.161 -0.4413  2.6967 -0.3839
   28DOPE  H18T 3565   6.075   7.334  15.291  0.4522 -1.8502 -1.3841
   28DOPE   C33 3566   6.218   6.672  16.012  0.3053 -0.0296 -0.0730
   28DOPE   H3X 3567   6.321   6.698  15.978  0.4027 -0.4160 -0.0858
   28DOPE   H3Y 3568   6.173   6.754  16.072  0.0198 -0.5550  0.4417
   28DOPE   C34 3569   6.123   6.630  15.894  0.0924  0.4646  0.3043
   28DOPE   H4X 3570   6.151   6.528  15.860  1.0929 -0.3357  3.2811
   28DOPE   H4Y 3571   6.020   6.624  15.935  0.0239 -2.5061 -0.0931
   28DOPE   C35 3572   6.116   6.724  15.766 -0.5196  0.2439 -0.4361
   28DOPE   H5X 3573   6.208   6.699  15.709 -0.4960 -3.8408  1.0680
   28DOPE   H5Y 3574   6.131   6.829  15.797  2.3696 -0.3797  0.6497
   28DOPE   C36 3575   5.984   6.703  15.689 -0.0456 -0.0554  0.1967
   28DOPE   H6X 3576   5.895   6.710  15.756  0.7355  2.0312  1.1237
   28DOPE   H6Y 3577   5.991   6.600  15.648 -1.5536 -0.0141 -0.2136
   28DOPE   C37 3578   5.976   6.806  15.574 -0.0430 -0.0833  0.1445
   28DOPE   H7X 3579   5.962   6.904  15.625 -3.0598  0.3627 -1.3192
   28DOPE   H7Y 3580   6.074   6.806  15.521 -0.0806  1.9902 -0.0312
   28DOPE   C38 3581   5.855   6.769  15.483  0.3955 -0.2532 -0.3869
   28DOPE   H8X 3582   5.764   6.786  15.544 -0.6593 -0.7218 -1.7578
   28DOPE   H8Y 3583   5.845   6.660  15.465 -0.8658 -0.2696  0.2760
   28DOPE   C39 3584   5.854   6.844  15.352  0.1004  0.2951  0.5180
   28DOPE   H9X 3585   5.778   6.923  15.342  0.5331  0.5697 -0.7901
   28DOPE  C310 3586   5.921   6.822  15.237  0.1689 -0.2768 -0.3193
   28DOPE  H10X 3587   5.925   6.902  15.162 -2.4758  0.6983  0.4403
   28DOPE  C311 3588   6.006   6.704  15.205 -0.4306 -0.1791 -0.5504
   28DOPE  H11X 3589   6.116   6.717  15.214  0.1554 -4.2722  0.2736
   28DOPE  H11Y 3590   5.987   6.615  15.269  0.2038 -0.8348 -1.2594
   28DOPE  C312 3591   5.987   6.661  15.057 -0.0352  0.3358 -0.1674
   28DOPE  H12X 3592   5.991   6.748  14.988 -2.1477  1.3065  0.8442
   28DOPE  H12Y 3593   5.892   6.605  15.047  1.2422 -2.0149  0.0074
   28DOPE  C313 3594   6.084   6.557  15.006 -1.1536  1.1064  0.8086
   28DOPE  H13X 3595   6.190   6.590  14.998 -0.3675 -1.2332  0.8488
   28DOPE  H13Y 3596   6.097   6.475  15.080  1.5659 -0.0046 -0.7124
   28DOPE  C314 3597   6.043   6.498  14.871 -0.1764  0.3615 -0.3073
   28DOPE  H14X 3598   6.032   6.586  14.803 -5.1829 -0.9504 -1.5707
   28DOPE  H14Y 3599   5.938   6.464  14.872  0.0596 -0.3948  1.0871
   28DOPE  C315 3600   6.142   6.391  14.807  0.4594 -0.1246 -0.1461
   28DOPE  H15X 3601   6.163   6.311  14.882  1.6826 -0.5397 -0.9043
   28DOPE  H15Y 3602   6.240   6.435  14.778 -0.3593  1.5826 -0.4306
   28DOPE  C316 3603   6.089   6.333  14.674  0.3692 -0.2610  0.9577
   28DOPE  H16X 3604   6.084   6.418  14.603  0.3719 -0.4494  0.7308
   28DOPE  H16Y 3605   5.988   6.289  14.688 -0.5798  0.9633 -1.4701
   28DOPE  C317 3606   6.183   6.229  14.603  1.1385 -0.1710 -0.1922
   28DOPE  H17X 3607   6.287   6.267  14.596  0.1939  2.7004 -0.0488
   28DOPE  H17Y 3608   6.202   6.140  14.666  0.4907  0.9209  1.6340
   28DOPE  C318 3609   6.153   6.206  14.450  0.2918 -0.1309 -0.2947
   28DOPE  H18X 3610   6.223   6.128  14.412 -0.1619 -1.3405  1.2695
   28DOPE  H18Y 3611   6.053   6.161  14.436 -0.1208  0.6852  0.0149
   28DOPE  H18Z 3612   6.172   6.302  14.397 -2.5193  0.4985 -0.2889
   29DOPE     N 3613   6.648   1.083  17.121 -1.0233  0.6595  0.4129
   29DOPE   HN1 3614   6.594   0.997  17.102  2.5625 -1.3696 -1.6569
   29DOPE   HN2 3615   6.634   1.106  17.221  0.2447  0.8363  0.5661
   29DOPE   HN3 3616   6.596   1.149  17.060 -0.1088  0.2722 -0.8198
   29DOPE   C12 3617   6.793   1.080  17.088 -0.2267 -0.4052 -0.0059
   29DOPE  H12A 3618   6.837   1.182  17.098 -1.1059 -0.0305  0.0818
   29DOPE  H12B 3619   6.816   1.055  16.983 -0.6385  0.2717 -0.2623
   29DOPE   C11 3620   6.874   0.989  17.182 -0.1441  0.6487 -0.2629
   29DOPE  H11A 3621   6.842   1.004  17.288 -0.4635 -1.4670 -0.0160
   29DOPE  H11B 3622   6.977   1.030  17.185 -0.0980  0.4994  0.5905
   29DOPE     P 3623   7.004   0.779  17.077  0.5182 -0.1691  0.0955
   29DOPE   O13 3624   6.969   0.643  17.041 -0.4598 -0.0297 -0.2843
   29DOPE   O14 3625   7.119   0.786  17.166  0.0519  0.1655  0.0028
   29DOPE   O11 3626   7.039   0.869  16.955  0.5689  0.5874 -0.1036
   29DOPE   O12 3627   6.868   0.845  17.144 -0.3733 -0.1017  0.3420
   29DOPE    C1 3628   6.978   0.866  16.832 -0.1647 -0.5250 -0.1823
   29DOPE    HA 3629   6.937   0.967  16.813  0.8583 -0.0396  0.1228
   29DOPE    HB 3630   6.890   0.800  16.821 -0.7539  0.4725 -1.7951
   29DOPE    C2 3631   7.082   0.838  16.722 -0.3312  0.4075 -0.4445
   29DOPE    HS 3632   7.141   0.754  16.766 -0.5921 -0.0299 -0.9225
   29DOPE   O21 3633   7.162   0.959  16.698  0.2953 -0.3997  0.1332
   29DOPE   C21 3634   7.296   0.933  16.675  0.4429  0.1402 -0.7284
   29DOPE   O22 3635   7.342   0.826  16.660  0.2969  0.5245  0.2802
   29DOPE   C22 3636   7.371   1.067  16.688 -0.5596  0.0896 -0.0503
   29DOPE   H2R 3637   7.436   1.064  16.778 -0.0663  1.2264 -0.3518
   29DOPE   H2S 3638   7.296   1.149  16.688  0.2442  0.8708  2.1051
   29DOPE    C3 3639   7.011   0.781  16.594  0.4350  0.2433 -0.3399
   29DOPE    HX 3640   6.944   0.864  16.562 -0.4514 -0.2128  0.2753
   29DOPE    HY 3641   6.953   0.689  16.618  1.9593 -0.8930 -0.9070
   29DOPE   O31 3642   7.099   0.753  16.482  0.1059 -0.0371  0.6600
   29DOPE   C31 3643   7.160   0.632  16.470 -0.3277 -0.0938 -0.0522
   29DOPE   O32 3644   7.152   0.550  16.560  0.0614  0.1464  0.0446
   29DOPE   C32 3645   7.232   0.623  16.336  0.8472  0.0610 -0.0794
   29DOPE   H2X 3646   7.281   0.523  16.345  1.7927  0.5714  0.5818
   29DOPE   H2Y 3647   7.155   0.608  16.257 -0.4924  0.7886  1.0508
   29DOPE   C23 3648   7.472   1.091  16.569  0.6071 -0.7480 -0.4094
   29DOPE   H3R 3649   7.411   1.065  16.479 -0.4112  3.2744 -1.0774
   29DOPE   H3S 3650   7.556   1.022  16.592  0.7988 -0.7171 -0.9908
   29DOPE   C24 3651   7.526   1.232  16.555  0.7552 -0.8042  0.0296
   29DOPE   H4R 3652   7.560   1.270  16.653  2.1755  1.3925 -1.2283
   29DOPE   H4S 3653   7.440   1.292  16.518  1.6122  0.2332 -0.3419
   29DOPE   C25 3654   7.639   1.226  16.459 -0.3477  0.8131 -0.5804
   29DOPE   H5R 3655   7.723   1.163  16.496  0.3773  1.5479 -0.9516
   29DOPE   H5S 3656   7.701   1.318  16.455  1.1557 -0.1323 -0.1240
   29DOPE   C26 3657   7.601   1.159  16.322  0.3978  0.3525 -0.4901
   29DOPE   H6R 3658   7.502   1.191  16.283 -0.8526 -2.8644 -0.2661
   29DOPE   H6S 3659   7.596   1.049  16.339  0.0707  0.5219  0.5897
   29DOPE   C27 3660   7.699   1.192  16.214 -0.1713  0.0101  0.7100
   29DOPE   H7R 3661   7.801   1.170  16.253  0.3852 -1.1957 -1.3074
   29DOPE   H7S 3662   7.702   1.302  16.195 -2.2258  0.2147  1.2635
   29DOPE   C28 3663   7.679   1.130  16.078 -0.0763 -0.0949  0.6697
   29DOPE   H8R 3664   7.570   1.133  16.057  0.3234  1.4940 -1.5235
   29DOPE   H8S 3665   7.696   1.021  16.081 -0.9184 -0.3669 -1.9105
   29DOPE   C29 3666   7.751   1.194  15.962 -0.0661 -0.1785  0.1432
   29DOPE   H9R 3667   7.845   1.242  15.992 -0.2970  1.9428 -2.1928
   29DOPE  C210 3668   7.726   1.169  15.831 -0.2239  0.0723 -0.1645
   29DOPE  H10R 3669   7.815   1.182  15.767  0.4545  0.2035  0.7818
   29DOPE  C211 3670   7.617   1.087  15.780  0.0549  0.7805 -0.7033
   29DOPE  H11R 3671   7.525   1.142  15.751 -0.3915  0.6513  0.4291
   29DOPE  H11S 3672   7.587   1.019  15.862  1.4282  1.6286  0.5537
   29DOPE  C212 3673   7.656   1.004  15.659 -0.1166  0.6801  0.4159
   29DOPE  H12R 3674   7.578   0.928  15.640  0.7827  0.0696 -1.0463
   29DOPE  H12S 3675   7.744   0.943  15.689  0.2340  1.5713  1.2419
   29DOPE  C213 3676   7.670   1.076  15.525  0.0676  0.5465 -0.0882
   29DOPE  H13R 3677   7.722   1.172  15.549 -0.6978  1.2874 -1.2995
   29DOPE  H13S 3678   7.569   1.107  15.492 -0.9363 -1.3694  0.9741
   29DOPE  C214 3679   7.726   0.996  15.414 -0.0541 -0.5942 -0.4507
   29DOPE  H14R 3680   7.667   0.904  15.398 -1.4915 -0.7693  4.3453
   29DOPE  H14S 3681   7.829   0.969  15.446  0.0839  0.7496  0.3403
   29DOPE  C215 3682   7.724   1.069  15.281 -0.0324 -0.4020  0.1567
   29DOPE  H15R 3683   7.762   1.173  15.290 -2.7901  0.7443 -0.5379
   29DOPE  H15S 3684   7.617   1.082  15.255  0.0884  0.9882  0.2943
   29DOPE  C216 3685   7.805   0.995  15.176  0.7273 -0.1090  0.0892
   29DOPE  H16R 3686   7.773   0.890  15.166 -1.9222  0.3743  2.1698
   29DOPE  H16S 3687   7.914   1.003  15.193  0.5417  0.7743  0.9824
   29DOPE  C217 3688   7.789   1.063  15.039  0.4057 -0.1524 -0.3593
   29DOPE  H17R 3689   7.828   1.167  15.043  2.3552 -0.8477 -0.2005
   29DOPE  H17S 3690   7.681   1.078  15.018  0.5763  0.3307 -0.9038
   29DOPE  C218 3691   7.867   0.988  14.932  0.9966 -0.0859  0.3990
   29DOPE  H18R 3692   7.867   1.052  14.842  2.7959 -0.5100  0.0664
   29DOPE  H18S 3693   7.830   0.886  14.911  2.3254 -1.0179  2.3175
   29DOPE  H18T 3694   7.975   0.988  14.956  1.6434 -0.2140 -2.2444
   29DOPE   C33 3695   7.334   0.731  16.309  0.8722  0.0463  0.6281
   29DOPE   H3X 3696   7.302   0.836  16.328  0.3216  0.0362 -0.1941
   29DOPE   H3Y 3697   7.354   0.733  16.199  0.1508 -1.1678  0.4574
   29DOPE   C34 3698   7.471   0.710  16.372  0.6752 -0.7843  0.0308
   29DOPE   H4X 3699   7.528   0.804  16.355 -2.5416  0.9970 -1.9085
   29DOPE   H4Y 3700   7.450   0.705  16.481 -2.5801 -1.2266 -0.5163
   29DOPE   C35 3701   7.548   0.577  16.335  0.0035 -1.0627 -0.7044
   29DOPE   H5X 3702   7.544   0.556  16.226 -0.1881  1.0100 -1.1509
   29DOPE   H5Y 3703   7.482   0.499  16.378 -1.3713 -0.4433 -1.6189
   29DOPE   C36 3704   7.695   0.562  16.387 -0.8480 -0.0043  0.3181
   29DOPE   H6X 3705   7.733   0.469  16.341 -0.8566  1.0594 -1.9872
   29DOPE   H6Y 3706   7.687   0.556  16.498 -4.3649 -0.8156  0.1501
   29DOPE   C37 3707   7.794   0.675  16.361 -0.1120  0.0928  0.2811
   29DOPE   H7X 3708   7.769   0.770  16.413 -0.9720  1.0635 -1.7611
   29DOPE   H7Y 3709   7.899   0.646  16.381 -0.2890 -0.1236  0.8911
   29DOPE   C38 3710   7.803   0.717  16.208 -0.2929 -0.2412 -0.3965
   29DOPE   H8X 3711   7.842   0.821  16.209 -0.5171 -0.1576 -0.4685
   29DOPE   H8Y 3712   7.702   0.729  16.164  0.7596  1.5744 -2.4820
   29DOPE   C39 3713   7.879   0.623  16.123  0.0347 -0.7065  0.0778
   29DOPE   H9X 3714   7.848   0.518  16.132 -4.0237  0.2235 -1.0676
   29DOPE  C310 3715   7.984   0.660  16.048 -0.6025  0.4879  0.2227
   29DOPE  H10X 3716   8.032   0.580  15.989 -0.1345  0.0360  1.1996
   29DOPE  C311 3717   8.043   0.800  16.026 -0.9513  0.4551 -0.0754
   29DOPE  H11X 3718   7.991   0.871  16.093 -0.5202 -0.6397  1.4552
   29DOPE  H11Y 3719   8.150   0.808  16.055 -0.6210  0.9746 -1.3405
   29DOPE  C312 3720   8.015   0.845  15.881 -0.7182  0.5009 -0.7326
   29DOPE  H12X 3721   8.030   0.955  15.880 -0.6044  0.6004  2.2232
   29DOPE  H12Y 3722   7.909   0.836  15.850 -0.4500 -1.7393 -1.1359
   29DOPE  C313 3723   8.097   0.771  15.778 -0.0523  0.1316  0.0784
   29DOPE  H13X 3724   8.201   0.794  15.808 -1.0002  0.9102  3.1993
   29DOPE  H13Y 3725   8.088   0.662  15.764 -1.0009  0.3392 -1.0893
   29DOPE  C314 3726   8.062   0.820  15.641  0.6371  0.3669  0.0033
   29DOPE  H14X 3727   8.066   0.931  15.655 -1.9082  0.1148  4.7503
   29DOPE  H14Y 3728   7.961   0.786  15.610  0.2298  0.4106  1.2149
   29DOPE  C315 3729   8.163   0.770  15.537  0.1508  0.0640 -0.0988
   29DOPE  H15X 3730   8.177   0.660  15.533  2.1877  0.3243 -1.1451
   29DOPE  H15Y 3731   8.256   0.827  15.557 -0.0074  0.1591  0.3928
   29DOPE  C316 3732   8.121   0.810  15.396  0.2331  0.0708  0.5182
   29DOPE  H16X 3733   8.206   0.786  15.328  0.1430  1.4890 -0.1335
   29DOPE  H16Y 3734   8.091   0.916  15.407  0.5077  0.2818 -0.6654
   29DOPE  C317 3735   7.994   0.732  15.333 -0.5884  0.0040 -0.6969
   29DOPE  H17X 3736   7.907   0.735  15.401 -0.0131 -0.7134  0.0892
   29DOPE  H17Y 3737   7.968   0.789  15.241  0.0506 -0.7716 -1.3697
   29DOPE  C318 3738   8.027   0.588  15.298 -0.0530 -0.1910  0.5570
   29DOPE  H18X 3739   7.934   0.529  15.317 -1.1841  0.9559 -1.0889
   29DOPE  H18Y 3740   8.062   0.571  15.194 -2.2027 -1.5444 -0.0124
   29DOPE  H18Z 3741   8.112   0.550  15.359  0.6756 -2.3120 -1.6097
   30DOPE     N 3742   7.287   7.264  17.162 -0.5636  0.7738  0.7526
   30DOPE   HN1 3743   7.391   7.271  17.165 -0.2533 -0.9853 -2.0309
   30DOPE   HN2 3744   7.253   7.275  17.064 -1.6328  0.1583  1.0373
   30DOPE   HN3 3745   7.238   7.330  17.225 -2.8081 -0.2079  0.1500
   30DOPE   C12 3746   7.254   7.123  17.200 -0.2247 -0.0068  0.3990
   30DOPE  H12A 3747   7.214   7.129  17.304 -0.9468  0.2965  0.1121
   30DOPE  H12B 3748   7.351   7.069  17.193  0.3596  0.5490  2.9394
   30DOPE   C11 3749   7.153   7.062  17.108 -0.3618  0.3608 -0.4141
   30DOPE  H11A 3750   7.136   6.962  17.153  0.5070  1.3554  2.3523
   30DOPE  H11B 3751   7.196   7.051  17.007  2.1042  0.2757  0.5805
   30DOPE     P 3752   6.893   7.103  17.137  0.0305 -0.2068  0.5472
   30DOPE   O13 3753   6.837   7.206  17.229 -0.3841 -0.5855  0.3844
   30DOPE   O14 3754   6.890   6.964  17.184 -0.0346 -0.2083 -0.3388
   30DOPE   O11 3755   6.814   7.111  16.993 -0.3175  0.8698  0.3200
   30DOPE   O12 3756   7.039   7.150  17.100 -0.2275  0.2615  0.4341
   30DOPE    C1 3757   6.874   7.046  16.876  0.2870  0.2123 -0.9615
   30DOPE    HA 3758   6.800   6.971  16.840  1.2576 -1.7716  0.9378
   30DOPE    HB 3759   6.968   6.992  16.900 -0.5939 -1.1117 -0.3617
   30DOPE    C2 3760   6.899   7.145  16.755 -0.3647  0.5558 -0.1681
   30DOPE    HS 3761   6.977   7.217  16.786 -0.7783  0.6139  0.7473
   30DOPE   O21 3762   6.783   7.212  16.714 -0.3044  0.5618  0.4552
   30DOPE   C21 3763   6.792   7.334  16.680 -0.0031 -0.1945 -0.5667
   30DOPE   O22 3764   6.893   7.406  16.676 -0.3112 -0.5268  0.1693
   30DOPE   C22 3765   6.652   7.391  16.641  0.3210 -0.2439 -0.5159
   30DOPE   H2R 3766   6.670   7.475  16.570  1.3046 -0.6380 -0.7434
   30DOPE   H2S 3767   6.621   7.450  16.731  1.1609  0.0492 -0.4073
   30DOPE    C3 3768   6.954   7.066  16.632 -0.3806  1.2890  0.1131
   30DOPE    HX 3769   6.873   6.999  16.597 -1.2046  2.5597 -0.4891
   30DOPE    HY 3770   7.031   6.991  16.660 -1.8161 -0.8419 -1.3582
   30DOPE   O31 3771   6.998   7.154  16.523 -0.0091  0.3883  0.3788
   30DOPE   C31 3772   7.130   7.187  16.547  0.2838  0.1870 -0.0388
   30DOPE   O32 3773   7.202   7.147  16.637 -0.0019 -0.2092  0.4866
   30DOPE   C32 3774   7.171   7.276  16.436 -0.3128  0.3770  0.2978
   30DOPE   H2X 3775   7.177   7.227  16.337  1.1016 -0.3403  0.7066
   30DOPE   H2Y 3776   7.103   7.362  16.424 -0.3400  0.2903 -0.1728
   30DOPE   C23 3777   6.558   7.291  16.570  0.5929  0.1424 -0.0416
   30DOPE   H3R 3778   6.462   7.304  16.624  0.0944 -2.4323 -0.1679
   30DOPE   H3S 3779   6.585   7.187  16.597 -1.8511 -0.6181 -0.2633
   30DOPE   C24 3780   6.525   7.312  16.418  0.1347 -0.0842 -0.4691
   30DOPE   H4R 3781   6.514   7.423  16.411 -0.0142 -0.0265  0.5476
   30DOPE   H4S 3782   6.431   7.262  16.386  0.1342 -0.6289  0.3715
   30DOPE   C25 3783   6.638   7.266  16.325  0.1541 -0.6072 -0.2048
   30DOPE   H5R 3784   6.611   7.266  16.217  1.2330 -1.9006 -0.5050
   30DOPE   H5S 3785   6.650   7.158  16.350  1.8712 -0.0208  1.7449
   30DOPE   C26 3786   6.768   7.342  16.335  0.0971  0.5560  0.0536
   30DOPE   H6R 3787   6.825   7.310  16.424  0.5847 -1.3065 -0.8815
   30DOPE   H6S 3788   6.752   7.452  16.341  2.9018  1.2840 -2.8790
   30DOPE   C27 3789   6.861   7.318  16.208  0.2098  0.3954 -1.0553
   30DOPE   H7R 3790   6.953   7.362  16.252 -0.0351 -0.7764  0.7368
   30DOPE   H7S 3791   6.817   7.377  16.125 -2.3212  0.5167  0.2841
   30DOPE   C28 3792   6.901   7.173  16.167  0.4967  0.6658  0.0330
   30DOPE   H8R 3793   6.816   7.116  16.123 -0.7261  1.5892  1.1241
   30DOPE   H8S 3794   6.923   7.104  16.252  0.7626 -1.4317 -1.6382
   30DOPE   C29 3795   7.029   7.163  16.092  0.0739  0.2935  0.0010
   30DOPE   H9R 3796   7.108   7.101  16.137 -0.3790 -1.9512 -2.0619
   30DOPE  C210 3797   7.048   7.190  15.957 -0.3067  0.7623 -0.0452
   30DOPE  H10R 3798   7.140   7.151  15.912  0.1394  1.1423  0.5072
   30DOPE  C211 3799   6.951   7.254  15.868  0.2021 -0.0395  0.1753
   30DOPE  H11R 3800   7.007   7.316  15.795 -0.0637  0.6940  0.5852
   30DOPE  H11S 3801   6.874   7.307  15.928  0.8887  0.1528  0.8924
   30DOPE  C212 3802   6.876   7.141  15.791  0.2783  0.1448  0.3281
   30DOPE  H12R 3803   6.813   7.085  15.864 -0.2954  1.9231  1.2658
   30DOPE  H12S 3804   6.947   7.068  15.747 -0.9630 -0.3270 -0.9797
   30DOPE  C213 3805   6.787   7.198  15.678  0.0927 -0.6313  0.2752
   30DOPE  H13R 3806   6.738   7.118  15.619  0.6597 -0.7051 -0.0993
   30DOPE  H13S 3807   6.861   7.254  15.616  2.2884  0.3040  3.4781
   30DOPE  C214 3808   6.679   7.294  15.738 -0.2725  0.1017 -0.7507
   30DOPE  H14R 3809   6.720   7.389  15.777 -0.4762 -0.6598  1.4583
   30DOPE  H14S 3810   6.630   7.241  15.822 -0.7568  0.7699 -0.6125
   30DOPE  C215 3811   6.571   7.327  15.634  0.6505 -0.3417 -0.0305
   30DOPE  H15R 3812   6.560   7.234  15.574  0.3962 -1.7048  2.0462
   30DOPE  H15S 3813   6.601   7.415  15.573 -0.3499 -0.3466 -0.5565
   30DOPE  C216 3814   6.438   7.356  15.704  0.2045 -0.4872  0.1734
   30DOPE  H16R 3815   6.453   7.456  15.749 -0.1384  0.6484 -2.0697
   30DOPE  H16S 3816   6.417   7.282  15.784 -1.3324  1.2889  1.5049
   30DOPE  C217 3817   6.315   7.360  15.609 -0.0729 -0.1598  0.5993
   30DOPE  H17R 3818   6.337   7.396  15.506  0.8419 -0.3776  0.7130
   30DOPE  H17S 3819   6.262   7.444  15.659  0.7648  1.1338 -0.5795
   30DOPE  C218 3820   6.231   7.227  15.607  0.3362  0.8558 -0.6079
   30DOPE  H18R 3821   6.279   7.143  15.553 -0.0632 -0.0197  0.3515
   30DOPE  H18S 3822   6.140   7.243  15.545 -0.0956 -1.1886 -0.5738
   30DOPE  H18T 3823   6.200   7.205  15.712  1.8319  2.1606  0.1521
   30DOPE   C33 3824   7.309   7.337  16.455  0.2745 -0.1372 -0.6807
   30DOPE   H3X 3825   7.388   7.259  16.445  0.7780  0.2951 -0.1360
   30DOPE   H3Y 3826   7.316   7.365  16.562  0.7111 -0.2863 -0.6662
   30DOPE   C34 3827   7.343   7.451  16.363  0.1037 -0.3924 -0.3546
   30DOPE   H4X 3828   7.264   7.528  16.378 -1.1963 -1.6772 -0.4513
   30DOPE   H4Y 3829   7.434   7.509  16.394 -0.0582 -0.9267  1.2265
   30DOPE   C35 3830   7.364   7.406  16.221 -0.2828  0.2892 -0.4663
   30DOPE   H5X 3831   7.363   7.502  16.165  0.1590  0.4841 -0.1481
   30DOPE   H5Y 3832   7.273   7.354  16.186 -0.1609  0.0573 -0.4421
   30DOPE   C36 3833   7.498   7.337  16.196  0.5966 -0.1131  0.0045
   30DOPE   H6X 3834   7.471   7.229  16.204 -2.3863  0.5612  0.1134
   30DOPE   H6Y 3835   7.566   7.355  16.283 -0.7722 -3.4591  1.9694
   30DOPE   C37 3836   7.551   7.362  16.051  0.2720 -0.2212  0.0476
   30DOPE   H7X 3837   7.570   7.471  16.046 -1.1594  0.0797  0.7416
   30DOPE   H7Y 3838   7.645   7.304  16.041  0.6092  0.6620 -2.8141
   30DOPE   C38 3839   7.464   7.307  15.928 -0.1530 -0.0093  0.1957
   30DOPE   H8X 3840   7.526   7.326  15.838 -1.5590 -0.3964 -0.8984
   30DOPE   H8Y 3841   7.365   7.358  15.919  0.9578  2.0093 -1.5524
   30DOPE   C39 3842   7.442   7.159  15.943  0.1269  0.0350  0.1279
   30DOPE   H9X 3843   7.407   7.123  16.041  0.9228 -2.5963 -0.4882
   30DOPE  C310 3844   7.455   7.063  15.851  0.0718 -0.3974  0.5328
   30DOPE  H10X 3845   7.418   6.962  15.872 -2.7537  0.4675  0.1826
   30DOPE  C311 3846   7.501   7.091  15.706  0.8998 -0.1909 -0.5360
   30DOPE  H11X 3847   7.479   7.194  15.673 -2.6229 -0.9812 -1.0713
   30DOPE  H11Y 3848   7.606   7.057  15.697 -0.2384 -4.8210  0.5912
   30DOPE  C312 3849   7.422   7.011  15.601 -0.2990 -0.5955  0.4651
   30DOPE  H12X 3850   7.317   7.046  15.589  0.1124  0.3381 -0.6140
   30DOPE  H12Y 3851   7.423   6.905  15.635 -1.7637 -0.7581  0.0827
   30DOPE  C313 3852   7.477   7.019  15.458 -0.0976 -0.1078 -0.0439
   30DOPE  H13X 3853   7.498   7.126  15.437  0.2213 -0.2673 -0.5467
   30DOPE  H13Y 3854   7.578   6.974  15.448  0.2718  1.0973 -2.1767
   30DOPE  C314 3855   7.380   6.963  15.352  0.1777 -0.3723 -0.6115
   30DOPE  H14X 3856   7.286   7.022  15.348 -1.6748 -3.0222  0.4150
   30DOPE  H14Y 3857   7.352   6.861  15.386  0.6570 -0.1691  0.4277
   30DOPE  C315 3858   7.442   6.963  15.216  0.5248 -0.0304  0.6934
   30DOPE  H15X 3859   7.549   6.931  15.217  1.3150  2.3994  0.7522
   30DOPE  H15Y 3860   7.443   7.067  15.176  0.6142  0.5236  2.1012
   30DOPE  C316 3861   7.362   6.881  15.115 -0.1909 -0.1506 -0.6777
   30DOPE  H16X 3862   7.256   6.897  15.141  0.5031  0.2245  2.3027
   30DOPE  H16Y 3863   7.377   6.771  15.121 -2.1319 -0.4088  0.0762
   30DOPE  C317 3864   7.390   6.918  14.967  0.5550  0.4141  0.1930
   30DOPE  H17X 3865   7.367   7.026  14.962 -3.0714 -0.2696 -0.5536
   30DOPE  H17Y 3866   7.498   6.907  14.943  0.5825 -1.0891  0.8664
   30DOPE  C318 3867   7.308   6.836  14.868 -0.3428  0.1791 -0.0775
   30DOPE  H18X 3868   7.203   6.870  14.874 -0.2647  0.6291 -0.9997
   30DOPE  H18Y 3869   7.340   6.859  14.764  2.8715 -0.0675  0.7372
   30DOPE  H18Z 3870   7.309   6.726  14.883 -1.5469 -0.2626 -2.6571
   31DOPE     N 3871   3.671   3.487  12.481  0.3561 -0.6751 -0.3462
   31DOPE   HN1 3872   3.775   3.488  12.484  0.3203  0.0597  1.2105
   31DOPE   HN2 3873   3.634   3.405  12.428  1.0009 -1.3373  0.1966
   31DOPE   HN3 3874   3.645   3.579  12.440  2.4230  0.0934 -0.0564
   31DOPE   C12 3875   3.622   3.472  12.616 -0.2357  0.3027 -0.0646
   31DOPE  H12A 3876   3.690   3.531  12.681  0.0361  2.2848 -2.0093
   31DOPE  H12B 3877   3.627   3.367  12.653  0.7797  1.3402  3.0465
   31DOPE   C11 3878   3.481   3.528  12.625 -0.5444 -0.1612 -0.0724
   31DOPE  H11A 3879   3.482   3.629  12.580  0.6447 -0.2755 -0.3418
   31DOPE  H11B 3880   3.466   3.538  12.735 -1.0162 -0.0575 -0.1425
   31DOPE     P 3881   3.229   3.470  12.569 -0.1897 -0.2842  0.1158
   31DOPE   O13 3882   3.163   3.336  12.595 -0.5051 -0.0813 -0.1889
   31DOPE   O14 3883   3.174   3.547  12.455  0.2695  0.3176  0.2618
   31DOPE   O11 3884   3.208   3.560  12.699  0.8028  0.3516 -0.2270
   31DOPE   O12 3885   3.381   3.454  12.556  0.6739  0.3404  0.1706
   31DOPE    C1 3886   3.081   3.611  12.746 -0.5385  0.7187 -0.3862
   31DOPE    HA 3887   3.009   3.623  12.663 -0.0653 -2.5642 -1.4396
   31DOPE    HB 3888   3.103   3.710  12.790  1.0134  0.7444 -1.1668
   31DOPE    C2 3889   3.010   3.535  12.866 -0.4058 -0.6083  0.6694
   31DOPE    HS 3890   2.970   3.444  12.816  0.1270 -0.0318 -0.8500
   31DOPE   O21 3891   2.906   3.612  12.914 -0.1551  0.1137 -0.6172
   31DOPE   C21 3892   2.813   3.532  12.983 -0.5553 -0.0006  0.0947
   31DOPE   O22 3893   2.822   3.410  12.986  0.5875 -0.4540  0.4070
   31DOPE   C22 3894   2.707   3.614  13.054  0.1760 -0.1440  0.6568
   31DOPE   H2R 3895   2.612   3.556  13.054 -0.5541  1.0175  1.0327
   31DOPE   H2S 3896   2.690   3.706  12.993 -0.3185 -0.3550  0.4702
   31DOPE    C3 3897   3.113   3.502  12.972 -0.2335 -0.0478 -0.1492
   31DOPE    HX 3898   3.177   3.592  12.965 -1.3722  0.7449 -0.5712
   31DOPE    HY 3899   3.162   3.410  12.934  2.0322  0.6855  0.8531
   31DOPE   O31 3900   3.065   3.491  13.109 -0.0190 -0.6026  0.4119
   31DOPE   C31 3901   3.159   3.512  13.207 -0.4941 -0.2546  0.1409
   31DOPE   O32 3902   3.278   3.537  13.186  0.2813 -0.0496  0.1043
   31DOPE   C32 3903   3.094   3.487  13.343  0.1704 -0.4710  1.0854
   31DOPE   H2X 3904   2.985   3.470  13.327  0.5950 -3.7906  1.0306
   31DOPE   H2Y 3905   3.133   3.392  13.386 -0.6168 -1.1257  0.3967
   31DOPE   C23 3906   2.770   3.653  13.192 -0.2665  0.1106 -0.5362
   31DOPE   H3R 3907   2.870   3.697  13.174 -0.8800  1.7708 -0.0700
   31DOPE   H3S 3908   2.781   3.565  13.259  0.0281  0.3604 -0.2571
   31DOPE   C24 3909   2.688   3.757  13.273  0.0647 -0.1879  0.0518
   31DOPE   H4R 3910   2.590   3.704  13.274  0.3412 -0.7541 -1.1334
   31DOPE   H4S 3911   2.682   3.856  13.223  2.6485  0.9644  1.8263
   31DOPE   C25 3912   2.729   3.783  13.418 -0.0894  0.7178 -0.5269
   31DOPE   H5R 3913   2.828   3.832  13.409 -0.4211  1.0303 -3.5662
   31DOPE   H5S 3914   2.741   3.682  13.462 -1.0750  1.3674  1.3464
   31DOPE   C26 3915   2.626   3.868  13.495 -0.1512 -0.2287  0.1417
   31DOPE   H6R 3916   2.591   3.939  13.417 -0.4958 -1.6123 -1.0084
   31DOPE   H6S 3917   2.682   3.932  13.567  2.0722 -0.2150 -1.5297
   31DOPE   C27 3918   2.510   3.791  13.558  0.4109  0.4618  0.2904
   31DOPE   H7R 3919   2.474   3.709  13.493  0.3521  0.1237  0.7395
   31DOPE   H7S 3920   2.426   3.863  13.564  2.0859  2.3862  2.5350
   31DOPE   C28 3921   2.536   3.734  13.700 -0.0156  0.1413 -0.6725
   31DOPE   H8R 3922   2.556   3.822  13.764  1.2615  0.2403 -1.1792
   31DOPE   H8S 3923   2.630   3.678  13.680  0.1706  1.0477 -2.4925
   31DOPE   C29 3924   2.432   3.641  13.760  0.2353  0.2990 -0.5905
   31DOPE   H9R 3925   2.382   3.577  13.685  0.5606 -0.2032 -0.3847
   31DOPE  C210 3926   2.403   3.623  13.890  0.1867  0.4813 -0.0615
   31DOPE  H10R 3927   2.318   3.557  13.909  1.4116 -1.7649 -1.8333
   31DOPE  C211 3928   2.481   3.674  14.006  0.9775  0.0691  0.5837
   31DOPE  H11R 3929   2.585   3.680  13.968 -0.3252  0.2975 -3.4588
   31DOPE  H11S 3930   2.466   3.601  14.089 -0.7146 -0.0970  0.1621
   31DOPE  C212 3931   2.440   3.813  14.059 -0.7780 -0.0080 -0.2543
   31DOPE  H12R 3932   2.427   3.891  13.980 -0.1573  0.4104  0.0526
   31DOPE  H12S 3933   2.525   3.847  14.122 -1.6178  3.1863 -0.6384
   31DOPE  C213 3934   2.299   3.805  14.130 -0.1273  0.4695  0.4813
   31DOPE  H13R 3935   2.297   3.704  14.176  1.4254  0.4778  0.6187
   31DOPE  H13S 3936   2.225   3.822  14.050  2.8415  1.6760 -2.2419
   31DOPE  C214 3937   2.275   3.914  14.236  0.2397  0.2063 -0.4342
   31DOPE  H14R 3938   2.302   4.014  14.196  2.5650  0.2962  1.1909
   31DOPE  H14S 3939   2.338   3.879  14.320 -0.7451 -3.7870 -1.1679
   31DOPE  C215 3940   2.131   3.914  14.284 -0.1674 -0.9274 -0.4552
   31DOPE  H15R 3941   2.088   3.813  14.301 -1.5070 -0.5785 -1.6169
   31DOPE  H15S 3942   2.069   3.960  14.205 -0.9418 -0.3743  0.4522
   31DOPE  C216 3943   2.100   4.014  14.404  0.5674  0.4339  0.4064
   31DOPE  H16R 3944   2.190   4.079  14.392  0.0866  0.9078 -0.7922
   31DOPE  H16S 3945   2.109   3.959  14.500  0.3491  1.5966  1.1167
   31DOPE  C217 3946   1.972   4.087  14.391 -0.1947 -0.3791 -0.1366
   31DOPE  H17R 3947   1.888   4.014  14.397 -2.0500  1.5142 -1.1696
   31DOPE  H17S 3948   1.973   4.140  14.293  0.1253  3.8966  1.9566
   31DOPE  C218 3949   1.958   4.186  14.505 -0.1884  0.1578 -0.2256
   31DOPE  H18R 3950   2.056   4.239  14.511 -1.1716  1.9722  0.6647
   31DOPE  H18S 3951   1.923   4.142  14.601 -0.0864  2.7131  1.0497
   31DOPE  H18T 3952   1.884   4.264  14.481  2.2880  3.3224  1.5890
   31DOPE   C33 3953   3.113   3.613  13.437 -0.0189 -0.3876  0.3629
   31DOPE   H3X 3954   3.070   3.703  13.388 -0.4543 -0.0068  1.4306
   31DOPE   H3Y 3955   3.223   3.629  13.437 -0.2822  1.7044  0.3995
   31DOPE   C34 3956   3.059   3.601  13.576  0.0123 -0.1488 -0.5792
   31DOPE   H4X 3957   2.949   3.618  13.581 -0.0128 -0.0796 -1.2706
   31DOPE   H4Y 3958   3.086   3.503  13.621 -1.5243  0.4475  1.8308
   31DOPE   C35 3959   3.126   3.705  13.669  0.1626  0.0035 -0.0933
   31DOPE   H5X 3960   3.092   3.802  13.626 -0.1697  0.8678  2.0203
   31DOPE   H5Y 3961   3.236   3.695  13.658 -0.0001 -1.7193 -0.4375
   31DOPE   C36 3962   3.086   3.674  13.814  0.1227 -0.4844  0.1799
   31DOPE   H6X 3963   3.107   3.567  13.835 -0.5986 -0.6619  0.0406
   31DOPE   H6Y 3964   2.977   3.687  13.832  0.1760 -1.0820  0.9905
   31DOPE   C37 3965   3.136   3.781  13.915 -0.2347 -0.1778 -0.4871
   31DOPE   H7X 3966   3.246   3.778  13.907 -0.2416  1.1932 -1.5139
   31DOPE   H7Y 3967   3.105   3.882  13.879  0.2260  0.2209  0.2169
   31DOPE   C38 3968   3.089   3.764  14.062 -0.3174  0.5844 -0.1260
   31DOPE   H8X 3969   3.086   3.657  14.091  1.5260  0.2250 -1.0809
   31DOPE   H8Y 3970   2.984   3.799  14.074  0.2001  1.8191  1.0882
   31DOPE   C39 3971   3.173   3.841  14.163 -0.4204  0.0552 -0.7111
   31DOPE   H9X 3972   3.281   3.823  14.163 -0.1408  1.6335 -0.3927
   31DOPE  C310 3973   3.123   3.914  14.266  0.6113 -0.3464 -0.1489
   31DOPE  H10X 3974   3.190   3.953  14.344 -1.5576  2.5082  0.4589
   31DOPE  C311 3975   2.975   3.927  14.298 -0.5463  0.6761 -0.2122
   31DOPE  H11X 3976   2.958   4.021  14.355 -0.4119 -0.6661  2.1726
   31DOPE  H11Y 3977   2.912   3.919  14.207  1.3194 -2.0495 -1.3872
   31DOPE  C312 3978   2.940   3.812  14.397  0.4384 -0.4278  0.6075
   31DOPE  H12X 3979   3.007   3.817  14.485  0.3936  0.3076  0.6056
   31DOPE  H12Y 3980   2.946   3.712  14.350 -0.1836 -0.1897  0.0023
   31DOPE  C313 3981   2.796   3.831  14.453  0.0368  0.6811  0.3554
   31DOPE  H13X 3982   2.776   3.940  14.457  1.5527  1.0309 -0.5039
   31DOPE  H13Y 3983   2.727   3.792  14.375 -1.1338 -0.4291  1.8941
   31DOPE  C314 3984   2.772   3.748  14.583 -0.1112 -0.2913 -0.1289
   31DOPE  H14X 3985   2.818   3.797  14.671 -2.5745  0.5910  0.7447
   31DOPE  H14Y 3986   2.817   3.649  14.561  2.0538  0.5757  0.1358
   31DOPE  C315 3987   2.622   3.746  14.625  0.1645  0.0201  0.1505
   31DOPE  H15X 3988   2.562   3.716  14.536 -0.7226 -0.8103  1.0186
   31DOPE  H15Y 3989   2.595   3.848  14.660 -2.3509 -1.3394  2.5719
   31DOPE  C316 3990   2.589   3.656  14.748  0.2751 -0.0620 -0.4072
   31DOPE  H16X 3991   2.490   3.672  14.796  0.6452 -1.9637  1.1269
   31DOPE  H16Y 3992   2.659   3.686  14.829  0.4470  2.5296 -1.4136
   31DOPE  C317 3993   2.604   3.503  14.729 -0.0668 -0.5482  0.2027
   31DOPE  H17X 3994   2.552   3.466  14.638 -0.8281  2.0684 -0.5137
   31DOPE  H17Y 3995   2.713   3.480  14.719 -0.0395 -0.3513  0.0356
   31DOPE  C318 3996   2.537   3.435  14.853  0.3788 -0.5264  0.2202
   31DOPE  H18X 3997   2.443   3.486  14.884 -1.9013 -3.3648 -1.5059
   31DOPE  H18Y 3998   2.525   3.325  14.841 -0.9944 -0.3285 -0.4541
   31DOPE  H18Z 3999   2.609   3.454  14.935 -0.8913  2.3773  0.7703
   32DOPE     N 4000   5.117   3.487  12.643  0.7245  0.2839  0.1034
   32DOPE   HN1 4001   5.140   3.420  12.566 -1.9900 -0.9631  0.2725
   32DOPE   HN2 4002   5.086   3.578  12.606  2.7106  0.4465 -1.3508
   32DOPE   HN3 4003   5.199   3.496  12.706  0.6485 -1.6193  0.5387
   32DOPE   C12 4004   5.005   3.439  12.731 -0.3076 -0.7656  0.0809
   32DOPE  H12A 4005   5.036   3.357  12.798 -0.0977 -0.9107 -0.1915
   32DOPE  H12B 4006   4.920   3.403  12.668 -0.9726 -0.4751  0.7909
   32DOPE   C11 4007   4.964   3.556  12.823  0.3443  0.7741  0.0352
   32DOPE  H11A 4008   5.045   3.582  12.895  1.4540 -2.2801  0.0156
   32DOPE  H11B 4009   4.889   3.502  12.885  1.1396  0.0915  0.4199
   32DOPE     P 4010   4.961   3.806  12.763  0.1053  0.1482 -0.3992
   32DOPE   O13 4011   4.864   3.894  12.698  0.1320  0.0969 -0.4790
   32DOPE   O14 4012   5.098   3.786  12.712 -0.1772  0.1917 -0.0278
   32DOPE   O11 4013   4.971   3.831  12.922 -0.4527  0.2772  0.0546
   32DOPE   O12 4014   4.900   3.665  12.759  0.4346 -0.2504  0.0344
   32DOPE    C1 4015   4.853   3.811  13.007 -0.3686 -0.1792 -0.2790
   32DOPE    HA 4016   4.856   3.709  13.051  0.3644 -1.6591 -3.5007
   32DOPE    HB 4017   4.761   3.827  12.946 -0.6445  0.9736  0.4161
   32DOPE    C2 4018   4.846   3.939  13.108 -0.5116  0.6424  0.6615
   32DOPE    HS 4019   4.861   4.029  13.045 -0.0344 -0.5065 -0.9168
   32DOPE   O21 4020   4.949   3.920  13.210  0.2680  0.5294 -0.1351
   32DOPE   C21 4021   4.996   4.037  13.258  0.3419  0.1974  0.0106
   32DOPE   O22 4022   4.947   4.148  13.240 -0.4206 -0.2513  0.1787
   32DOPE   C22 4023   5.109   3.997  13.354 -0.0446  0.1258 -0.4134
   32DOPE   H2R 4024   5.134   3.890  13.339 -1.3713 -0.1110 -1.1399
   32DOPE   H2S 4025   5.070   4.008  13.457  0.6879  0.3337 -0.1548
   32DOPE    C3 4026   4.706   3.942  13.172 -0.6110 -0.2757  1.2765
   32DOPE    HX 4027   4.632   3.939  13.089  1.1966 -1.2139 -0.3585
   32DOPE    HY 4028   4.702   4.041  13.222 -0.5429 -0.1819  1.0943
   32DOPE   O31 4029   4.694   3.828  13.264 -0.1599 -0.0172  0.5555
   32DOPE   C31 4030   4.693   3.852  13.390 -0.4896  0.1123 -0.5799
   32DOPE   O32 4031   4.711   3.963  13.447  0.2809  0.4172 -0.2870
   32DOPE   C32 4032   4.641   3.725  13.465  0.0722  0.4966 -0.4915
   32DOPE   H2X 4033   4.531   3.727  13.448 -0.2231 -2.2333  0.4946
   32DOPE   H2Y 4034   4.694   3.641  13.414  0.4101  0.9806 -0.9396
   32DOPE   C23 4035   5.241   4.078  13.341 -1.0025  0.3838  0.4239
   32DOPE   H3R 4036   5.212   4.176  13.383 -0.0795  0.1065  1.7581
   32DOPE   H3S 4037   5.254   4.097  13.232 -1.6302  0.4854  0.3634
   32DOPE   C24 4038   5.362   4.013  13.407 -0.2939 -0.1662 -0.6868
   32DOPE   H4R 4039   5.458   4.068  13.395  0.5752 -0.7702  2.6993
   32DOPE   H4S 4040   5.381   3.917  13.354  0.4686 -0.3681 -0.0635
   32DOPE   C25 4041   5.344   3.993  13.550 -0.1685 -0.3388 -0.2164
   32DOPE   H5R 4042   5.254   3.933  13.577  1.1743 -2.5658 -0.4792
   32DOPE   H5S 4043   5.341   4.088  13.608 -2.5073 -1.0127  0.9048
   32DOPE   C26 4044   5.469   3.912  13.606 -0.3514 -1.2462  0.2909
   32DOPE   H6R 4045   5.475   3.945  13.712  1.2471  0.2617 -0.2365
   32DOPE   H6S 4046   5.566   3.944  13.564  0.2574 -1.8317  1.1951
   32DOPE   C27 4047   5.466   3.761  13.597  0.0317 -0.0813 -1.0407
   32DOPE   H7R 4048   5.468   3.744  13.487  1.1308 -0.1556 -1.0203
   32DOPE   H7S 4049   5.367   3.733  13.639 -0.0436  0.3138 -0.9497
   32DOPE   C28 4050   5.579   3.688  13.664  0.8393 -0.8560 -0.0518
   32DOPE   H8R 4051   5.567   3.581  13.640  1.5036 -1.3700  1.7905
   32DOPE   H8S 4052   5.565   3.697  13.774 -0.2578  0.1463 -0.2466
   32DOPE   C29 4053   5.718   3.733  13.617  0.1834 -0.4164  0.5816
   32DOPE   H9R 4054   5.751   3.719  13.513 -1.2928  2.2870 -0.3303
   32DOPE  C210 4055   5.810   3.793  13.696  0.0933  0.1807 -0.0510
   32DOPE  H10R 4056   5.902   3.821  13.642 -0.7511  0.0508 -1.6258
   32DOPE  C211 4057   5.804   3.834  13.838 -0.6295 -0.6355  0.3718
   32DOPE  H11R 4058   5.701   3.831  13.879 -0.6740  1.4081  0.5250
   32DOPE  H11S 4059   5.838   3.938  13.861 -3.2560 -0.1948  2.8056
   32DOPE  C212 4060   5.885   3.756  13.933  0.2263  0.3944  0.2615
   32DOPE  H12R 4061   5.979   3.739  13.875 -0.2344 -1.7194  0.0514
   32DOPE  H12S 4062   5.849   3.651  13.941  3.3474 -1.4133 -4.7577
   32DOPE  C213 4063   5.901   3.826  14.071 -0.7366  0.3744  0.0967
   32DOPE  H13R 4064   5.801   3.850  14.114 -1.3774  0.0765 -1.1926
   32DOPE  H13S 4065   5.948   3.924  14.050 -0.6146  0.5100  0.9579
   32DOPE  C214 4066   5.995   3.754  14.177 -0.5967  0.1461 -0.1011
   32DOPE  H14R 4067   6.097   3.736  14.137 -0.0024 -0.7674  1.7157
   32DOPE  H14S 4068   5.950   3.658  14.207 -0.5777  0.4782  1.0310
   32DOPE  C215 4069   6.015   3.822  14.310  0.4338 -0.2570 -0.5299
   32DOPE  H15R 4070   5.916   3.835  14.361  1.0903 -3.1855  1.7493
   32DOPE  H15S 4071   6.060   3.923  14.299  1.9688 -0.5080  2.3403
   32DOPE  C216 4072   6.100   3.740  14.412  0.5551  0.2421 -0.3742
   32DOPE  H16R 4073   6.155   3.805  14.482 -1.4583  1.5887  0.0449
   32DOPE  H16S 4074   6.172   3.686  14.346 -1.0714  0.1422 -2.1897
   32DOPE  C217 4075   6.015   3.639  14.487  0.0705 -0.2173 -0.3369
   32DOPE  H17R 4076   6.078   3.558  14.529  1.7987  1.2642  0.0303
   32DOPE  H17S 4077   5.931   3.599  14.426 -1.2888 -2.1161  2.5541
   32DOPE  C218 4078   5.934   3.691  14.607  0.2149 -0.4453  0.4832
   32DOPE  H18R 4079   5.846   3.625  14.626  0.8882 -1.1855  1.1191
   32DOPE  H18S 4080   5.888   3.791  14.590  1.2212 -0.3433 -2.1191
   32DOPE  H18T 4081   5.996   3.687  14.699  0.7115  1.1847  0.2497
   32DOPE   C33 4082   4.686   3.723  13.612 -0.3772  0.0129  0.3680
   32DOPE   H3X 4083   4.642   3.812  13.662 -1.5157  0.0219 -0.5982
   32DOPE   H3Y 4084   4.797   3.729  13.605 -0.2421 -1.8868  0.3862
   32DOPE   C34 4085   4.628   3.599  13.681 -0.5076 -0.4119  0.0337
   32DOPE   H4X 4086   4.517   3.589  13.679 -0.5691  0.1394  0.2977
   32DOPE   H4Y 4087   4.666   3.502  13.643 -0.1390 -0.3728  0.2996
   32DOPE   C35 4088   4.659   3.605  13.834  0.2166 -0.8747  0.3151
   32DOPE   H5X 4089   4.769   3.618  13.843  0.4077  0.0467 -2.3609
   32DOPE   H5Y 4090   4.622   3.510  13.879  1.5721 -1.3578  0.4609
   32DOPE   C36 4091   4.585   3.716  13.909  0.2075  0.2888  0.0643
   32DOPE   H6X 4092   4.475   3.714  13.889  0.1840 -0.1633  0.2286
   32DOPE   H6Y 4093   4.611   3.813  13.861 -0.6575 -0.5024 -2.1386
   32DOPE   C37 4094   4.612   3.732  14.060  0.2574  0.3914 -0.3433
   32DOPE   H7X 4095   4.720   3.744  14.084  0.1365 -1.2441  1.2792
   32DOPE   H7Y 4096   4.561   3.824  14.094  0.5798  0.3712  0.2069
   32DOPE   C38 4097   4.559   3.606  14.134 -0.1144 -0.5130  0.5245
   32DOPE   H8X 4098   4.610   3.603  14.233  0.4797  4.7584  0.6809
   32DOPE   H8Y 4099   4.579   3.511  14.081 -1.3382  0.3977 -1.6671
   32DOPE   C39 4100   4.410   3.608  14.166  0.4256 -0.0653  0.6173
   32DOPE   H9X 4101   4.339   3.541  14.115  0.3710 -1.5664  2.5302
   32DOPE  C310 4102   4.361   3.683  14.264 -0.4391  0.1587 -0.8806
   32DOPE  H10X 4103   4.253   3.688  14.285 -0.8423  1.3350 -2.9942
   32DOPE  C311 4104   4.436   3.755  14.376  0.0412 -0.0811  0.1582
   32DOPE  H11X 4105   4.514   3.699  14.432 -2.0404 -1.0441  2.2315
   32DOPE  H11Y 4106   4.471   3.849  14.328 -2.2442  0.7776  0.0790
   32DOPE  C312 4107   4.346   3.803  14.488  0.2996  0.8006  0.3248
   32DOPE  H12X 4108   4.325   3.715  14.553  1.3236  0.6259  0.4329
   32DOPE  H12Y 4109   4.252   3.843  14.443 -0.6570  1.0288  2.3859
   32DOPE  C313 4110   4.394   3.910  14.586 -0.7704 -0.8002  0.2285
   32DOPE  H13X 4111   4.304   3.952  14.636 -0.2747 -0.9667  1.2961
   32DOPE  H13Y 4112   4.456   3.861  14.664  1.0460 -0.1206 -0.7223
   32DOPE  C314 4113   4.476   4.035  14.526 -0.1676 -0.0484 -0.4502
   32DOPE  H14X 4114   4.400   4.092  14.467  0.6855  0.4158 -1.1292
   32DOPE  H14Y 4115   4.546   4.000  14.447  1.0129 -0.3604  0.7167
   32DOPE  C315 4116   4.538   4.126  14.624  0.0846 -0.8199 -0.1414
   32DOPE  H15X 4117   4.599   4.186  14.553 -1.2529  0.3674 -0.3118
   32DOPE  H15Y 4118   4.606   4.065  14.688  2.4332  0.1559 -1.5411
   32DOPE  C316 4119   4.445   4.213  14.705 -0.6344  0.3413 -0.0669
   32DOPE  H16X 4120   4.352   4.247  14.655 -0.5266  0.6330 -0.0732
   32DOPE  H16Y 4121   4.500   4.305  14.735  0.7887 -0.9560  1.5181
   32DOPE  C317 4122   4.394   4.137  14.827 -0.1504 -0.4024 -0.3810
   32DOPE  H17X 4123   4.334   4.048  14.800 -3.4556  1.6430 -0.3011
   32DOPE  H17Y 4124   4.487   4.104  14.879 -1.0848  1.7152  2.9408
   32DOPE  C318 4125   4.313   4.212  14.922  0.1040 -1.0121 -0.1900
   32DOPE  H18X 4126   4.359   4.292  14.985  0.0694 -3.6296  3.4744
   32DOPE  H18Y 4127   4.223   4.257  14.873  1.3103  2.5916  0.5562
   32DOPE  H18Z 4128   4.275   4.138  14.996  1.8173 -2.3439 -0.5823
   33DOPE     N 4129   3.258   3.098  12.669 -0.2856 -0.3593  0.2696
   33DOPE   HN1 4130   3.348   3.099  12.721 -0.9107 -0.2449  1.3885
   33DOPE   HN2 4131   3.264   3.036  12.586 -0.0499 -0.1082  0.0999
   33DOPE   HN3 4132   3.231   3.196  12.647 -0.5624  0.5598  3.9917
   33DOPE   C12 4133   3.168   3.035  12.769  0.2773  0.0047  0.0443
   33DOPE  H12A 4134   3.075   3.006  12.715  0.8683  1.0059 -1.5880
   33DOPE  H12B 4135   3.150   3.107  12.852  1.0512  1.5276 -1.0616
   33DOPE   C11 4136   3.222   2.904  12.817 -0.0874 -0.5488  0.5383
   33DOPE  H11A 4137   3.222   2.830  12.734  1.2814 -1.1117  1.0151
   33DOPE  H11B 4138   3.153   2.868  12.897 -1.3647 -1.2409 -0.8147
   33DOPE     P 4139   3.411   2.827  12.988  0.1231 -0.2897 -0.0169
   33DOPE   O13 4140   3.450   2.695  12.932 -0.1733 -0.1266  0.0008
   33DOPE   O14 4141   3.302   2.829  13.092  0.3133  0.1838  0.1011
   33DOPE   O11 4142   3.537   2.902  13.047  0.2458 -0.4540 -0.1854
   33DOPE   O12 4143   3.354   2.921  12.876 -0.5473 -0.7685 -0.7620
   33DOPE    C1 4144   3.508   3.024  13.113 -0.0129 -0.4903  0.2615
   33DOPE    HA 4145   3.433   3.087  13.062 -0.9977 -1.2455  0.7382
   33DOPE    HB 4146   3.605   3.078  13.110  0.6008 -1.6065 -0.7606
   33DOPE    C2 4147   3.481   3.010  13.265  0.4961 -0.6675 -0.1864
   33DOPE    HS 4148   3.375   2.983  13.284  0.6682 -1.2275 -0.0133
   33DOPE   O21 4149   3.513   3.134  13.324  0.3725 -0.5012 -0.0033
   33DOPE   C21 4150   3.424   3.231  13.315  0.1845 -0.2324  0.3414
   33DOPE   O22 4151   3.313   3.222  13.276  0.3058 -0.2408  0.1389
   33DOPE   C22 4152   3.488   3.354  13.371 -0.5698 -0.0022  1.0770
   33DOPE   H2R 4153   3.481   3.421  13.283  0.6099 -1.7562 -0.4311
   33DOPE   H2S 4154   3.595   3.334  13.396  0.1454  1.4508 -0.6452
   33DOPE    C3 4155   3.563   2.895  13.337 -0.7900  0.6167  0.0733
   33DOPE    HX 4156   3.669   2.921  13.316 -0.1060 -0.5271  1.8920
   33DOPE    HY 4157   3.543   2.796  13.291  3.4861 -0.1629 -0.5797
   33DOPE   O31 4158   3.543   2.890  13.479 -0.1830  0.4251  0.0874
   33DOPE   C31 4159   3.631   2.814  13.538  0.0644 -0.5708 -0.5746
   33DOPE   O32 4160   3.713   2.742  13.484  0.0189 -0.1288  0.1845
   33DOPE   C32 4161   3.624   2.832  13.690  0.6631  0.3067 -0.3410
   33DOPE   H2X 4162   3.705   2.897  13.728  2.0690 -1.5895  0.0405
   33DOPE   H2Y 4163   3.530   2.884  13.720  0.1810  0.0218 -1.3031
   33DOPE   C23 4164   3.424   3.411  13.503  0.2777 -0.0674  0.3756
   33DOPE   H3R 4165   3.315   3.416  13.481  0.3541  0.9425  0.2007
   33DOPE   H3S 4166   3.455   3.517  13.518 -2.0314  0.4781  2.0215
   33DOPE   C24 4167   3.463   3.331  13.631  0.1055  0.6977 -0.3792
   33DOPE   H4R 4168   3.572   3.340  13.650 -0.0964 -0.0243  1.3743
   33DOPE   H4S 4169   3.442   3.223  13.616  0.6658  0.6888 -1.1244
   33DOPE   C25 4170   3.373   3.365  13.746  0.2263 -0.5521 -0.4703
   33DOPE   H5R 4171   3.266   3.341  13.728  0.7992 -2.1739 -1.9257
   33DOPE   H5S 4172   3.370   3.475  13.759  0.8867 -0.0884 -3.5124
   33DOPE   C26 4173   3.424   3.299  13.875  0.3577 -0.0947  0.0491
   33DOPE   H6R 4174   3.532   3.323  13.883  1.0130 -2.4020 -1.2056
   33DOPE   H6S 4175   3.423   3.188  13.869 -0.0545 -0.0342 -1.0444
   33DOPE   C27 4176   3.332   3.332  13.992  0.2331  0.1568 -0.0770
   33DOPE   H7R 4177   3.354   3.266  14.079 -2.1538 -0.3710  0.2051
   33DOPE   H7S 4178   3.229   3.304  13.961 -0.6181  2.4459  0.5284
   33DOPE   C28 4179   3.327   3.478  14.038 -0.0850 -0.1493  0.3781
   33DOPE   H8R 4180   3.242   3.488  14.108 -0.8828 -0.7880 -0.4638
   33DOPE   H8S 4181   3.318   3.553  13.957  3.2467 -1.0959 -1.0507
   33DOPE   C29 4182   3.455   3.522  14.102 -0.4061 -0.2127  0.2313
   33DOPE   H9R 4183   3.539   3.521  14.030 -0.5986 -1.3847 -0.0064
   33DOPE  C210 4184   3.475   3.556  14.231  0.1747 -0.0738  0.5202
   33DOPE  H10R 4185   3.578   3.585  14.257  0.5396  1.9209 -2.5807
   33DOPE  C211 4186   3.377   3.558  14.348  0.0789 -0.2689  0.1780
   33DOPE  H11R 4187   3.385   3.464  14.406 -3.4791 -0.0820  1.2055
   33DOPE  H11S 4188   3.272   3.570  14.314 -0.4419 -1.5501  1.2521
   33DOPE  C212 4189   3.406   3.676  14.439  0.7575  0.1002  0.6006
   33DOPE  H12R 4190   3.403   3.774  14.385  0.5006 -0.1229  0.2062
   33DOPE  H12S 4191   3.509   3.657  14.477  1.7397 -0.6763 -2.1756
   33DOPE  C213 4192   3.301   3.686  14.551 -0.6668  0.1718  0.2241
   33DOPE  H13R 4193   3.284   3.588  14.600 -0.8109  0.3521  0.5391
   33DOPE  H13S 4194   3.205   3.704  14.498  0.0145 -0.5230 -1.2984
   33DOPE  C214 4195   3.324   3.798  14.651  0.6513 -0.3042 -0.3433
   33DOPE  H14R 4196   3.233   3.793  14.715 -0.3025  1.2271 -1.5208
   33DOPE  H14S 4197   3.323   3.899  14.606 -1.0371 -0.9177 -1.7825
   33DOPE  C215 4198   3.448   3.770  14.736  0.5235 -0.2994 -0.0941
   33DOPE  H15R 4199   3.535   3.815  14.686  0.7465 -2.0090 -1.3373
   33DOPE  H15S 4200   3.462   3.660  14.729  1.8984 -0.3443  2.2732
   33DOPE  C216 4201   3.433   3.805  14.881  0.5295 -0.0679 -0.4759
   33DOPE  H16R 4202   3.355   3.739  14.924 -0.1380  1.1018  0.1627
   33DOPE  H16S 4203   3.377   3.901  14.884 -1.4819 -1.1969  1.2971
   33DOPE  C217 4204   3.563   3.803  14.966 -0.5542  0.4554 -0.2527
   33DOPE  H17R 4205   3.563   3.894  15.030 -3.8053 -0.4805  1.2941
   33DOPE  H17S 4206   3.650   3.809  14.897 -0.8295 -0.1161 -0.6649
   33DOPE  C218 4207   3.577   3.685  15.063  0.4536 -0.4930  0.4230
   33DOPE  H18R 4208   3.683   3.655  15.075  1.4251  2.4974  0.1863
   33DOPE  H18S 4209   3.514   3.600  15.029 -1.9109  1.7568 -1.3511
   33DOPE  H18T 4210   3.543   3.712  15.165  2.8877  1.4015  0.8406
   33DOPE   C33 4211   3.648   2.699  13.761  0.0169  0.7052  0.5656
   33DOPE   H3X 4212   3.751   2.657  13.755 -0.9959 -2.0145  0.5901
   33DOPE   H3Y 4213   3.594   2.617  13.709  0.7990 -1.1892  2.5705
   33DOPE   C34 4214   3.615   2.697  13.907  0.2861 -0.5012 -0.4801
   33DOPE   H4X 4215   3.692   2.761  13.956  1.1579 -0.2145 -2.1620
   33DOPE   H4Y 4216   3.522   2.758  13.913 -1.6315 -3.2004 -1.1149
   33DOPE   C35 4217   3.608   2.557  13.964 -0.4603 -0.3150 -0.1447
   33DOPE   H5X 4218   3.695   2.502  13.923  0.0813  0.3122  0.1420
   33DOPE   H5Y 4219   3.513   2.517  13.922 -0.2735  0.5382 -1.4468
   33DOPE   C36 4220   3.604   2.539  14.115  0.1826  0.4539  0.3465
   33DOPE   H6X 4221   3.509   2.585  14.149 -0.1658 -1.1075  1.5511
   33DOPE   H6Y 4222   3.685   2.594  14.167  0.1731  0.0087  0.8331
   33DOPE   C37 4223   3.606   2.390  14.140  0.4924 -0.4637  0.3514
   33DOPE   H7X 4224   3.509   2.344  14.111  1.4546 -2.1213 -0.4301
   33DOPE   H7Y 4225   3.686   2.347  14.075  0.1222  1.1300 -1.2358
   33DOPE   C38 4226   3.627   2.347  14.283 -0.2199 -0.0554 -0.0958
   33DOPE   H8X 4227   3.611   2.237  14.284  0.2708 -0.1311  1.1606
   33DOPE   H8Y 4228   3.552   2.394  14.349  1.8421  2.8477  0.3917
   33DOPE   C39 4229   3.763   2.389  14.332  0.9897 -0.0208  0.1071
   33DOPE   H9X 4230   3.786   2.496  14.326  0.5312  0.1945  1.6838
   33DOPE  C310 4231   3.841   2.305  14.397 -0.3519 -0.3188  0.1692
   33DOPE  H10X 4232   3.932   2.347  14.443 -0.7747  1.1679 -0.2967
   33DOPE  C311 4233   3.827   2.152  14.426  0.2613 -1.0063  0.2849
   33DOPE  H11X 4234   3.747   2.107  14.363 -0.1277 -0.5209  0.4300
   33DOPE  H11Y 4235   3.920   2.102  14.391 -1.7209 -3.7409 -1.5112
   33DOPE  C312 4236   3.800   2.119  14.576 -0.2134 -0.4578  0.6512
   33DOPE  H12X 4237   3.887   2.158  14.633  0.5634 -1.1633 -0.0378
   33DOPE  H12Y 4238   3.801   2.010  14.597  0.7416 -0.3562  1.2020
   33DOPE  C313 4239   3.671   2.188  14.619  0.8314 -0.2370 -0.3296
   33DOPE  H13X 4240   3.678   2.299  14.614 -0.1154 -0.1049  0.7471
   33DOPE  H13Y 4241   3.586   2.184  14.548  0.6593  1.3712 -0.2699
   33DOPE  C314 4242   3.631   2.162  14.765 -0.8931 -0.3892  0.2381
   33DOPE  H14X 4243   3.725   2.167  14.825 -0.9040  1.2065  0.1602
   33DOPE  H14Y 4244   3.581   2.063  14.762 -2.0388  0.2012 -0.9704
   33DOPE  C315 4245   3.532   2.269  14.814  0.1996  0.5036 -0.1366
   33DOPE  H15X 4246   3.439   2.276  14.753 -0.2700  1.8733  0.6771
   33DOPE  H15Y 4247   3.578   2.370  14.803  0.5766  0.4628  1.0016
   33DOPE  C316 4248   3.491   2.260  14.956  0.4828 -0.4896 -0.4458
   33DOPE  H16X 4249   3.577   2.276  15.025  0.0588  0.2282 -0.0738
   33DOPE  H16Y 4250   3.448   2.162  14.985  0.5447 -0.5723 -0.6282
   33DOPE  C317 4251   3.395   2.373  15.004 -0.3709 -0.4428 -0.2558
   33DOPE  H17X 4252   3.459   2.463  15.010 -0.5799 -0.2143 -1.2762
   33DOPE  H17Y 4253   3.329   2.378  14.915 -0.3661 -0.3354 -0.2535
   33DOPE  C318 4254   3.320   2.356  15.132 -0.1981  1.1762  0.8302
   33DOPE  H18X 4255   3.256   2.266  15.126  0.6357  0.5441  1.1491
   33DOPE  H18Y 4256   3.391   2.351  15.217  1.6836  1.7272 -0.6374
   33DOPE  H18Z 4257   3.257   2.446  15.146  0.1958  1.2629  2.1486
   34DOPE     N 4258   3.316   4.509  12.278  0.2175  0.3568 -0.1972
   34DOPE   HN1 4259   3.405   4.456  12.267  1.3527  1.8944  1.0872
   34DOPE   HN2 4260   3.304   4.556  12.186 -0.2252 -0.2829 -0.4706
   34DOPE   HN3 4261   3.340   4.578  12.352  1.2342 -1.4155  1.2196
   34DOPE   C12 4262   3.200   4.423  12.307 -0.0734  0.2720  0.5018
   34DOPE  H12A 4263   3.225   4.361  12.396  2.6096 -0.9567 -1.0101
   34DOPE  H12B 4264   3.179   4.356  12.221 -0.3825 -1.6669  2.0199
   34DOPE   C11 4265   3.074   4.506  12.320  0.1211  0.0514 -0.3266
   34DOPE  H11A 4266   2.990   4.435  12.335  0.2392  0.1150  0.7148
   34DOPE  H11B 4267   3.067   4.559  12.223  0.2683 -0.5249 -0.6608
   34DOPE     P 4268   3.057   4.574  12.573  0.4985 -0.3350  0.2041
   34DOPE   O13 4269   2.922   4.616  12.598 -0.2427  0.8448  0.1594
   34DOPE   O14 4270   3.164   4.643  12.645  0.3276 -0.0404  0.3367
   34DOPE   O11 4271   3.063   4.421  12.592 -0.0532  0.5523  0.0948
   34DOPE   O12 4272   3.090   4.605  12.424  0.0251 -0.1133 -0.4256
   34DOPE    C1 4273   2.972   4.347  12.673  0.6904  0.5673 -0.1697
   34DOPE    HA 4274   2.908   4.275  12.617 -0.7742 -0.3125  2.4869
   34DOPE    HB 4275   2.891   4.405  12.722 -0.4095 -1.2660  0.2682
   34DOPE    C2 4276   3.045   4.272  12.782  0.1404  0.0660 -0.6780
   34DOPE    HS 4277   2.973   4.206  12.834 -1.0309  0.0466 -2.2487
   34DOPE   O21 4278   3.105   4.359  12.878  0.0207 -0.2196  0.2603
   34DOPE   C21 4279   3.040   4.388  12.987  0.3858  0.1500 -0.0694
   34DOPE   O22 4280   2.931   4.345  13.017 -0.0038  0.0863  0.1558
   34DOPE   C22 4281   3.128   4.474  13.077 -0.5532  0.5010  0.2773
   34DOPE   H2R 4282   3.135   4.577  13.038  0.0507 -0.3989 -2.1506
   34DOPE   H2S 4283   3.232   4.434  13.080  0.1568  2.3024  1.1883
   34DOPE    C3 4284   3.154   4.172  12.735  0.3104  0.1422 -0.0275
   34DOPE    HX 4285   3.224   4.240  12.683  0.0919 -0.0719 -0.6100
   34DOPE    HY 4286   3.108   4.104  12.660 -1.1643  0.8559  0.1803
   34DOPE   O31 4287   3.213   4.103  12.850  0.0502  0.4885  0.6832
   34DOPE   C31 4288   3.134   4.002  12.892  0.0143  0.6792 -0.1705
   34DOPE   O32 4289   3.031   3.968  12.838 -0.0987  0.4009 -0.2729
   34DOPE   C32 4290   3.192   3.939  13.022  0.3777  0.6020  0.1686
   34DOPE   H2X 4291   3.248   3.847  12.993 -0.8169  0.9030 -3.6335
   34DOPE   H2Y 4292   3.259   4.017  13.064  1.0059  0.3575 -0.3619
   34DOPE   C23 4293   3.087   4.475  13.230  0.9076  0.1260  0.6761
   34DOPE   H3R 4294   3.139   4.398  13.291 -0.9443 -1.2745  0.6102
   34DOPE   H3S 4295   2.978   4.450  13.235  0.5115  1.5215 -0.4113
   34DOPE   C24 4296   3.122   4.611  13.298 -0.1628  0.3730 -0.2285
   34DOPE   H4R 4297   3.098   4.684  13.217  1.6268 -1.6100 -2.7395
   34DOPE   H4S 4298   3.231   4.626  13.307  0.0351 -1.0502 -0.0730
   34DOPE   C25 4299   3.052   4.626  13.433 -0.1024  0.0581 -0.3617
   34DOPE   H5R 4300   2.944   4.598  13.436 -0.9005  2.7627 -0.8669
   34DOPE   H5S 4301   3.048   4.733  13.463 -2.9232  0.2107 -0.9657
   34DOPE   C26 4302   3.118   4.537  13.536  0.3105  0.2330 -0.0092
   34DOPE   H6R 4303   3.226   4.561  13.550  0.1369 -0.0220  2.0154
   34DOPE   H6S 4304   3.110   4.428  13.516 -1.5910  0.1013  1.2753
   34DOPE   C27 4305   3.056   4.566  13.673  0.1240 -0.2501  0.7955
   34DOPE   H7R 4306   3.046   4.677  13.677  0.3512 -0.1737 -0.4751
   34DOPE   H7S 4307   3.135   4.549  13.749 -0.8140 -0.9727  1.6426
   34DOPE   C28 4308   2.932   4.481  13.717 -1.3102 -0.2869 -0.4803
   34DOPE   H8R 4309   2.947   4.373  13.699  0.2070 -0.2002  0.1208
   34DOPE   H8S 4310   2.854   4.532  13.656 -1.6449  1.3716  1.2525
   34DOPE   C29 4311   2.909   4.504  13.861  0.3505  0.5144 -0.8133
   34DOPE   H9R 4312   2.967   4.430  13.919 -0.5190  1.3656  1.2309
   34DOPE  C210 4313   2.824   4.591  13.930  0.0315 -0.3766 -0.2062
   34DOPE  H10R 4314   2.787   4.575  14.033 -1.0268  0.1412 -0.4909
   34DOPE  C211 4315   2.733   4.698  13.871 -0.7829  0.3103  0.5610
   34DOPE  H11R 4316   2.628   4.666  13.855 -1.4178  1.1744  2.6191
   34DOPE  H11S 4317   2.775   4.724  13.772 -0.0004 -2.7282  0.0003
   34DOPE  C212 4318   2.733   4.819  13.964 -0.1052 -0.2839 -0.0974
   34DOPE  H12R 4319   2.672   4.894  13.909 -1.8617  1.8771  4.3598
   34DOPE  H12S 4320   2.837   4.856  13.966  0.0698 -0.7829  0.2132
   34DOPE  C213 4321   2.673   4.797  14.102  0.6769 -0.0275  0.2685
   34DOPE  H13R 4322   2.623   4.698  14.107  1.9290 -0.6990  0.0752
   34DOPE  H13S 4323   2.612   4.884  14.133  0.5959 -0.3949  1.1802
   34DOPE  C214 4324   2.781   4.782  14.209 -0.3775 -1.3110 -0.5872
   34DOPE  H14R 4325   2.816   4.887  14.217 -0.8230 -1.1916 -0.1588
   34DOPE  H14S 4326   2.857   4.704  14.185  0.2265 -1.6522  2.1640
   34DOPE  C215 4327   2.722   4.750  14.348 -0.0247 -0.4451 -0.5947
   34DOPE  H15R 4328   2.629   4.808  14.367  0.7270  0.3157  0.9458
   34DOPE  H15S 4329   2.795   4.787  14.423  0.2294  0.2713 -1.1888
   34DOPE  C216 4330   2.709   4.593  14.371  0.5391  0.0321  1.1645
   34DOPE  H16R 4331   2.779   4.539  14.304 -1.2142 -0.8991 -0.0083
   34DOPE  H16S 4332   2.605   4.565  14.341  1.3012 -0.3139 -1.4196
   34DOPE  C217 4333   2.727   4.556  14.515 -0.0546  0.1532 -0.5470
   34DOPE  H17R 4334   2.818   4.602  14.560 -0.0075 -0.9699  0.5470
   34DOPE  H17S 4335   2.739   4.446  14.527  0.0656  0.2218 -0.0193
   34DOPE  C218 4336   2.605   4.604  14.596 -1.1094 -0.1817 -0.2101
   34DOPE  H18R 4337   2.616   4.567  14.701 -0.4589  0.3804 -0.0770
   34DOPE  H18S 4338   2.509   4.564  14.557 -0.9148 -0.5958 -0.2763
   34DOPE  H18T 4339   2.600   4.715  14.599 -0.1528 -0.1404  2.0373
   34DOPE   C33 4340   3.084   3.902  13.122 -0.2953 -0.5048 -0.2588
   34DOPE   H3X 4341   3.135   3.822  13.180  1.7238  0.7237 -0.2564
   34DOPE   H3Y 4342   2.994   3.861  13.071 -1.1190  0.6983  0.1822
   34DOPE   C34 4343   3.042   4.001  13.234  0.0251 -0.5067  0.5426
   34DOPE   H4X 4344   3.003   4.098  13.194  3.7711  1.1181  0.4562
   34DOPE   H4Y 4345   2.956   3.964  13.295  0.3834 -1.2827  0.5872
   34DOPE   C35 4346   3.159   4.023  13.329  0.5448  0.4717 -0.1100
   34DOPE   H5X 4347   3.238   4.085  13.282  0.7685  2.0247  2.1559
   34DOPE   H5Y 4348   3.207   3.925  13.347 -1.0213 -0.1720  0.8312
   34DOPE   C36 4349   3.125   4.098  13.457  0.1651 -0.1304 -0.5936
   34DOPE   H6X 4350   3.041   4.048  13.511 -0.9489  1.4885 -0.7422
   34DOPE   H6Y 4351   3.077   4.196  13.439 -1.8014 -1.0752 -0.7911
   34DOPE   C37 4352   3.249   4.102  13.544 -0.1546 -0.1780  0.0224
   34DOPE   H7X 4353   3.292   3.999  13.550  1.1660  0.3469 -0.0521
   34DOPE   H7Y 4354   3.318   4.171  13.490 -0.9407 -0.2891 -1.1570
   34DOPE   C38 4355   3.219   4.145  13.692  0.1456 -0.0216  0.7838
   34DOPE   H8X 4356   3.157   4.059  13.726 -0.2428 -0.3733 -0.7482
   34DOPE   H8Y 4357   3.152   4.233  13.680 -1.9742 -1.7268 -0.5760
   34DOPE   C39 4358   3.347   4.179  13.766 -0.1762  0.9974  0.0472
   34DOPE   H9X 4359   3.443   4.174  13.712  0.8870 -1.1009  1.9684
   34DOPE  C310 4360   3.343   4.209  13.892 -0.8168 -0.3247 -0.3241
   34DOPE  H10X 4361   3.439   4.225  13.943 -0.2532  0.0410 -1.4453
   34DOPE  C311 4362   3.227   4.213  13.992 -0.0001  0.0314 -0.2258
   34DOPE  H11X 4363   3.132   4.182  13.944  0.3666 -0.1563 -0.8407
   34DOPE  H11Y 4364   3.254   4.144  14.075 -0.8540 -3.5376 -2.6965
   34DOPE  C312 4365   3.203   4.354  14.049 -0.5446 -0.4655  0.3268
   34DOPE  H12X 4366   3.182   4.426  13.967 -0.6119 -0.1406  0.6275
   34DOPE  H12Y 4367   3.297   4.376  14.105 -0.8024 -0.9588  0.9773
   34DOPE  C313 4368   3.091   4.361  14.155  0.2009 -0.5325 -0.2267
   34DOPE  H13X 4369   2.991   4.352  14.106  0.0490 -0.8394  0.1413
   34DOPE  H13Y 4370   3.095   4.268  14.215 -0.2408 -0.1754  0.3707
   34DOPE  C314 4371   3.098   4.486  14.245 -0.0548 -0.0708 -0.1910
   34DOPE  H14X 4372   2.998   4.494  14.292 -0.5287 -1.1352 -0.9698
   34DOPE  H14Y 4373   3.107   4.576  14.181 -1.9892  0.2157 -0.1309
   34DOPE  C315 4374   3.207   4.490  14.348  0.0802 -0.1201  0.3206
   34DOPE  H15X 4375   3.303   4.500  14.293  0.8591 -3.4736  0.8155
   34DOPE  H15Y 4376   3.214   4.395  14.405  2.1098 -0.1022  0.1767
   34DOPE  C316 4377   3.173   4.600  14.453  0.2520 -0.1005 -0.0745
   34DOPE  H16X 4378   3.079   4.588  14.512  0.9473 -0.7770  0.9138
   34DOPE  H16Y 4379   3.178   4.695  14.394  1.3558 -0.4566 -0.5821
   34DOPE  C317 4380   3.275   4.628  14.562 -0.7848 -0.6470  0.2148
   34DOPE  H17X 4381   3.288   4.537  14.623 -1.9207  0.2608  1.8934
   34DOPE  H17Y 4382   3.375   4.650  14.519 -0.4205  1.9212  2.1259
   34DOPE  C318 4383   3.247   4.745  14.657  0.5249 -0.2765 -0.2847
   34DOPE  H18X 4384   3.231   4.845  14.609 -0.6608 -1.0589 -1.5839
   34DOPE  H18Y 4385   3.158   4.727  14.721  0.9691 -3.0619 -0.3429
   34DOPE  H18Z 4386   3.334   4.763  14.723  0.6494  0.1461 -0.5584
   35DOPE     N 4387   6.104   4.178  12.913  0.4800 -0.2744  0.2897
   35DOPE   HN1 4388   6.038   4.129  12.849  1.3485  0.2722 -1.0444
   35DOPE   HN2 4389   6.040   4.233  12.975  0.5918 -1.2655  1.3130
   35DOPE   HN3 4390   6.166   4.251  12.873 -1.0965  2.3501  2.2678
   35DOPE   C12 4391   6.183   4.084  12.995 -0.4723 -0.1914  0.1424
   35DOPE  H12A 4392   6.233   4.138  13.079 -0.9637 -1.0059  0.9795
   35DOPE  H12B 4393   6.254   4.042  12.921 -0.8975 -3.3958  1.4093
   35DOPE   C11 4394   6.091   3.972  13.049 -0.2300 -0.1136 -0.3649
   35DOPE  H11A 4395   6.006   4.026  13.095  1.0592 -0.9735  3.4678
   35DOPE  H11B 4396   6.137   3.920  13.136  1.6530  2.5253  0.3304
   35DOPE     P 4397   6.116   3.749  12.915  0.3096 -0.0148 -0.0302
   35DOPE   O13 4398   6.259   3.777  12.886  0.0194  0.0312 -0.1706
   35DOPE   O14 4399   6.045   3.668  12.813  0.0630 -0.1335 -0.4137
   35DOPE   O11 4400   6.109   3.681  13.056  0.6345  0.2037 -0.3138
   35DOPE   O12 4401   6.043   3.889  12.943 -0.0158 -0.2838 -0.3600
   35DOPE    C1 4402   6.002   3.588  13.075  0.4102 -0.1223  0.7220
   35DOPE    HA 4403   6.017   3.487  13.031  0.1173 -0.0406  0.4293
   35DOPE    HB 4404   5.908   3.623  13.026  0.8562  0.4681  0.2711
   35DOPE    C2 4405   5.955   3.576  13.220 -0.5646  0.1166  0.4114
   35DOPE    HS 4406   5.899   3.666  13.252  0.3101  0.5294  0.8347
   35DOPE   O21 4407   6.074   3.566  13.302 -0.2680 -0.6571 -0.0430
   35DOPE   C21 4408   6.089   3.640  13.408  0.8597  0.0564  0.2157
   35DOPE   O22 4409   6.017   3.741  13.423  0.3483 -0.2086  0.5831
   35DOPE   C22 4410   6.198   3.586  13.502  0.4435  0.6459  0.3308
   35DOPE   H2R 4411   6.288   3.650  13.487 -2.0227  4.0138 -1.4129
   35DOPE   H2S 4412   6.218   3.479  13.476 -2.2927  0.1312  0.0995
   35DOPE    C3 4413   5.866   3.446  13.250 -0.2483  0.0037  0.1847
   35DOPE    HX 4414   5.924   3.359  13.212 -2.0764 -1.2802  0.2365
   35DOPE    HY 4415   5.773   3.471  13.196 -2.0658 -0.8559  2.7164
   35DOPE   O31 4416   5.840   3.435  13.389 -0.4251 -0.2031 -0.2490
   35DOPE   C31 4417   5.784   3.322  13.433  0.2635 -0.7517 -0.4450
   35DOPE   O32 4418   5.755   3.228  13.358 -1.2422 -0.3277 -0.4905
   35DOPE   C32 4419   5.791   3.312  13.584  0.2454  0.2241  0.1779
   35DOPE   H2X 4420   5.867   3.379  13.631 -1.0326  0.0273  2.6814
   35DOPE   H2Y 4421   5.692   3.340  13.625  0.1925 -0.4320  0.5200
   35DOPE   C23 4422   6.144   3.596  13.645 -0.6150 -0.1964 -0.2500
   35DOPE   H3R 4423   6.055   3.531  13.664 -1.6541  0.7791 -1.5704
   35DOPE   H3S 4424   6.119   3.703  13.663 -0.8434 -0.3945  0.7035
   35DOPE   C24 4425   6.249   3.561  13.758  0.1843  0.3489 -0.2655
   35DOPE   H4R 4426   6.333   3.635  13.755  2.2116 -1.7317  1.4438
   35DOPE   H4S 4427   6.299   3.465  13.734  2.0433  1.3991 -0.8717
   35DOPE   C25 4428   6.190   3.547  13.903 -0.3627  0.5557 -0.4804
   35DOPE   H5R 4429   6.089   3.502  13.910 -0.6051  1.3375  3.3309
   35DOPE   H5S 4430   6.178   3.650  13.943 -1.4547  1.0143 -1.9187
   35DOPE   C26 4431   6.273   3.467  14.003 -0.4497 -0.4379  0.4895
   35DOPE   H6R 4432   6.375   3.510  13.989 -0.2781 -1.6158 -3.0890
   35DOPE   H6S 4433   6.269   3.360  13.973 -0.6209 -0.0826 -0.8096
   35DOPE   C27 4434   6.239   3.491  14.145  0.3344  0.1137  0.6620
   35DOPE   H7R 4435   6.134   3.470  14.173  0.3410 -1.1137 -0.1557
   35DOPE   H7S 4436   6.251   3.600  14.161  1.5127 -0.1425  1.6198
   35DOPE   C28 4437   6.321   3.401  14.240 -0.2014 -0.1098  0.2045
   35DOPE   H8R 4438   6.328   3.297  14.203  0.5685 -1.0142  2.6794
   35DOPE   H8S 4439   6.262   3.390  14.333 -0.2508 -0.3145  0.1492
   35DOPE   C29 4440   6.462   3.436  14.270 -0.3866 -0.6348  0.3663
   35DOPE   H9R 4441   6.511   3.483  14.183  0.3843 -1.8945  0.0899
   35DOPE  C210 4442   6.533   3.424  14.380  0.2068 -0.0702  0.2448
   35DOPE  H10R 4443   6.635   3.464  14.374  0.0115  0.3005 -0.9089
   35DOPE  C211 4444   6.478   3.365  14.505  0.7790 -0.4072 -0.6441
   35DOPE  H11R 4445   6.560   3.316  14.563 -0.1395  1.0171  2.0369
   35DOPE  H11S 4446   6.411   3.282  14.474  0.4382 -0.3655 -0.0210
   35DOPE  C212 4447   6.405   3.470  14.590 -0.0225 -0.2636 -0.0360
   35DOPE  H12R 4448   6.299   3.470  14.557  0.3480 -1.1387 -1.3071
   35DOPE  H12S 4449   6.441   3.572  14.566 -0.7380  0.3236  1.3044
   35DOPE  C213 4450   6.419   3.458  14.741  0.4989  0.0672 -0.3421
   35DOPE  H13R 4451   6.519   3.490  14.777  1.0172 -0.3491 -1.4079
   35DOPE  H13S 4452   6.413   3.353  14.775 -1.8130  0.5372  0.9456
   35DOPE  C214 4453   6.317   3.547  14.815 -0.4000 -0.0594  0.3283
   35DOPE  H14R 4454   6.285   3.496  14.908 -1.2687 -2.5772 -1.2474
   35DOPE  H14S 4455   6.218   3.552  14.765 -2.3333 -0.5307  3.8272
   35DOPE  C215 4456   6.358   3.688  14.838  0.0737 -0.6038 -0.2968
   35DOPE  H15R 4457   6.277   3.737  14.895  1.0843 -0.9200  1.4968
   35DOPE  H15S 4458   6.375   3.750  14.748  3.3452  1.0537  1.2685
   35DOPE  C216 4459   6.486   3.700  14.922  0.1747 -0.0721 -0.0102
   35DOPE  H16R 4460   6.504   3.810  14.923 -1.7638  0.4429 -3.6910
   35DOPE  H16S 4461   6.577   3.657  14.875 -1.4777 -2.0746 -1.5777
   35DOPE  C217 4462   6.474   3.666  15.070 -0.6675  0.5213 -0.1313
   35DOPE  H17R 4463   6.487   3.556  15.081  1.6366  0.8142  0.5641
   35DOPE  H17S 4464   6.374   3.693  15.110 -1.2227  0.0913 -1.2102
   35DOPE  C218 4465   6.581   3.735  15.153 -0.5360 -0.1903 -0.2141
   35DOPE  H18R 4466   6.571   3.705  15.260 -2.0361 -0.3820 -0.3921
   35DOPE  H18S 4467   6.563   3.844  15.147 -2.2337 -0.3401  1.3495
   35DOPE  H18T 4468   6.685   3.712  15.122 -0.3464  0.2959  0.0403
   35DOPE   C33 4469   5.824   3.170  13.632 -0.4844  0.7278  0.0646
   35DOPE   H3X 4470   5.925   3.147  13.594 -1.4314 -1.4637 -1.3932
   35DOPE   H3Y 4471   5.744   3.102  13.594  0.3247 -0.4169  0.3752
   35DOPE   C34 4472   5.836   3.165  13.781 -0.4265  0.4989 -0.6009
   35DOPE   H4X 4473   5.906   3.246  13.812 -1.6901  0.1596  3.7376
   35DOPE   H4Y 4474   5.739   3.202  13.820  1.0488  2.7218  1.2513
   35DOPE   C35 4475   5.886   3.030  13.831  0.0548  0.5660  0.1665
   35DOPE   H5X 4476   5.985   3.005  13.788 -0.3432 -0.1490 -0.3468
   35DOPE   H5Y 4477   5.813   2.949  13.807 -1.0376  1.0005  1.8735
   35DOPE   C36 4478   5.914   3.032  13.984 -0.4038 -0.2752  0.8609
   35DOPE   H6X 4479   5.816   3.048  14.032 -1.9795  0.5393 -2.3487
   35DOPE   H6Y 4480   5.969   3.128  13.992  0.6569 -0.7845 -0.0485
   35DOPE   C37 4481   5.987   2.912  14.031  0.2623  0.3792  0.2830
   35DOPE   H7X 4482   5.933   2.816  14.016 -0.3739  0.1768  3.2406
   35DOPE   H7Y 4483   6.090   2.912  13.988  0.5449  0.4631  0.9411
   35DOPE   C38 4484   6.014   2.923  14.181 -0.0209 -1.3376 -0.2947
   35DOPE   H8X 4485   5.922   2.956  14.233 -0.0902 -2.2352  0.1764
   35DOPE   H8Y 4486   6.085   3.009  14.174 -1.6123 -0.0187 -0.8745
   35DOPE   C39 4487   6.069   2.798  14.244  0.5124  0.4711 -0.0700
   35DOPE   H9X 4488   6.134   2.736  14.180 -0.0744  1.7826 -2.0289
   35DOPE  C310 4489   6.035   2.753  14.362  0.0182  0.2615 -0.8710
   35DOPE  H10X 4490   6.089   2.672  14.412 -0.0674  2.0838  2.4679
   35DOPE  C311 4491   5.924   2.804  14.450  0.0149 -0.2171 -0.6069
   35DOPE  H11X 4492   5.947   2.904  14.493  1.5952 -1.2840  1.2027
   35DOPE  H11Y 4493   5.827   2.803  14.397 -0.1615 -0.3960 -0.2814
   35DOPE  C312 4494   5.903   2.701  14.561 -0.0121  0.2002  0.0684
   35DOPE  H12X 4495   5.989   2.707  14.631  0.1433  3.4574 -0.2580
   35DOPE  H12Y 4496   5.895   2.597  14.521 -2.0013  0.8707 -1.4708
   35DOPE  C313 4497   5.778   2.720  14.656 -0.1600  0.2799  0.9847
   35DOPE  H13X 4498   5.791   2.819  14.706 -2.6546  1.1248  0.1326
   35DOPE  H13Y 4499   5.682   2.722  14.600 -0.7381 -0.1289  1.9295
   35DOPE  C314 4500   5.786   2.611  14.763  0.3146  0.0509 -0.1339
   35DOPE  H14X 4501   5.891   2.589  14.790 -0.4402 -2.4079  1.0826
   35DOPE  H14Y 4502   5.753   2.513  14.723  0.4932  0.4618 -1.3350
   35DOPE  C315 4503   5.706   2.657  14.890  0.4531  0.4105  0.2341
   35DOPE  H15X 4504   5.598   2.681  14.882  0.0117 -0.9372  1.6838
   35DOPE  H15Y 4505   5.761   2.747  14.926 -1.1215  0.8387  1.6792
   35DOPE  C316 4506   5.712   2.550  14.995  0.0192  0.0971 -0.0515
   35DOPE  H16X 4507   5.812   2.501  14.994  1.2528  2.4713 -0.4930
   35DOPE  H16Y 4508   5.637   2.472  14.968  1.0988 -0.9870 -0.0447
   35DOPE  C317 4509   5.695   2.597  15.141 -0.2648  0.3902 -0.7559
   35DOPE  H17X 4510   5.592   2.634  15.161 -0.7723 -0.8724 -0.9264
   35DOPE  H17Y 4511   5.703   2.500  15.195  0.0113  0.2884 -0.9760
   35DOPE  C318 4512   5.797   2.699  15.182 -0.6049 -0.2682  0.2611
   35DOPE  H18X 4513   5.894   2.680  15.131 -0.7153  1.9457 -0.8950
   35DOPE  H18Y 4514   5.768   2.797  15.138 -1.0559 -0.4651  0.1154
   35DOPE  H18Z 4515   5.801   2.707  15.293 -1.4925 -0.3423  0.2989
   36DOPE     N 4516   5.130   4.641  12.576 -0.0776 -0.6430 -0.5368
   36DOPE   HN1 4517   5.108   4.612  12.479  0.7320  0.5776 -1.1069
   36DOPE   HN2 4518   5.102   4.582  12.657 -0.0662  1.2480  0.9441
   36DOPE   HN3 4519   5.087   4.735  12.593  0.9656 -0.1088 -0.7763
   36DOPE   C12 4520   5.272   4.688  12.594  0.1578 -0.6681 -0.4492
   36DOPE  H12A 4521   5.304   4.746  12.505 -0.6363  2.5471  1.2040
   36DOPE  H12B 4522   5.332   4.595  12.605 -0.1337 -1.0984 -2.2302
   36DOPE   C11 4523   5.283   4.785  12.710  0.1266  0.2491  0.1478
   36DOPE  H11A 4524   5.387   4.821  12.723 -0.2509  1.5631 -0.3662
   36DOPE  H11B 4525   5.254   4.722  12.798 -0.0555  1.8369  1.2613
   36DOPE     P 4526   5.218   5.038  12.703  0.3690 -0.2752  0.2641
   36DOPE   O13 4527   5.095   5.113  12.666 -0.7613  0.7243 -0.0315
   36DOPE   O14 4528   5.349   5.081  12.646  1.1988  0.2330 -0.3288
   36DOPE   O11 4529   5.242   5.048  12.855  0.1752 -0.4228  0.0386
   36DOPE   O12 4530   5.190   4.892  12.687  0.3723 -0.1050 -0.1578
   36DOPE    C1 4531   5.153   4.994  12.956 -0.3157 -0.3807  0.3850
   36DOPE    HA 4532   5.113   4.894  12.929  2.7443 -2.3312  2.5045
   36DOPE    HB 4533   5.065   5.059  12.977  0.3886  0.0716  2.0657
   36DOPE    C2 4534   5.233   4.973  13.093  0.6964  0.3767  0.4592
   36DOPE    HS 4535   5.179   4.899  13.155  1.3198 -0.8766 -0.4413
   36DOPE   O21 4536   5.240   5.098  13.164 -0.4422 -0.4125  0.5016
   36DOPE   C21 4537   5.133   5.146  13.229 -0.0248 -0.1600  0.8462
   36DOPE   O22 4538   5.017   5.109  13.217 -0.0464  0.3758 -0.1215
   36DOPE   C22 4539   5.175   5.262  13.325  0.5561  0.4757 -0.2030
   36DOPE   H2R 4540   5.139   5.350  13.268 -0.3706 -0.8966 -1.8359
   36DOPE   H2S 4541   5.285   5.262  13.341  0.5422  1.2992 -0.0790
   36DOPE    C3 4542   5.380   4.922  13.075 -0.1637 -0.2821  0.2821
   36DOPE    HX 4543   5.423   5.008  13.019 -2.0902  0.3813 -0.2580
   36DOPE    HY 4544   5.369   4.830  13.014  0.0930 -0.9121  1.1669
   36DOPE   O31 4545   5.455   4.908  13.199 -0.1890  0.0952 -0.0617
   36DOPE   C31 4546   5.412   4.811  13.276 -0.1504 -0.3418  0.5859
   36DOPE   O32 4547   5.304   4.751  13.260 -0.0825 -0.1904  0.3242
   36DOPE   C32 4548   5.511   4.797  13.388  0.7420  0.1833  0.0469
   36DOPE   H2X 4549   5.614   4.804  13.347  0.4481 -2.8074 -1.5046
   36DOPE   H2Y 4550   5.485   4.868  13.469 -1.5426 -2.0091  1.3449
   36DOPE   C23 4551   5.101   5.257  13.464  0.3955  0.3196  0.8282
   36DOPE   H3R 4552   4.994   5.286  13.458 -0.2287 -1.9137  0.4258
   36DOPE   H3S 4553   5.133   5.332  13.540 -1.5150  0.8128  1.1881
   36DOPE   C24 4554   5.129   5.130  13.542 -1.0382  0.4678  0.2852
   36DOPE   H4R 4555   5.239   5.135  13.554 -0.5621 -0.1191 -3.0134
   36DOPE   H4S 4556   5.097   5.059  13.463  3.4918 -0.4419 -0.9994
   36DOPE   C25 4557   5.048   5.113  13.675 -0.2293  0.1303 -0.6899
   36DOPE   H5R 4558   5.042   5.006  13.705 -0.5350  0.0553 -1.0085
   36DOPE   H5S 4559   4.941   5.138  13.659 -0.0640  1.8805  0.6134
   36DOPE   C26 4560   5.091   5.201  13.792 -0.6106  0.5567 -0.2322
   36DOPE   H6R 4561   5.081   5.311  13.782  3.6732  1.1865  0.5348
   36DOPE   H6S 4562   5.196   5.172  13.815 -0.9985 -0.2867  0.5411
   36DOPE   C27 4563   5.008   5.162  13.917  0.4748 -0.6383 -0.1945
   36DOPE   H7R 4564   4.910   5.133  13.874 -0.4081  0.2354  1.1517
   36DOPE   H7S 4565   4.988   5.256  13.973 -0.2461 -1.3288  0.7381
   36DOPE   C28 4566   5.076   5.060  14.015  0.6465 -0.3361  0.3799
   36DOPE   H8R 4567   5.185   5.081  14.009  1.1763 -2.4589  1.7183
   36DOPE   H8S 4568   5.065   4.960  13.968 -1.8745  1.0417 -2.3604
   36DOPE   C29 4569   5.035   5.059  14.165  0.0168  0.0916  1.3381
   36DOPE   H9R 4570   5.053   5.155  14.214  0.1201  0.6659  0.2112
   36DOPE  C210 4571   4.966   4.966  14.235  0.5374  0.1422 -0.3205
   36DOPE  H10R 4572   4.959   4.991  14.342 -0.7501  0.5805 -0.4901
   36DOPE  C211 4573   4.924   4.828  14.187  0.2743  0.1993  0.2340
   36DOPE  H11R 4574   4.912   4.825  14.077 -0.7778  0.8721  0.3199
   36DOPE  H11S 4575   4.824   4.800  14.226 -0.1057 -1.9559 -2.0473
   36DOPE  C212 4576   5.030   4.724  14.235 -0.4147  0.4131  0.2468
   36DOPE  H12R 4577   5.068   4.748  14.336 -0.8173 -1.0708  0.7878
   36DOPE  H12S 4578   5.116   4.715  14.165  0.5488  1.3862  1.2730
   36DOPE  C213 4579   4.973   4.581  14.245 -0.2977  0.0698  0.0050
   36DOPE  H13R 4580   4.936   4.550  14.144 -0.1942 -0.6308  0.1743
   36DOPE  H13S 4581   4.889   4.589  14.318  0.9198  0.3299  1.4196
   36DOPE  C214 4582   5.069   4.477  14.304 -0.1704 -0.0745  0.6278
   36DOPE  H14R 4583   5.086   4.504  14.411  0.9504  1.4239  0.0989
   36DOPE  H14S 4584   5.162   4.507  14.251 -0.4369 -0.7075 -0.2179
   36DOPE  C215 4585   5.034   4.328  14.286  0.0344  0.4999  0.1831
   36DOPE  H15R 4586   5.124   4.266  14.305 -2.3056 -4.1582 -1.9707
   36DOPE  H15S 4587   5.010   4.303  14.180  0.9358 -0.9647  0.2874
   36DOPE  C216 4588   4.909   4.299  14.375  0.5021 -0.3813  0.0591
   36DOPE  H16R 4589   4.823   4.366  14.356  0.7171  0.1893  0.9943
   36DOPE  H16S 4590   4.936   4.335  14.477 -0.4158 -0.8497  0.4791
   36DOPE  C217 4591   4.849   4.156  14.377  0.5515 -0.9552  0.3794
   36DOPE  H17R 4592   4.788   4.137  14.468  1.2456 -0.0789  1.0460
   36DOPE  H17S 4593   4.932   4.084  14.369  0.9745 -0.4711  0.3631
   36DOPE  C218 4594   4.766   4.125  14.254  0.2470 -0.2153  0.4558
   36DOPE  H18R 4595   4.668   4.177  14.264  0.6325  0.6309 -0.0099
   36DOPE  H18S 4596   4.750   4.016  14.237  2.5563 -0.4419 -0.6401
   36DOPE  H18T 4597   4.810   4.164  14.160 -0.7368 -0.5435 -0.1625
   36DOPE   C33 4598   5.508   4.649  13.438 -0.1836  0.1121  0.5334
   36DOPE   H3X 4599   5.533   4.567  13.368  1.4416  0.8971  0.1579
   36DOPE   H3Y 4600   5.407   4.634  13.482 -0.5370  0.6603 -0.0703
   36DOPE   C34 4601   5.602   4.616  13.551 -0.4716 -0.0039 -0.7745
   36DOPE   H4X 4602   5.705   4.631  13.513 -0.1615 -2.4370 -1.0728
   36DOPE   H4Y 4603   5.584   4.680  13.640  1.3492 -0.0368 -0.3518
   36DOPE   C35 4604   5.571   4.473  13.584 -0.0937  0.4061 -0.1466
   36DOPE   H5X 4605   5.571   4.407  13.495  2.1202 -2.0686  1.5432
   36DOPE   H5Y 4606   5.473   4.452  13.632  0.5143 -0.0556  0.9215
   36DOPE   C36 4607   5.678   4.420  13.682  0.2455 -0.7969  0.1975
   36DOPE   H6X 4608   5.674   4.471  13.781  0.4993  0.6296 -0.5009
   36DOPE   H6Y 4609   5.782   4.436  13.647 -0.1011  2.0003  0.1962
   36DOPE   C37 4610   5.661   4.275  13.714  0.0283 -0.4916 -0.5096
   36DOPE   H7X 4611   5.555   4.247  13.729  0.3694 -1.5075  0.0942
   36DOPE   H7Y 4612   5.698   4.209  13.632  0.7967 -0.5913 -0.0895
   36DOPE   C38 4613   5.731   4.239  13.851 -0.6671 -0.0589  0.3476
   36DOPE   H8X 4614   5.697   4.136  13.876 -0.1690 -0.1376  0.7164
   36DOPE   H8Y 4615   5.702   4.311  13.931 -3.5113 -0.7859  0.0787
   36DOPE   C39 4616   5.880   4.240  13.826  0.0908  0.2645  0.1646
   36DOPE   H9X 4617   5.907   4.230  13.720 -0.6506  0.9963 -0.1020
   36DOPE  C310 4618   5.968   4.294  13.906  0.0647 -0.4048 -0.3027
   36DOPE  H10X 4619   6.074   4.288  13.875  0.6661 -1.5359  1.7690
   36DOPE  C311 4620   5.931   4.342  14.043 -0.4209  0.2582 -0.5234
   36DOPE  H11X 4621   6.014   4.413  14.060  0.3277 -0.3918 -1.3593
   36DOPE  H11Y 4622   5.832   4.392  14.050 -0.8221 -0.3626 -1.4782
   36DOPE  C312 4623   5.934   4.231  14.156  1.0471 -0.0123 -0.0664
   36DOPE  H12X 4624   6.017   4.160  14.136  0.9584  0.2759 -1.5939
   36DOPE  H12Y 4625   5.847   4.162  14.146  0.4746  0.8137 -1.0044
   36DOPE  C313 4626   5.956   4.283  14.294  0.3795  0.2494 -0.0864
   36DOPE  H13X 4627   6.059   4.327  14.295  1.5097 -2.2108 -0.7736
   36DOPE  H13Y 4628   5.878   4.360  14.312 -0.8394 -0.7562 -0.9249
   36DOPE  C314 4629   5.946   4.183  14.407 -0.1982  0.2511 -0.8604
   36DOPE  H14X 4630   6.033   4.115  14.396  0.6332  0.9891  0.8799
   36DOPE  H14Y 4631   5.853   4.123  14.405 -1.0729  1.3256  2.2800
   36DOPE  C315 4632   5.957   4.234  14.554  0.0832 -0.7151 -0.0601
   36DOPE  H15X 4633   5.868   4.284  14.598  1.3337  1.1479  0.5019
   36DOPE  H15Y 4634   6.033   4.314  14.544 -1.5221  0.9244  0.2505
   36DOPE  C316 4635   5.998   4.127  14.655  0.7384 -0.2504  0.3269
   36DOPE  H16X 4636   5.961   4.028  14.620 -0.4900 -1.6654  5.0055
   36DOPE  H16Y 4637   5.955   4.144  14.756 -2.0127  1.8026 -1.0415
   36DOPE  C317 4638   6.150   4.118  14.670 -0.6261 -0.5789  0.3263
   36DOPE  H17X 4639   6.194   4.027  14.716  0.2286  0.1508  1.0140
   36DOPE  H17Y 4640   6.192   4.133  14.568 -1.5016 -2.5675 -0.3524
   36DOPE  C318 4641   6.203   4.237  14.752 -0.0376 -0.3609 -0.1656
   36DOPE  H18X 4642   6.171   4.234  14.859  0.0163  0.0040 -0.1403
   36DOPE  H18Y 4643   6.313   4.245  14.743 -0.2107  0.0507 -2.7003
   36DOPE  H18Z 4644   6.152   4.328  14.715 -2.2332 -0.0668  3.1318
   37DOPE     N 4645   2.204   2.978  12.761  0.6394  0.4705 -0.2276
   37DOPE   HN1 4646   2.195   2.983  12.864 -0.9920  3.1556 -0.4090
   37DOPE   HN2 4647   2.259   3.055  12.719  0.9270  1.8163  2.3887
   37DOPE   HN3 4648   2.104   2.980  12.732  0.8350 -0.1517 -1.0021
   37DOPE   C12 4649   2.260   2.845  12.714  0.1438 -0.0764  0.1313
   37DOPE  H12A 4650   2.215   2.777  12.789  1.2327  2.6742  3.5412
   37DOPE  H12B 4651   2.370   2.856  12.726  0.2032  0.8895 -1.0901
   37DOPE   C11 4652   2.232   2.818  12.567 -0.2534 -0.4173  0.3459
   37DOPE  H11A 4653   2.126   2.841  12.540  0.6574  0.1823 -3.2967
   37DOPE  H11B 4654   2.236   2.712  12.534 -0.3216  0.2101 -1.8531
   37DOPE     P 4655   2.327   3.038  12.427 -0.3616 -0.0657 -0.1287
   37DOPE   O13 4656   2.201   3.072  12.364  0.3267 -0.1355  0.1850
   37DOPE   O14 4657   2.451   3.053  12.344  0.3480  0.0970  0.9104
   37DOPE   O11 4658   2.340   3.113  12.563  0.7787 -0.1125 -0.6445
   37DOPE   O12 4659   2.325   2.896  12.485 -0.1814  0.3739  0.2539
   37DOPE    C1 4660   2.380   3.247  12.578 -0.2345  0.2533  0.5995
   37DOPE    HA 4661   2.364   3.313  12.490  1.6143  0.4732  0.4034
   37DOPE    HB 4662   2.488   3.252  12.602 -0.2634 -0.7857  0.9789
   37DOPE    C2 4663   2.312   3.310  12.693 -0.3699  0.4422 -0.4964
   37DOPE    HS 4664   2.352   3.413  12.703  2.2633 -0.6804  3.0648
   37DOPE   O21 4665   2.344   3.228  12.808 -0.2630  0.6655  0.4738
   37DOPE   C21 4666   2.451   3.269  12.880  0.7505  0.6558  0.0188
   37DOPE   O22 4667   2.525   3.360  12.852  0.1441  0.1334  0.0184
   37DOPE   C22 4668   2.463   3.173  13.002  0.2102  0.1624 -0.6449
   37DOPE   H2R 4669   2.469   3.067  12.969  1.2447 -0.1719  0.4908
   37DOPE   H2S 4670   2.380   3.195  13.072 -0.7315  1.8024 -2.1943
   37DOPE    C3 4671   2.159   3.324  12.671 -0.6633 -0.3273  0.2492
   37DOPE    HX 4672   2.121   3.260  12.588 -1.8744  1.0168 -0.2918
   37DOPE    HY 4673   2.128   3.421  12.625 -1.3247 -0.3663  0.5870
   37DOPE   O31 4674   2.086   3.298  12.790  0.1602 -0.1253  0.7469
   37DOPE   C31 4675   2.040   3.404  12.852  1.4394 -0.8653 -0.8836
   37DOPE   O32 4676   2.050   3.522  12.814 -0.3883  0.2875 -0.4438
   37DOPE   C32 4677   1.969   3.357  12.986  0.1866 -0.2791 -0.2158
   37DOPE   H2X 4678   1.903   3.441  13.015 -0.3859 -0.9962  0.5925
   37DOPE   H2Y 4679   1.904   3.271  12.960 -0.3803  0.2128 -0.4362
   37DOPE   C23 4680   2.592   3.194  13.080 -0.0297 -0.7795 -0.1777
   37DOPE   H3R 4681   2.596   3.300  13.115  0.1061 -2.1948  4.8063
   37DOPE   H3S 4682   2.677   3.157  13.019 -1.1634 -1.6143 -1.2914
   37DOPE   C24 4683   2.593   3.108  13.206 -0.2221 -0.4827  0.7900
   37DOPE   H4R 4684   2.602   3.001  13.177  1.2155 -0.0219 -0.5913
   37DOPE   H4S 4685   2.493   3.115  13.254 -1.5090 -1.1429 -1.6490
   37DOPE   C25 4686   2.695   3.144  13.311 -0.9273 -0.0377 -0.4284
   37DOPE   H5R 4687   2.799   3.148  13.273  0.7407 -2.5706  3.2108
   37DOPE   H5S 4688   2.712   3.072  13.395 -0.6245  2.1430  1.4801
   37DOPE   C26 4689   2.672   3.275  13.381  0.2708 -0.0003 -0.7253
   37DOPE   H6R 4690   2.573   3.286  13.428  0.3801 -2.0318  0.1093
   37DOPE   H6S 4691   2.676   3.359  13.309 -0.0395  2.0087  1.5015
   37DOPE   C27 4692   2.777   3.307  13.490  0.5690 -0.1216 -0.1697
   37DOPE   H7R 4693   2.773   3.416  13.509 -0.8837 -0.4015  1.2831
   37DOPE   H7S 4694   2.879   3.295  13.446  0.9552  0.9532  0.4005
   37DOPE   C28 4695   2.757   3.234  13.623 -0.7846 -0.2202  0.0724
   37DOPE   H8R 4696   2.776   3.127  13.598  0.1035 -0.4723  1.6894
   37DOPE   H8S 4697   2.654   3.245  13.663 -0.8025 -1.2122  0.3373
   37DOPE   C29 4698   2.859   3.283  13.726  0.2278 -0.3101 -0.2512
   37DOPE   H9R 4699   2.959   3.253  13.690 -0.1905 -0.0872 -1.6702
   37DOPE  C210 4700   2.844   3.362  13.836  0.0958  0.4378  0.5423
   37DOPE  H10R 4701   2.932   3.380  13.899  1.5681  0.4077 -1.4047
   37DOPE  C211 4702   2.715   3.422  13.890  0.3238 -0.9717 -0.0249
   37DOPE  H11R 4703   2.639   3.452  13.815 -2.8328  2.4342  4.0076
   37DOPE  H11S 4704   2.740   3.520  13.937  1.9676 -0.7183 -1.3370
   37DOPE  C212 4705   2.647   3.336  13.993 -0.2318 -0.3666  0.1570
   37DOPE  H12R 4706   2.616   3.243  13.941 -0.8118 -0.3842  0.5179
   37DOPE  H12S 4707   2.551   3.387  14.018 -1.7569 -2.0259 -1.9255
   37DOPE  C213 4708   2.724   3.304  14.120 -0.4915 -0.0471 -0.7169
   37DOPE  H13R 4709   2.817   3.249  14.094  2.0293  3.7186 -0.3456
   37DOPE  H13S 4710   2.662   3.235  14.182  0.1323 -0.4072 -0.4884
   37DOPE  C214 4711   2.764   3.434  14.201 -0.4696  0.0264  0.0727
   37DOPE  H14R 4712   2.677   3.502  14.191 -0.6689 -0.5016 -2.2373
   37DOPE  H14S 4713   2.840   3.493  14.147  0.3254  0.2437  1.3832
   37DOPE  C215 4714   2.790   3.403  14.348  0.6687  0.1926  0.2662
   37DOPE  H15R 4715   2.698   3.381  14.407  1.8347 -2.4386  1.2965
   37DOPE  H15S 4716   2.836   3.491  14.397 -0.4883  0.5030  0.8291
   37DOPE  C216 4717   2.895   3.290  14.377  0.0303 -0.0616  0.2695
   37DOPE  H16R 4718   2.981   3.292  14.307 -1.1842  0.4732 -1.2658
   37DOPE  H16S 4719   2.850   3.189  14.372 -0.3209  0.0900  0.2973
   37DOPE  C217 4720   2.947   3.309  14.518 -0.0239  0.3718 -0.5137
   37DOPE  H17R 4721   2.991   3.212  14.548 -2.9980 -0.1535  2.7611
   37DOPE  H17S 4722   2.868   3.338  14.591  1.0703 -0.4555  1.0526
   37DOPE  C218 4723   3.052   3.416  14.546 -0.0984  0.5782  0.4539
   37DOPE  H18R 4724   3.026   3.513  14.498  1.4858  1.3618  1.1040
   37DOPE  H18S 4725   3.145   3.377  14.501  1.6313  1.2878  3.1992
   37DOPE  H18T 4726   3.076   3.438  14.652 -2.4903  0.7862  1.0200
   37DOPE   C33 4727   2.073   3.311  13.098  0.7990  0.1925  0.0750
   37DOPE   H3X 4728   2.159   3.254  13.058  0.0124 -1.3998  0.5439
   37DOPE   H3Y 4729   2.022   3.243  13.169  1.3168 -0.2367  0.0418
   37DOPE   C34 4730   2.112   3.426  13.188  0.6798  0.0452  0.1268
   37DOPE   H4X 4731   2.135   3.516  13.126 -2.9052 -0.4851 -2.3101
   37DOPE   H4Y 4732   2.036   3.460  13.261  1.0492 -1.3613  1.1972
   37DOPE   C35 4733   2.239   3.391  13.276 -0.0009 -0.1715  0.4605
   37DOPE   H5X 4734   2.277   3.492  13.302 -1.7616  0.4525  0.8001
   37DOPE   H5Y 4735   2.321   3.335  13.226  0.5555 -0.9615  2.2080
   37DOPE   C36 4736   2.198   3.317  13.404 -0.0741 -0.1248 -0.1206
   37DOPE   H6X 4737   2.166   3.216  13.370  0.4322 -0.3812  0.1498
   37DOPE   H6Y 4738   2.117   3.380  13.447  1.4338  1.6398  0.2997
   37DOPE   C37 4739   2.323   3.308  13.486 -0.4192 -0.6537 -0.4751
   37DOPE   H7X 4740   2.386   3.224  13.450  1.7586  0.3176  0.8545
   37DOPE   H7Y 4741   2.382   3.400  13.465 -2.0802  1.2671  2.5776
   37DOPE   C38 4742   2.310   3.303  13.638 -0.4397  0.3906  0.1445
   37DOPE   H8X 4743   2.270   3.404  13.658  0.2269  0.9865 -1.3630
   37DOPE   H8Y 4744   2.407   3.297  13.691  0.6750  1.9610 -1.5928
   37DOPE   C39 4745   2.210   3.200  13.681  0.2540  0.0967 -0.4806
   37DOPE   H9X 4746   2.116   3.194  13.623 -1.7321 -2.3578  2.6604
   37DOPE  C310 4747   2.221   3.103  13.772  0.2052  0.0292 -0.6042
   37DOPE  H10X 4748   2.137   3.033  13.788  0.9516 -0.7634 -0.0322
   37DOPE  C311 4749   2.342   3.058  13.846  0.4657  0.5576 -0.1031
   37DOPE  H11X 4750   2.358   2.955  13.807  0.1884  0.3384  0.3467
   37DOPE  H11Y 4751   2.437   3.110  13.821  0.6026  0.7456  0.7743
   37DOPE  C312 4752   2.325   3.045  14.000  0.5301  0.0422  0.0510
   37DOPE  H12X 4753   2.238   2.982  14.028 -0.3272  0.4905 -1.4822
   37DOPE  H12Y 4754   2.310   3.148  14.038 -2.0861 -0.3363  0.1867
   37DOPE  C313 4755   2.456   2.989  14.071 -0.4392  0.4248  1.0708
   37DOPE  H13X 4756   2.486   2.898  14.016  0.4906  1.6930 -0.6299
   37DOPE  H13Y 4757   2.540   3.059  14.055  0.1062 -0.3005  0.7360
   37DOPE  C314 4758   2.441   2.973  14.222  0.0141 -0.5069  0.2386
   37DOPE  H14X 4759   2.354   2.906  14.237 -0.3225 -0.3589 -0.9157
   37DOPE  H14Y 4760   2.418   3.075  14.260  1.9169  0.3964 -0.8671
   37DOPE  C315 4761   2.566   2.917  14.281 -0.1709 -0.7257 -0.2765
   37DOPE  H15X 4762   2.633   3.003  14.261 -1.1751  0.1734  0.1510
   37DOPE  H15Y 4763   2.601   2.824  14.230 -0.4516 -1.1510  0.2942
   37DOPE  C316 4764   2.565   2.905  14.434 -0.1994  0.0644 -0.1925
   37DOPE  H16X 4765   2.615   2.813  14.471 -0.8868 -0.6760 -1.0469
   37DOPE  H16Y 4766   2.458   2.891  14.460 -0.3650  1.9383  0.3123
   37DOPE  C317 4767   2.611   3.023  14.512 -0.0572 -0.0898  0.3963
   37DOPE  H17X 4768   2.722   3.029  14.521 -0.0121 -0.3761  0.0574
   37DOPE  H17Y 4769   2.579   3.119  14.467  2.2714  1.5095  1.8942
   37DOPE  C318 4770   2.569   3.012  14.657  0.4765  0.4526  0.1297
   37DOPE  H18X 4771   2.458   3.008  14.669  0.2343 -0.9197 -2.0874
   37DOPE  H18Y 4772   2.614   2.916  14.690 -1.7188 -0.0821  1.8029
   37DOPE  H18Z 4773   2.608   3.094  14.721 -0.5584 -0.0750  1.4853
   38DOPE     N 4774   4.796   4.998  13.078  0.1690  0.3745 -0.1696
   38DOPE   HN1 4775   4.879   5.003  13.140  0.0887  1.6694 -0.1364
   38DOPE   HN2 4776   4.775   4.910  13.026 -0.0837  0.5629 -0.3958
   38DOPE   HN3 4777   4.803   5.081  13.015 -0.0129  0.6430  0.1631
   38DOPE   C12 4778   4.679   5.024  13.159 -0.8497  0.5800  0.2855
   38DOPE  H12A 4779   4.724   5.035  13.260  0.6951 -4.3350  0.3954
   38DOPE  H12B 4780   4.619   4.932  13.178 -1.0246  1.1556  2.8857
   38DOPE   C11 4781   4.582   5.129  13.101  0.5797  0.3869  0.3626
   38DOPE  H11A 4782   4.502   5.146  13.177 -1.3197 -3.5861 -0.4663
   38DOPE  H11B 4783   4.542   5.077  13.012  0.4377 -2.7973  2.1320
   38DOPE     P 4784   4.560   5.369  13.005 -0.4240 -0.3419  0.1750
   38DOPE   O13 4785   4.475   5.328  12.892  0.2323 -0.3783  0.1810
   38DOPE   O14 4786   4.652   5.491  12.987  0.0900  0.0229  0.4072
   38DOPE   O11 4787   4.462   5.410  13.118 -0.0540 -0.3446 -0.2694
   38DOPE   O12 4788   4.650   5.248  13.057  0.1100 -0.1151 -0.3659
   38DOPE    C1 4789   4.493   5.416  13.261 -0.2402  0.2430  0.6592
   38DOPE    HA 4790   4.578   5.345  13.275 -1.7215 -1.8777 -0.5941
   38DOPE    HB 4791   4.400   5.380  13.309 -0.4358 -0.7747 -0.4600
   38DOPE    C2 4792   4.520   5.555  13.317 -0.2389  0.6418  0.2044
   38DOPE    HS 4793   4.617   5.603  13.294 -0.6800  0.6482 -1.8385
   38DOPE   O21 4794   4.504   5.560  13.458 -0.7126 -0.3676 -0.3051
   38DOPE   C21 4795   4.612   5.508  13.521  0.4592 -0.9318 -0.5402
   38DOPE   O22 4796   4.715   5.466  13.474 -0.2997 -0.4854  0.9217
   38DOPE   C22 4797   4.576   5.518  13.669  0.2502  0.0904  0.3450
   38DOPE   H2R 4798   4.521   5.423  13.686 -0.0833 -0.0841 -1.5034
   38DOPE   H2S 4799   4.511   5.606  13.685 -2.4808 -1.7537  0.0086
   38DOPE    C3 4800   4.425   5.658  13.257  0.3921 -0.7227 -0.0532
   38DOPE    HX 4801   4.322   5.617  13.267 -0.1556  0.6543  0.1613
   38DOPE    HY 4802   4.448   5.673  13.149 -1.9799 -2.4538 -0.8861
   38DOPE   O31 4803   4.428   5.787  13.326  0.0079  0.3550 -0.0710
   38DOPE   C31 4804   4.332   5.872  13.294  0.2595  0.1586  0.1283
   38DOPE   O32 4805   4.232   5.839  13.234 -0.1756 -0.1126 -0.0913
   38DOPE   C32 4806   4.372   6.010  13.346  0.8002 -0.1558 -0.2380
   38DOPE   H2X 4807   4.407   5.993  13.450 -0.5235  2.7235  0.7713
   38DOPE   H2Y 4808   4.458   6.046  13.286 -0.4855  0.9497 -1.5086
   38DOPE   C23 4809   4.695   5.518  13.770 -0.1227 -0.0482 -0.1670
   38DOPE   H3R 4810   4.760   5.603  13.741  0.6472 -1.1775 -1.9840
   38DOPE   H3S 4811   4.751   5.424  13.748 -1.3638 -0.5854 -1.1516
   38DOPE   C24 4812   4.667   5.515  13.922 -0.4410 -0.2206 -0.3881
   38DOPE   H4R 4813   4.621   5.418  13.952  0.6966 -0.4363  0.7296
   38DOPE   H4S 4814   4.604   5.606  13.930  1.2910  1.0302 -0.6996
   38DOPE   C25 4815   4.798   5.533  14.003  0.0505  0.1193 -0.1997
   38DOPE   H5R 4816   4.849   5.624  13.965 -1.0532  0.4338 -0.9741
   38DOPE   H5S 4817   4.870   5.448  13.995  0.5444  0.4574  0.5281
   38DOPE   C26 4818   4.784   5.567  14.151 -0.0603 -0.1174  0.5403
   38DOPE   H6R 4819   4.728   5.488  14.205  0.3376 -1.1148 -0.4676
   38DOPE   H6S 4820   4.725   5.661  14.154  2.5811  1.8078 -2.0944
   38DOPE   C27 4821   4.919   5.586  14.229  0.1747  0.0332  0.5080
   38DOPE   H7R 4822   4.963   5.485  14.241 -1.3353 -0.6451  0.5274
   38DOPE   H7S 4823   4.892   5.610  14.334 -0.7131 -3.6147  1.2592
   38DOPE   C28 4824   5.024   5.691  14.173 -0.2782 -0.3996 -0.5232
   38DOPE   H8R 4825   5.071   5.644  14.084  0.4022 -0.8305  0.0399
   38DOPE   H8S 4826   5.102   5.702  14.251 -1.6994  2.0305  0.6554
   38DOPE   C29 4827   4.949   5.818  14.158  0.2103  0.5771  0.1108
   38DOPE   H9R 4828   4.925   5.848  14.054  2.2145  3.3580  0.3099
   38DOPE  C210 4829   4.930   5.901  14.261  1.0095 -0.2570  0.2868
   38DOPE  H10R 4830   4.885   6.000  14.246 -1.5257 -1.3923 -0.1799
   38DOPE  C211 4831   4.958   5.890  14.418  0.0104 -0.5732  0.7627
   38DOPE  H11R 4832   4.988   5.787  14.448 -0.0852 -0.9670 -0.4363
   38DOPE  H11S 4833   4.865   5.920  14.470 -0.2164  1.0088 -0.4886
   38DOPE  C212 4834   5.071   5.987  14.463 -0.3189  0.8995  0.3025
   38DOPE  H12R 4835   5.044   6.091  14.434  0.7379  0.7596 -1.3966
   38DOPE  H12S 4836   5.163   5.962  14.405 -0.0164 -0.1789  1.2151
   38DOPE  C213 4837   5.107   5.984  14.618  0.2827  0.0566 -0.6246
   38DOPE  H13R 4838   5.175   6.066  14.651  1.5099 -1.5409  1.0154
   38DOPE  H13S 4839   5.158   5.889  14.644 -1.5049 -1.3938 -2.2123
   38DOPE  C214 4840   4.983   5.987  14.712  0.4578 -0.2950  0.1728
   38DOPE  H14R 4841   4.923   5.897  14.688  1.0610 -1.1822  1.8020
   38DOPE  H14S 4842   4.926   6.077  14.680  0.5443 -0.4353 -0.3977
   38DOPE  C215 4843   5.029   6.000  14.859  0.1065 -1.1775  0.8558
   38DOPE  H15R 4844   5.079   6.099  14.866 -0.5331 -0.8647  1.1555
   38DOPE  H15S 4845   5.100   5.919  14.884 -0.4192 -2.6445 -2.0033
   38DOPE  C216 4846   4.914   5.983  14.964 -0.2451  0.0139 -0.5431
   38DOPE  H16R 4847   4.958   6.018  15.060 -0.8863 -0.4923 -0.0580
   38DOPE  H16S 4848   4.875   5.880  14.980  2.1188 -0.5209  3.1867
   38DOPE  C217 4849   4.783   6.065  14.958 -0.7566  0.1877 -0.2018
   38DOPE  H17R 4850   4.746   6.054  14.854 -1.7379  0.9959  0.0359
   38DOPE  H17S 4851   4.810   6.172  14.973  0.0869 -0.2201  1.4716
   38DOPE  C218 4852   4.665   6.037  15.053 -0.3156 -0.1130  0.0247
   38DOPE  H18R 4853   4.632   5.931  15.044 -0.2032 -0.0338 -1.5076
   38DOPE  H18S 4854   4.584   6.109  15.030 -0.1818  0.3104  0.8606
   38DOPE  H18T 4855   4.700   6.058  15.156 -0.6079 -1.5322  0.4309
   38DOPE   C33 4856   4.258   6.110  13.342  0.4784  0.2666 -0.1031
   38DOPE   H3X 4857   4.169   6.045  13.358  1.4828 -1.1247 -0.0291
   38DOPE   H3Y 4858   4.249   6.127  13.233  2.1299 -1.2348 -0.5214
   38DOPE   C34 4859   4.262   6.228  13.438  0.0466  0.6742 -0.2982
   38DOPE   H4X 4860   4.225   6.182  13.533 -1.8688  2.1924 -0.2328
   38DOPE   H4Y 4861   4.364   6.268  13.452  0.3245  0.4971 -1.6692
   38DOPE   C35 4862   4.166   6.346  13.423 -0.8032  0.7219 -0.1225
   38DOPE   H5X 4863   4.064   6.302  13.436  0.8598 -2.9644  1.8244
   38DOPE   H5Y 4864   4.181   6.383  13.319 -1.2273  1.4802  0.0756
   38DOPE   C36 4865   4.200   6.454  13.514  0.5127 -0.7652  0.0590
   38DOPE   H6X 4866   4.135   6.542  13.492 -0.8790 -1.6239  0.5450
   38DOPE   H6Y 4867   4.305   6.490  13.510  0.7234 -1.0782  1.7961
   38DOPE   C37 4868   4.170   6.423  13.664 -0.5026  0.2650  0.9132
   38DOPE   H7X 4869   4.074   6.368  13.665 -0.5971  0.3696 -0.3818
   38DOPE   H7Y 4870   4.253   6.353  13.690  0.1550  1.1023  1.0932
   38DOPE   C38 4871   4.162   6.540  13.765  0.4193  0.2361  0.4755
   38DOPE   H8X 4872   4.135   6.490  13.861 -2.3775  1.2358  0.2974
   38DOPE   H8Y 4873   4.074   6.604  13.744  0.2355 -0.7638 -2.0846
   38DOPE   C39 4874   4.287   6.631  13.770 -0.3584  0.2390 -0.5734
   38DOPE   H9X 4875   4.322   6.669  13.673  1.2402  2.3690  0.7486
   38DOPE  C310 4876   4.371   6.640  13.880  0.6697 -0.0559 -0.6185
   38DOPE  H10X 4877   4.455   6.711  13.868  0.6658  0.2018  0.6786
   38DOPE  C311 4878   4.347   6.574  14.014 -1.2030  0.6681 -0.0981
   38DOPE  H11X 4879   4.238   6.557  14.034 -0.8543  0.8766  2.3868
   38DOPE  H11Y 4880   4.400   6.476  14.018  1.4988  2.0655  0.6800
   38DOPE  C312 4881   4.420   6.646  14.135  0.0882  0.4905  0.2062
   38DOPE  H12X 4882   4.529   6.635  14.117 -0.0778  0.2406 -0.6961
   38DOPE  H12Y 4883   4.399   6.584  14.225 -1.5778 -0.9995 -1.1421
   38DOPE  C313 4884   4.371   6.796  14.154 -0.0637 -0.1923  0.1266
   38DOPE  H13X 4885   4.424   6.857  14.077 -0.9236  0.4165  0.0084
   38DOPE  H13Y 4886   4.262   6.811  14.139 -1.0580 -3.8244  2.5364
   38DOPE  C314 4887   4.408   6.848  14.296  0.0743 -0.1784  0.2216
   38DOPE  H14X 4888   4.510   6.820  14.330 -0.8361 -2.1328  1.5291
   38DOPE  H14Y 4889   4.342   6.804  14.375 -0.1192  0.5328  0.4674
   38DOPE  C315 4890   4.392   7.001  14.303 -0.3514  0.2818  0.3396
   38DOPE  H15X 4891   4.282   7.020  14.299 -0.5572 -0.8920 -0.0219
   38DOPE  H15Y 4892   4.438   7.035  14.208  3.2189 -3.4325  0.4487
   38DOPE  C316 4893   4.465   7.067  14.420  0.5486 -0.0708  0.1753
   38DOPE  H16X 4894   4.458   7.176  14.399 -2.5865  0.2135  2.0917
   38DOPE  H16Y 4895   4.569   7.028  14.426  0.0122 -1.4717  0.7532
   38DOPE  C317 4896   4.382   7.044  14.549  0.1909 -0.7242 -0.2899
   38DOPE  H17X 4897   4.275   7.068  14.532  0.5479  0.4254 -1.0701
   38DOPE  H17Y 4898   4.401   6.937  14.573  2.5724  0.1600  2.3185
   38DOPE  C318 4899   4.427   7.124  14.670  0.3797 -0.3931  0.3358
   38DOPE  H18X 4900   4.381   7.100  14.768 -3.2184  1.1634 -0.8193
   38DOPE  H18Y 4901   4.537   7.113  14.684  0.5932  1.2892  0.1852
   38DOPE  H18Z 4902   4.411   7.233  14.659  0.5618 -0.2689  1.2773
   39DOPE     N 4903   2.375   5.420  12.924  0.3067 -0.4547  0.2313
   39DOPE   HN1 4904   2.342   5.484  12.999  1.6139 -0.7993  1.1382
   39DOPE   HN2 4905   2.383   5.324  12.963 -0.4908 -0.2031  1.0382
   39DOPE   HN3 4906   2.470   5.456  12.901  0.1285  0.3388  0.6930
   39DOPE   C12 4907   2.279   5.406  12.811  0.3495  0.4295 -0.5154
   39DOPE  H12A 4908   2.297   5.302  12.776 -0.2219 -0.5799  1.9864
   39DOPE  H12B 4909   2.309   5.479  12.733 -1.2546  0.7543 -0.8551
   39DOPE   C11 4910   2.132   5.419  12.859  0.1316 -1.1681 -0.7010
   39DOPE  H11A 4911   2.061   5.414  12.773  0.0345  0.8987 -0.8023
   39DOPE  H11B 4912   2.120   5.522  12.898  2.2166  0.2239 -3.3421
   39DOPE     P 4913   1.953   5.303  13.004  0.2463  0.1043  0.4189
   39DOPE   O13 4914   1.880   5.225  12.902  1.0572 -0.1608  0.1944
   39DOPE   O14 4915   1.900   5.436  13.050  0.8352  0.1708  0.2467
   39DOPE   O11 4916   1.992   5.214  13.130  0.3585  0.0074 -0.1310
   39DOPE   O12 4917   2.108   5.322  12.960  0.1091  0.4960 -0.0217
   39DOPE    C1 4918   2.057   5.087  13.104 -0.5249 -0.6057  0.1331
   39DOPE    HA 4919   2.082   5.036  13.199  1.1675 -1.6556 -0.8321
   39DOPE    HB 4920   2.150   5.108  13.048 -0.2637  1.2720  1.1893
   39DOPE    C2 4921   1.969   4.971  13.051  0.1358  0.3132  0.2383
   39DOPE    HS 4922   1.922   5.004  12.955 -2.4093  2.4850  2.0654
   39DOPE   O21 4923   1.866   4.941  13.153  0.1924  0.2263  0.2287
   39DOPE   C21 4924   1.783   4.851  13.118  0.0190  0.5297  0.3114
   39DOPE   O22 4925   1.775   4.800  13.009 -0.4992 -0.3350  0.3520
   39DOPE   C22 4926   1.717   4.793  13.245 -0.3244  0.3643  0.2177
   39DOPE   H2R 4927   1.794   4.772  13.323  0.9510  2.1576 -0.4882
   39DOPE   H2S 4928   1.654   4.705  13.221  1.0574 -0.6130  0.0516
   39DOPE    C3 4929   2.066   4.842  13.029  0.5321 -0.0289  0.4529
   39DOPE    HX 4930   2.149   4.882  12.967 -0.5124  0.4752 -0.6473
   39DOPE    HY 4931   2.014   4.759  12.978  3.4325 -0.3481 -2.2730
   39DOPE   O31 4932   2.140   4.813  13.149 -0.2679 -0.2136  0.1473
   39DOPE   C31 4933   2.102   4.695  13.202 -0.4869 -0.3226 -0.2052
   39DOPE   O32 4934   2.019   4.621  13.159  0.1129 -0.0687 -0.0500
   39DOPE   C32 4935   2.184   4.673  13.329  0.4138 -0.4253 -0.2003
   39DOPE   H2X 4936   2.275   4.615  13.304  1.0632  0.3003  0.4268
   39DOPE   H2Y 4937   2.218   4.766  13.380 -0.0324  0.4042 -1.3829
   39DOPE   C23 4938   1.627   4.896  13.306 -0.1967  0.8294 -0.1546
   39DOPE   H3R 4939   1.538   4.907  13.241 -0.5032  0.0964  0.1338
   39DOPE   H3S 4940   1.672   4.995  13.330 -2.0997  1.4732  0.9559
   39DOPE   C24 4941   1.577   4.856  13.443  0.3507  0.2962 -0.7286
   39DOPE   H4R 4942   1.664   4.858  13.513  0.6002 -0.7320 -1.0002
   39DOPE   H4S 4943   1.540   4.752  13.437  0.5730  0.0783  1.1285
   39DOPE   C25 4944   1.472   4.950  13.510  0.3753 -0.5198  0.2776
   39DOPE   H5R 4945   1.376   4.949  13.453 -1.0310  0.3953  2.4862
   39DOPE   H5S 4946   1.508   5.055  13.511 -0.6692 -0.1305  2.2654
   39DOPE   C26 4947   1.427   4.898  13.653 -0.2289 -0.0998  0.0042
   39DOPE   H6R 4948   1.524   4.899  13.706  0.8685 -0.7852 -1.8857
   39DOPE   H6S 4949   1.399   4.791  13.639 -2.1228  0.1527  1.4680
   39DOPE   C27 4950   1.320   4.975  13.715 -0.6000 -0.9287  0.2348
   39DOPE   H7R 4951   1.227   4.985  13.654 -0.5920  0.1870  0.3851
   39DOPE   H7S 4952   1.360   5.078  13.724  0.8248 -1.2308 -1.7975
   39DOPE   C28 4953   1.282   4.906  13.845  0.9292  0.0087 -0.5562
   39DOPE   H8R 4954   1.231   4.966  13.922  1.4330 -1.4837  1.0014
   39DOPE   H8S 4955   1.382   4.872  13.881  0.7627  0.6082  0.4716
   39DOPE   C29 4956   1.193   4.782  13.831  0.2411  0.0378  0.1970
   39DOPE   H9R 4957   1.236   4.712  13.757  1.1527 -0.3721  1.0918
   39DOPE  C210 4958   1.072   4.758  13.889 -0.3104  0.1220 -0.3697
   39DOPE  H10R 4959   1.014   4.669  13.861  0.6388 -0.2674 -1.1239
   39DOPE  C211 4960   0.996   4.848  13.976 -0.8383 -0.3022 -0.0698
   39DOPE  H11R 4961   0.887   4.855  13.954 -0.9415 -0.9496  0.2001
   39DOPE  H11S 4962   1.033   4.950  13.951  2.1648 -1.1989  0.3701
   39DOPE  C212 4963   1.021   4.816  14.129  0.0103  0.4084 -0.3409
   39DOPE  H12R 4964   1.125   4.814  14.168 -0.5705  1.2103  1.3859
   39DOPE  H12S 4965   0.989   4.711  14.145 -1.9620  1.0072  0.0240
   39DOPE  C213 4966   0.909   4.890  14.217  0.1382  0.9078 -0.6328
   39DOPE  H13R 4967   0.821   4.906  14.151 -1.1950 -3.4097 -0.2117
   39DOPE  H13S 4968   0.942   4.989  14.255  1.0131  0.7217 -0.8843
   39DOPE  C214 4969   0.874   4.797  14.340  0.1727 -0.2913  1.2742
   39DOPE  H14R 4970   0.969   4.762  14.386 -0.4547 -0.9400  2.1098
   39DOPE  H14S 4971   0.828   4.709  14.290 -0.0077  0.3051  0.3655
   39DOPE  C215 4972   0.785   4.855  14.445  0.2956  0.3160 -0.0966
   39DOPE  H15R 4973   0.684   4.856  14.399  1.2758  1.2481 -2.3585
   39DOPE  H15S 4974   0.804   4.963  14.456 -2.3145  1.1729 -2.7184
   39DOPE  C216 4975   0.794   4.778  14.585 -0.5033  0.2191  0.0569
   39DOPE  H16R 4976   0.800   4.668  14.575  3.2492  0.0052  2.6692
   39DOPE  H16S 4977   0.702   4.804  14.642 -0.1298  2.2013 -0.1485
   39DOPE  C217 4978   0.918   4.818  14.662 -0.9368  0.0784  0.9641
   39DOPE  H17R 4979   0.897   4.910  14.722 -0.6775 -1.0739  2.9090
   39DOPE  H17S 4980   1.004   4.833  14.594  0.1415 -2.7171  1.6018
   39DOPE  C218 4981   0.955   4.710  14.754  0.6797  0.2951 -0.2159
   39DOPE  H18R 4982   1.037   4.734  14.825 -1.0207 -1.0534  2.3640
   39DOPE  H18S 4983   0.997   4.628  14.691  0.5177 -1.4176  1.7724
   39DOPE  H18T 4984   0.870   4.661  14.806  0.5271  1.5062  0.7111
   39DOPE   C33 4985   2.104   4.592  13.429 -0.6403 -0.0054 -0.2259
   39DOPE   H3X 4986   2.062   4.504  13.377 -1.8421  1.7507 -2.3998
   39DOPE   H3Y 4987   2.028   4.662  13.471 -1.2933 -1.3935  0.9838
   39DOPE   C34 4988   2.179   4.553  13.561  0.0635  0.5244  0.3496
   39DOPE   H4X 4989   2.109   4.480  13.607 -0.6077 -0.7887 -2.5379
   39DOPE   H4Y 4990   2.268   4.493  13.532  2.1356  2.3856  2.3674
   39DOPE   C35 4991   2.225   4.664  13.654 -0.3755 -0.1971 -0.0818
   39DOPE   H5X 4992   2.135   4.724  13.679  0.0006  0.0238  0.7805
   39DOPE   H5Y 4993   2.292   4.738  13.605 -1.2815  0.7966  0.1491
   39DOPE   C36 4994   2.305   4.619  13.776 -0.0001  0.7414 -0.6973
   39DOPE   H6X 4995   2.303   4.706  13.845 -1.7394 -0.2037  0.5519
   39DOPE   H6Y 4996   2.406   4.587  13.746  0.0239  0.1821 -0.0397
   39DOPE   C37 4997   2.248   4.497  13.856 -0.1488  0.1058 -0.4416
   39DOPE   H7X 4998   2.168   4.546  13.915  0.3899  2.4102 -1.5317
   39DOPE   H7Y 4999   2.196   4.427  13.786 -1.2923 -0.1459  0.6218
   39DOPE   C38 5000   2.348   4.420  13.948 -1.0279  0.0832 -0.2137
   39DOPE   H8X 5001   2.430   4.379  13.886  0.5978  1.0678  1.1871
   39DOPE   H8Y 5002   2.304   4.330  13.996  1.4351 -0.1569  1.8286
   39DOPE   C39 5003   2.410   4.503  14.058 -0.0514  0.5220 -0.3484
   39DOPE   H9X 5004   2.497   4.564  14.030  1.9367 -1.0492  1.9509
   39DOPE  C310 5005   2.362   4.514  14.183  0.0251  0.0254 -0.3992
   39DOPE  H10X 5006   2.407   4.586  14.253  2.3645 -1.7571  0.0353
   39DOPE  C311 5007   2.234   4.446  14.229 -0.8443 -0.2130  0.3619
   39DOPE  H11X 5008   2.175   4.409  14.142 -0.3841 -2.6932  1.0453
   39DOPE  H11Y 5009   2.256   4.358  14.293 -0.3383 -1.0312 -0.8985
   39DOPE  C312 5010   2.151   4.535  14.320 -1.0690  0.6398 -0.4869
   39DOPE  H12X 5011   2.051   4.489  14.335 -1.3311  0.6018 -2.1137
   39DOPE  H12Y 5012   2.131   4.635  14.275 -2.8521  0.7470  0.4528
   39DOPE  C313 5013   2.219   4.567  14.462 -0.7759 -0.2268 -0.6479
   39DOPE  H13X 5014   2.256   4.473  14.508 -2.5156 -0.7903 -0.3212
   39DOPE  H13Y 5015   2.297   4.644  14.444  0.0102 -0.5824  1.0411
   39DOPE  C314 5016   2.118   4.637  14.558  0.2238  0.4213  0.3085
   39DOPE  H14X 5017   2.030   4.572  14.575 -1.0429  2.0583  0.2262
   39DOPE  H14Y 5018   2.077   4.731  14.514 -1.0433  0.0693  0.7049
   39DOPE  C315 5019   2.178   4.683  14.690  0.7026 -0.2462  0.0797
   39DOPE  H15X 5020   2.115   4.761  14.737  0.9970  1.7596 -2.6287
   39DOPE  H15Y 5021   2.275   4.733  14.666 -0.5642  1.4383 -1.8432
   39DOPE  C316 5022   2.206   4.571  14.796 -0.0123  0.0963 -0.1253
   39DOPE  H16X 5023   2.258   4.486  14.748 -1.4396 -0.3135 -0.9933
   39DOPE  H16Y 5024   2.112   4.529  14.838  0.5862 -0.1895  0.9744
   39DOPE  C317 5025   2.286   4.631  14.914 -0.3668  0.3171  0.5273
   39DOPE  H17X 5026   2.380   4.664  14.866 -0.7784  1.2146  0.3154
   39DOPE  H17Y 5027   2.224   4.709  14.963  0.9162  0.0383  2.7056
   39DOPE  C318 5028   2.310   4.531  15.027  0.0856 -0.0892 -0.1846
   39DOPE  H18X 5029   2.218   4.494  15.076 -0.0232  0.0712 -0.2675
   39DOPE  H18Y 5030   2.377   4.451  14.991  0.4022  0.2465 -0.3559
   39DOPE  H18Z 5031   2.363   4.589  15.106 -0.6585 -0.3769  0.5362
   40DOPE     N 5032   4.104   6.620  12.704  0.2961  0.4549 -0.1667
   40DOPE   HN1 5033   4.092   6.713  12.659  0.3222  0.5781  0.0780
   40DOPE   HN2 5034   4.205   6.604  12.727  0.4833 -0.9546 -1.7656
   40DOPE   HN3 5035   4.076   6.550  12.632 -1.9169  2.0285 -0.9061
   40DOPE   C12 5036   4.020   6.616  12.834  0.1403 -0.1339 -0.0806
   40DOPE  H12A 5037   4.031   6.713  12.887 -0.6074  0.8378 -1.6056
   40DOPE  H12B 5038   4.042   6.526  12.895 -2.6122 -2.2476 -1.9574
   40DOPE   C11 5039   3.869   6.599  12.797  0.1704 -0.0103  0.7090
   40DOPE  H11A 5040   3.842   6.683  12.730 -0.9524 -1.1188 -0.2697
   40DOPE  H11B 5041   3.805   6.597  12.888  0.4017 -2.2316  0.8927
   40DOPE     P 5042   3.757   6.364  12.775  0.2708  0.6779 -0.1614
   40DOPE   O13 5043   3.783   6.234  12.703  0.0197 -0.1075  0.2943
   40DOPE   O14 5044   3.627   6.425  12.751  0.0274  0.1295  0.0344
   40DOPE   O11 5045   3.786   6.339  12.926 -0.4753 -0.2417  0.1872
   40DOPE   O12 5046   3.865   6.471  12.726  0.6406 -0.4752 -0.0009
   40DOPE    C1 5047   3.677   6.336  13.023 -0.2275  0.2513  0.0062
   40DOPE    HA 5048   3.601   6.416  13.007 -1.0377 -0.8106 -1.6705
   40DOPE    HB 5049   3.710   6.354  13.127  0.6281 -0.6662 -0.0939
   40DOPE    C2 5050   3.605   6.190  13.029 -0.8602  0.0069  0.2137
   40DOPE    HS 5051   3.531   6.181  12.947 -1.4976 -1.1658  0.9038
   40DOPE   O21 5052   3.548   6.169  13.160 -0.0480 -0.6787 -0.1880
   40DOPE   C21 5053   3.419   6.153  13.156  0.1638 -0.3014 -0.4892
   40DOPE   O22 5054   3.350   6.159  13.052 -0.5124 -0.1834 -1.0490
   40DOPE   C22 5055   3.361   6.123  13.295  0.4594  0.2654  0.2287
   40DOPE   H2R 5056   3.325   6.223  13.329 -0.4158  0.0076  0.1035
   40DOPE   H2S 5057   3.448   6.090  13.355  0.9197  1.6013  0.3340
   40DOPE    C3 5058   3.703   6.077  13.000  0.2127 -0.3550  0.3714
   40DOPE    HX 5059   3.765   6.103  12.911  2.4200 -1.9493  1.3394
   40DOPE    HY 5060   3.658   5.978  12.982 -0.0000 -0.4793  1.5108
   40DOPE   O31 5061   3.801   6.078  13.109 -0.0859 -0.4690 -0.1623
   40DOPE   C31 5062   3.783   5.991  13.203  0.1528  0.2583 -0.3993
   40DOPE   O32 5063   3.691   5.916  13.221  0.7429  0.5577  0.3704
   40DOPE   C32 5064   3.890   6.018  13.306 -0.6945  0.2476 -0.8218
   40DOPE   H2X 5065   3.982   5.965  13.273 -0.6448 -1.2894  1.5204
   40DOPE   H2Y 5066   3.903   6.128  13.304 -2.7354  0.5111 -1.6342
   40DOPE   C23 5067   3.253   6.020  13.299  0.0015  0.4760  0.9015
   40DOPE   H3R 5068   3.294   5.923  13.263 -2.3964 -1.7930  3.7019
   40DOPE   H3S 5069   3.171   6.035  13.226  0.1298  1.4820  0.9592
   40DOPE   C24 5070   3.190   6.004  13.436 -0.4214  0.8067 -0.7183
   40DOPE   H4R 5071   3.269   5.956  13.498  0.5073  2.0438 -0.8888
   40DOPE   H4S 5072   3.107   5.931  13.425 -0.2854  0.5887 -0.3126
   40DOPE   C25 5073   3.142   6.124  13.511 -0.0733 -0.4126  0.0930
   40DOPE   H5R 5074   3.078   6.180  13.440 -0.5174 -2.1489 -0.9435
   40DOPE   H5S 5075   3.222   6.196  13.540 -0.4904 -0.1602  0.6388
   40DOPE   C26 5076   3.060   6.071  13.635 -0.1747  0.2101 -0.3746
   40DOPE   H6R 5077   2.967   6.029  13.592  0.2640 -1.2020  0.0111
   40DOPE   H6S 5078   3.022   6.162  13.686  1.0609  1.8837 -2.2578
   40DOPE   C27 5079   3.139   5.987  13.735 -0.0217  0.0791  0.3791
   40DOPE   H7R 5080   3.238   6.036  13.739 -1.1127  2.8317 -2.2984
   40DOPE   H7S 5081   3.156   5.891  13.681  0.5617  0.3390  0.0995
   40DOPE   C28 5082   3.065   5.968  13.866  0.0365  0.9120  0.5043
   40DOPE   H8R 5083   2.956   5.966  13.843 -0.5337 -0.5405  3.0428
   40DOPE   H8S 5084   3.079   6.061  13.925  0.1842  0.8704  0.5353
   40DOPE   C29 5085   3.120   5.848  13.944  0.6258 -0.1475  0.0670
   40DOPE   H9R 5086   3.230   5.850  13.949  0.6490 -1.4691  0.5086
   40DOPE  C210 5087   3.060   5.737  13.994 -0.4628  0.2756  0.0584
   40DOPE  H10R 5088   3.118   5.661  14.048 -2.1800 -0.4117  1.0146
   40DOPE  C211 5089   2.913   5.719  14.009 -0.0001  0.2462 -0.1151
   40DOPE  H11R 5090   2.865   5.819  13.997 -1.4571 -0.5155 -1.0062
   40DOPE  H11S 5091   2.892   5.667  14.105 -0.5254 -2.4950 -1.5837
   40DOPE  C212 5092   2.840   5.641  13.900 -0.1979  0.3879  0.4357
   40DOPE  H12R 5093   2.879   5.688  13.807 -0.4851  0.6994  0.4689
   40DOPE  H12S 5094   2.730   5.661  13.905 -0.1727  0.7126 -0.1524
   40DOPE  C213 5095   2.859   5.485  13.919  0.4656  0.0546  0.2604
   40DOPE  H13R 5096   2.789   5.455  13.999 -0.5300  2.0787  0.2311
   40DOPE  H13S 5097   2.955   5.472  13.972  1.7835  1.1767 -1.6998
   40DOPE  C214 5098   2.858   5.400  13.797 -0.2364  0.2281 -0.0350
   40DOPE  H14R 5099   2.947   5.432  13.739 -0.8417  1.6898 -0.2019
   40DOPE  H14S 5100   2.770   5.423  13.733 -1.3093  0.0361  1.2960
   40DOPE  C215 5101   2.875   5.249  13.820 -0.3695  0.2726 -0.3602
   40DOPE  H15R 5102   2.787   5.202  13.869  0.7028 -0.7143  0.6818
   40DOPE  H15S 5103   2.960   5.225  13.886 -1.0600  1.6603  1.0996
   40DOPE  C216 5104   2.890   5.179  13.682 -0.5378 -0.6238  0.7472
   40DOPE  H16R 5105   2.990   5.207  13.643 -0.6879 -0.5814  0.3905
   40DOPE  H16S 5106   2.821   5.221  13.606  0.3520 -0.2038  0.1609
   40DOPE  C217 5107   2.874   5.022  13.683  0.1048 -0.6876 -0.3617
   40DOPE  H17R 5108   2.773   5.009  13.728 -1.0918  0.8513 -2.4100
   40DOPE  H17S 5109   2.948   4.982  13.755  1.8557  3.4396  0.4001
   40DOPE  C218 5110   2.884   4.955  13.549 -0.0366 -0.6252  0.3605
   40DOPE  H18R 5111   2.808   4.998  13.480  0.0818  2.4604  1.9515
   40DOPE  H18S 5112   2.865   4.846  13.551  1.2126 -0.8545  0.5719
   40DOPE  H18T 5113   2.988   4.972  13.512  0.7164  1.6295  3.0973
   40DOPE   C33 5114   3.858   5.964  13.447 -0.1253  0.0303  0.3106
   40DOPE   H3X 5115   3.863   5.853  13.449 -1.1360 -0.0969 -1.4103
   40DOPE   H3Y 5116   3.750   5.976  13.469 -0.4455  0.2882 -1.2445
   40DOPE   C34 5117   3.938   6.031  13.557 -0.8194  0.2953  0.0142
   40DOPE   H4X 5118   4.043   5.996  13.550 -0.5309  1.1886 -0.1681
   40DOPE   H4Y 5119   3.927   6.141  13.546 -2.1803  0.1547 -0.1698
   40DOPE   C35 5120   3.882   5.985  13.694 -0.0776  0.7994 -0.1308
   40DOPE   H5X 5121   3.885   5.877  13.719 -1.7315  0.8888  0.5974
   40DOPE   H5Y 5122   3.774   6.003  13.716 -0.3335 -1.9920  1.3107
   40DOPE   C36 5123   3.957   6.063  13.804  0.2747  0.1084 -0.2942
   40DOPE   H6X 5124   3.931   6.168  13.781  0.2375  0.4103  1.0222
   40DOPE   H6Y 5125   4.066   6.043  13.806  0.7549  2.4920 -0.1595
   40DOPE   C37 5126   3.909   6.040  13.951 -0.1185  0.6893 -0.7097
   40DOPE   H7X 5127   3.804   6.076  13.965 -0.1586 -0.5416  4.0378
   40DOPE   H7Y 5128   3.911   5.930  13.960 -2.5390  0.5624 -0.8916
   40DOPE   C38 5129   3.983   6.113  14.066  0.4008  0.3058 -0.1250
   40DOPE   H8X 5130   4.081   6.064  14.087 -0.4695 -1.1867  0.6369
   40DOPE   H8Y 5131   3.929   6.091  14.161  2.3946 -2.0862  0.5929
   40DOPE   C39 5132   3.995   6.263  14.047 -0.4105 -0.5285 -0.2683
   40DOPE   H9X 5133   4.047   6.294  13.956  1.1134 -1.3001  0.2996
   40DOPE  C310 5134   3.938   6.354  14.127  0.1229  0.3540 -0.1420
   40DOPE  H10X 5135   3.949   6.462  14.105  0.2698  0.4803  0.5232
   40DOPE  C311 5136   3.867   6.327  14.254  0.1974 -0.9676  0.1492
   40DOPE  H11X 5137   3.771   6.384  14.256  1.5389  1.3738  1.0730
   40DOPE  H11Y 5138   3.829   6.223  14.265 -2.7103  0.0327  0.6342
   40DOPE  C312 5139   3.954   6.373  14.369 -0.1559 -0.7474  0.3365
   40DOPE  H12X 5140   3.891   6.361  14.460 -0.6675 -2.5581 -0.2183
   40DOPE  H12Y 5141   3.983   6.480  14.363  1.4846 -1.1684  0.1011
   40DOPE  C313 5142   4.075   6.278  14.382 -0.9332 -0.0548 -0.4172
   40DOPE  H13X 5143   4.027   6.179  14.366  0.5952 -1.1826  1.4782
   40DOPE  H13Y 5144   4.148   6.290  14.300 -1.4234 -2.5797 -1.3070
   40DOPE  C314 5145   4.134   6.289  14.519  0.3134  1.2076 -0.2550
   40DOPE  H14X 5146   4.201   6.201  14.530  1.1042  1.9473  1.0619
   40DOPE  H14Y 5147   4.046   6.266  14.583  0.6268 -3.5177 -1.1800
   40DOPE  C315 5148   4.196   6.422  14.556 -0.2053  1.7976 -0.5447
   40DOPE  H15X 5149   4.123   6.500  14.585 -0.0600  0.9838  2.3942
   40DOPE  H15Y 5150   4.254   6.464  14.471 -0.9678  1.6001 -1.1753
   40DOPE  C316 5151   4.299   6.417  14.669 -0.1717 -0.4307 -0.8321
   40DOPE  H16X 5152   4.366   6.335  14.635 -2.7613 -2.2249 -1.8908
   40DOPE  H16Y 5153   4.236   6.394  14.757 -1.8945  2.1149 -1.2969
   40DOPE  C317 5154   4.365   6.553  14.706  0.5205  0.1047  0.1352
   40DOPE  H17X 5155   4.292   6.636  14.695  0.6309  0.0486 -1.1179
   40DOPE  H17Y 5156   4.406   6.545  14.809  1.2561 -1.4786 -0.2394
   40DOPE  C318 5157   4.475   6.585  14.604  0.4636  0.1620  0.2457
   40DOPE  H18X 5158   4.525   6.679  14.635 -0.0944  0.6352 -0.2840
   40DOPE  H18Y 5159   4.557   6.509  14.603 -0.4045 -1.0306  3.6572
   40DOPE  H18Z 5160   4.433   6.584  14.502  0.0858  1.6275  0.3750
   41DOPE     N 5161   1.727   6.313  12.204  0.4818 -0.9004 -0.4171
   41DOPE   HN1 5162   1.647   6.279  12.147 -1.6622 -0.1842  1.9577
   41DOPE   HN2 5163   1.762   6.398  12.154 -0.6531  1.3542  2.3267
   41DOPE   HN3 5164   1.784   6.227  12.202 -1.6728 -2.4278  0.4850
   41DOPE   C12 5165   1.705   6.359  12.340  0.3805  0.0301 -0.4399
   41DOPE  H12A 5166   1.677   6.466  12.349  0.0046 -0.1478  0.7520
   41DOPE  H12B 5167   1.798   6.336  12.397  0.4467  0.8227 -0.2187
   41DOPE   C11 5168   1.599   6.266  12.410 -0.4017  0.4064 -0.1730
   41DOPE  H11A 5169   1.501   6.274  12.360 -1.4779 -2.8358  1.1271
   41DOPE  H11B 5170   1.580   6.307  12.512 -2.7430  1.4706 -0.9924
   41DOPE     P 5171   1.733   6.077  12.541  0.0500 -0.2327 -0.1465
   41DOPE   O13 5172   1.846   6.175  12.558  0.4337  0.3066  0.3546
   41DOPE   O14 5173   1.758   5.926  12.519  0.3403  0.5144  0.2305
   41DOPE   O11 5174   1.632   6.090  12.664  0.3651  0.7492  0.1681
   41DOPE   O12 5175   1.646   6.128  12.421 -0.0696 -0.1060 -0.0359
   41DOPE    C1 5176   1.501   6.030  12.661 -0.1723 -0.2589 -0.7496
   41DOPE    HA 5177   1.479   5.971  12.569 -0.1518  1.8041 -2.1469
   41DOPE    HB 5178   1.425   6.110  12.664  0.2204  0.0957  1.9867
   41DOPE    C2 5179   1.472   5.939  12.788  0.0802  0.0198 -1.0441
   41DOPE    HS 5180   1.369   5.900  12.775  0.6872 -2.8847  1.4886
   41DOPE   O21 5181   1.490   6.006  12.910  0.0981 -0.8671  0.0625
   41DOPE   C21 5182   1.396   6.074  12.958  0.0401 -0.2923  0.4936
   41DOPE   O22 5183   1.281   6.082  12.919  0.1873  0.4707 -0.4071
   41DOPE   C22 5184   1.459   6.165  13.070 -0.3559  0.3126 -0.3457
   41DOPE   H2R 5185   1.455   6.270  13.033 -1.8917  0.6045  0.5261
   41DOPE   H2S 5186   1.566   6.141  13.085 -0.3533  0.7664  0.4013
   41DOPE    C3 5187   1.562   5.822  12.795  0.0593  0.4724 -0.6295
   41DOPE    HX 5188   1.667   5.857  12.802 -0.3859  1.9443 -0.9908
   41DOPE    HY 5189   1.560   5.761  12.702  0.5225  0.9987 -0.9914
   41DOPE   O31 5190   1.535   5.734  12.912 -0.2144 -0.0225 -0.6376
   41DOPE   C31 5191   1.460   5.621  12.886 -0.5977 -0.1456 -0.6786
   41DOPE   O32 5192   1.421   5.590  12.776  0.1017 -0.4918  0.7577
   41DOPE   C32 5193   1.426   5.550  13.016  0.0369  0.4035  0.5507
   41DOPE   H2X 5194   1.496   5.466  13.039  0.0998  0.1555 -0.5263
   41DOPE   H2Y 5195   1.443   5.622  13.099  1.4332  0.4224  0.2815
   41DOPE   C23 5196   1.390   6.159  13.211  0.0810 -0.3896  0.1440
   41DOPE   H3R 5197   1.280   6.173  13.217 -0.1737 -2.4681  1.1024
   41DOPE   H3S 5198   1.439   6.235  13.275 -0.1232 -2.4106  2.8726
   41DOPE   C24 5199   1.418   6.021  13.270 -0.2536  0.0230  0.0691
   41DOPE   H4R 5200   1.527   6.003  13.259  0.2871  3.1220 -0.6499
   41DOPE   H4S 5201   1.353   5.954  13.209 -2.4925  0.3356  1.9729
   41DOPE   C25 5202   1.364   5.997  13.414  0.0805  0.4925  0.2768
   41DOPE   H5R 5203   1.257   5.978  13.390  0.3093 -0.5839  0.0547
   41DOPE   H5S 5204   1.370   6.089  13.476 -1.5129  1.0144 -0.2790
   41DOPE   C26 5205   1.409   5.871  13.490 -0.7949 -0.2555 -0.2200
   41DOPE   H6R 5206   1.520   5.868  13.497 -0.8254  1.2335  1.3965
   41DOPE   H6S 5207   1.375   5.777  13.442 -3.1425 -0.5497  1.8591
   41DOPE   C27 5208   1.325   5.852  13.621  0.1699 -0.0851 -0.1923
   41DOPE   H7R 5209   1.217   5.870  13.606  0.4546  1.7494 -0.2457
   41DOPE   H7S 5210   1.362   5.936  13.684 -0.7766 -0.9667  1.5913
   41DOPE   C28 5211   1.343   5.715  13.691  0.6118  0.1258 -0.4194
   41DOPE   H8R 5212   1.320   5.723  13.800 -1.3293 -2.8646 -0.4977
   41DOPE   H8S 5213   1.451   5.695  13.680  0.5489 -0.7689  0.4709
   41DOPE   C29 5214   1.265   5.600  13.630  0.3818  0.2019 -0.0319
   41DOPE   H9R 5215   1.279   5.575  13.524 -1.1499 -0.6732 -0.0464
   41DOPE  C210 5216   1.176   5.525  13.691 -0.7629 -0.1660 -0.7915
   41DOPE  H10R 5217   1.119   5.451  13.633  0.9263 -1.0596 -1.3947
   41DOPE  C211 5218   1.139   5.531  13.838 -0.9312 -0.2481  0.4463
   41DOPE  H11R 5219   1.029   5.526  13.850 -0.8178 -2.1179  0.9930
   41DOPE  H11S 5220   1.169   5.635  13.863  0.2356 -1.0255  2.5522
   41DOPE  C212 5221   1.193   5.415  13.926  0.0992 -0.1737  0.3314
   41DOPE  H12R 5222   1.129   5.330  13.894  1.5118  0.0902 -3.7437
   41DOPE  H12S 5223   1.165   5.430  14.033 -3.2621  0.2621 -0.4934
   41DOPE  C213 5224   1.337   5.388  13.907 -0.4713 -0.0008  0.2982
   41DOPE  H13R 5225   1.406   5.474  13.919 -1.7462  1.1030 -0.0222
   41DOPE  H13S 5226   1.348   5.369  13.798 -1.0972  1.5729 -0.0752
   41DOPE  C214 5227   1.387   5.267  13.984  0.2423  0.4832  0.3768
   41DOPE  H14R 5228   1.488   5.243  13.945 -1.3230 -0.9040 -3.3288
   41DOPE  H14S 5229   1.325   5.180  13.951 -1.1090  2.2169 -1.9720
   41DOPE  C215 5230   1.401   5.293  14.135 -0.7399 -0.1652 -0.3028
   41DOPE  H15R 5231   1.294   5.309  14.162 -0.8511 -1.7147  0.2595
   41DOPE  H15S 5232   1.461   5.386  14.138 -1.1096  0.0698  2.6591
   41DOPE  C216 5233   1.462   5.179  14.212 -0.4823  0.1776 -0.4794
   41DOPE  H16R 5234   1.463   5.222  14.314 -1.0898 -0.2760 -0.2751
   41DOPE  H16S 5235   1.558   5.152  14.163 -1.1127  0.7543 -2.0994
   41DOPE  C217 5236   1.377   5.054  14.217  0.0747  0.6653 -0.1081
   41DOPE  H17R 5237   1.411   4.997  14.128  1.3678 -0.1415  0.8694
   41DOPE  H17S 5238   1.268   5.075  14.206  0.1585  2.3928  1.8108
   41DOPE  C218 5239   1.393   4.977  14.340  0.2470  1.0988  0.4663
   41DOPE  H18R 5240   1.499   4.970  14.372  1.0433  0.8599 -2.0221
   41DOPE  H18S 5241   1.348   4.878  14.319 -1.1743  1.4988  1.4904
   41DOPE  H18T 5242   1.336   5.030  14.419 -0.3860  0.0258  0.7446
   41DOPE   C33 5243   1.279   5.501  13.018 -0.1156 -0.1158  0.0926
   41DOPE   H3X 5244   1.273   5.423  12.940 -2.3887  0.2603 -0.1989
   41DOPE   H3Y 5245   1.212   5.581  12.977 -1.5878 -1.0476  0.5936
   41DOPE   C34 5246   1.217   5.460  13.148 -0.7870  0.1928 -0.7172
   41DOPE   H4X 5247   1.172   5.551  13.194 -0.4775  0.6550 -1.3190
   41DOPE   H4Y 5248   1.139   5.383  13.132 -0.5333 -0.4145  0.8080
   41DOPE   C35 5249   1.317   5.411  13.251 -0.3682 -0.1104  0.2065
   41DOPE   H5X 5250   1.282   5.421  13.356  0.1792 -0.7202  0.4546
   41DOPE   H5Y 5251   1.400   5.485  13.251 -0.7229  0.3039 -0.5727
   41DOPE   C36 5252   1.367   5.275  13.208  0.5835 -0.5850  0.3970
   41DOPE   H6X 5253   1.459   5.255  13.268  1.2466  0.4323 -0.2545
   41DOPE   H6Y 5254   1.403   5.280  13.103 -1.4759 -1.9022 -0.4320
   41DOPE   C37 5255   1.269   5.158  13.231  0.0047 -0.6236 -0.4840
   41DOPE   H7X 5256   1.199   5.156  13.145 -1.9056 -2.7442  0.9898
   41DOPE   H7Y 5257   1.336   5.069  13.234 -0.9343 -1.3767 -1.0701
   41DOPE   C38 5258   1.185   5.166  13.364 -0.2188  0.4578  0.9792
   41DOPE   H8X 5259   1.130   5.262  13.370 -0.3853  0.3869  0.6298
   41DOPE   H8Y 5260   1.257   5.168  13.448  2.1923  2.4840 -0.9998
   41DOPE   C39 5261   1.084   5.053  13.365 -0.2834 -0.3948  0.3188
   41DOPE   H9X 5262   1.114   4.955  13.325  0.4641  0.4839 -1.3616
   41DOPE  C310 5263   0.965   5.067  13.418  0.2108 -0.1662 -0.4959
   41DOPE  H10X 5264   0.887   4.990  13.407  0.6451 -0.5545 -0.8752
   41DOPE  C311 5265   0.900   5.200  13.481 -0.0930  0.0316 -0.5373
   41DOPE  H11X 5266   0.979   5.274  13.507  1.6410 -1.7739 -0.3888
   41DOPE  H11Y 5267   0.828   5.254  13.416  1.1842  2.1414 -0.3011
   41DOPE  C312 5268   0.822   5.154  13.610 -0.3611 -0.2697  0.3501
   41DOPE  H12X 5269   0.885   5.082  13.665 -0.4853 -0.8668 -0.2829
   41DOPE  H12Y 5270   0.732   5.093  13.587  0.2580 -1.1238  0.1838
   41DOPE  C313 5271   0.800   5.283  13.696 -0.1670  0.4034  0.8407
   41DOPE  H13X 5272   0.899   5.319  13.730  0.3632 -0.1578 -0.0553
   41DOPE  H13Y 5273   0.741   5.359  13.640  0.0427 -1.7066 -2.5474
   41DOPE  C314 5274   0.723   5.241  13.820  0.0250 -0.2231  0.4749
   41DOPE  H14X 5275   0.770   5.152  13.867 -0.7482  0.0351  1.7769
   41DOPE  H14Y 5276   0.621   5.207  13.789 -0.1407 -0.4558  1.2595
   41DOPE  C315 5277   0.725   5.352  13.921  0.4376 -0.0079 -0.3511
   41DOPE  H15X 5278   0.665   5.441  13.890  1.9036  0.9770 -0.4758
   41DOPE  H15Y 5279   0.828   5.385  13.945  0.3915 -0.0481 -0.1033
   41DOPE  C316 5280   0.674   5.306  14.060 -0.6092  0.0973 -1.0743
   41DOPE  H16X 5281   0.732   5.221  14.102 -1.8234  0.4566  1.5478
   41DOPE  H16Y 5282   0.571   5.267  14.046  0.4161 -3.6234  0.4216
   41DOPE  C317 5283   0.658   5.418  14.164  0.6543  0.2029 -1.1626
   41DOPE  H17X 5284   0.589   5.497  14.128 -0.3110  0.3398  0.8222
   41DOPE  H17Y 5285   0.610   5.375  14.255 -0.8847  1.5856 -1.2591
   41DOPE  C318 5286   0.788   5.476  14.203 -0.2435 -0.2201  0.1670
   41DOPE  H18X 5287   0.843   5.518  14.116  1.0023  0.5013  1.2703
   41DOPE  H18Y 5288   0.775   5.565  14.268  2.7958  0.6936 -0.3044
   41DOPE  H18Z 5289   0.857   5.402  14.248 -0.8200 -1.5978 -1.1435
   42DOPE     N 5290   1.152   4.447  12.420 -0.3730 -0.0605  0.3376
   42DOPE   HN1 5291   1.134   4.360  12.475 -2.0140  0.1343  0.1693
   42DOPE   HN2 5292   1.056   4.468  12.386 -0.6818 -1.1122  0.5057
   42DOPE   HN3 5293   1.206   4.422  12.335  0.5438  1.8860  0.2955
   42DOPE   C12 5294   1.220   4.554  12.496  0.2026  1.0041  1.2091
   42DOPE  H12A 5295   1.234   4.645  12.434  0.3378  2.6538  3.5179
   42DOPE  H12B 5296   1.324   4.526  12.520  0.6445  0.0764 -1.4691
   42DOPE   C11 5297   1.125   4.586  12.613  0.1020 -0.3763  1.1357
   42DOPE  H11A 5298   1.029   4.619  12.567  0.3671 -1.9725 -0.7317
   42DOPE  H11B 5299   1.170   4.666  12.675  2.5990  0.2267 -1.2678
   42DOPE     P 5300   1.071   4.483  12.845  0.1478  0.0777 -0.1767
   42DOPE   O13 5301   1.064   4.344  12.906  0.1526 -0.4704 -0.3234
   42DOPE   O14 5302   0.954   4.565  12.865  0.5373  0.1365  0.1879
   42DOPE   O11 5303   1.194   4.566  12.894  0.1647 -0.0030 -0.4794
   42DOPE   O12 5304   1.102   4.470  12.688  0.0697  0.1201  0.0456
   42DOPE    C1 5305   1.329   4.528  12.888 -0.4143 -0.0030  0.0544
   42DOPE    HA 5306   1.393   4.619  12.893 -0.5501  0.0753  0.4530
   42DOPE    HB 5307   1.351   4.487  12.787  0.0825  0.3799  0.0035
   42DOPE    C2 5308   1.367   4.420  12.996  0.0623 -0.2492  0.6120
   42DOPE    HS 5309   1.334   4.324  12.950 -0.1846 -0.1202  0.5174
   42DOPE   O21 5310   1.310   4.442  13.124  0.1823  0.3444  0.4064
   42DOPE   C21 5311   1.323   4.554  13.186  0.0961 -0.4078  0.0653
   42DOPE   O22 5312   1.379   4.653  13.143 -0.0733 -0.1830  0.7254
   42DOPE   C22 5313   1.245   4.550  13.314  0.1061  0.4236 -0.0227
   42DOPE   H2R 5314   1.294   4.480  13.384 -0.7879 -0.5548 -0.3520
   42DOPE   H2S 5315   1.145   4.510  13.290  0.2757 -0.7037  1.0525
   42DOPE    C3 5316   1.528   4.399  13.007 -0.1840  0.1409  0.2150
   42DOPE    HX 5317   1.584   4.493  13.023 -1.5453  0.7358  1.7902
   42DOPE    HY 5318   1.561   4.355  12.910  2.3150 -2.8787  2.2323
   42DOPE   O31 5319   1.548   4.310  13.118  0.3913  0.3792 -0.2522
   42DOPE   C31 5320   1.671   4.266  13.132 -0.4286 -0.4288  0.3117
   42DOPE   O32 5321   1.759   4.278  13.053  0.0858  0.4964  0.1273
   42DOPE   C32 5322   1.690   4.197  13.269 -0.0309  0.0310 -0.0924
   42DOPE   H2X 5323   1.596   4.162  13.317  0.4569 -0.4768  0.5054
   42DOPE   H2Y 5324   1.753   4.107  13.255  1.7625  1.2061  0.0931
   42DOPE   C23 5325   1.226   4.685  13.392  0.9882 -0.2669  0.0384
   42DOPE   H3R 5326   1.206   4.762  13.315 -3.2589 -2.0802 -0.9589
   42DOPE   H3S 5327   1.319   4.703  13.449  0.8576  2.9568 -0.5723
   42DOPE   C24 5328   1.108   4.689  13.498 -0.6246 -0.9049  0.2596
   42DOPE   H4R 5329   1.125   4.768  13.575  0.4946 -1.1945  0.3363
   42DOPE   H4S 5330   1.114   4.594  13.555  0.7740 -0.8842  0.1964
   42DOPE   C25 5331   0.972   4.695  13.427 -0.2224 -0.2671  0.1929
   42DOPE   H5R 5332   0.947   4.605  13.368 -1.1366  0.3150 -0.3378
   42DOPE   H5S 5333   0.993   4.781  13.359  1.5285 -0.0514  0.9413
   42DOPE   C26 5334   0.856   4.738  13.517 -0.4360 -0.4075  0.0791
   42DOPE   H6R 5335   0.877   4.836  13.564  0.7122 -1.4560  1.8421
   42DOPE   H6S 5336   0.857   4.662  13.598  0.8066 -1.2911 -0.7262
   42DOPE   C27 5337   0.720   4.747  13.444 -0.6810 -0.1902 -0.0900
   42DOPE   H7R 5338   0.688   4.647  13.407 -1.6658  0.6212 -1.5211
   42DOPE   H7S 5339   0.733   4.811  13.354  1.1250  0.8312  0.8386
   42DOPE   C28 5340   0.611   4.811  13.530 -0.6177  0.3450 -0.0866
   42DOPE   H8R 5341   0.523   4.823  13.463 -1.2146 -0.1644  0.5827
   42DOPE   H8S 5342   0.645   4.915  13.547  0.9139  0.3611 -2.7699
   42DOPE   C29 5343   0.575   4.732  13.651 -0.6913  0.6443 -0.4577
   42DOPE   H9R 5344   0.557   4.626  13.629  0.9955  0.3420 -0.5089
   42DOPE  C210 5345   0.531   4.779  13.768 -0.0281  0.3576 -0.2013
   42DOPE  H10R 5346   0.500   4.707  13.846 -0.9508  1.0558  0.0920
   42DOPE  C211 5347   0.518   4.926  13.815 -0.0815  0.0136 -0.6539
   42DOPE  H11R 5348   0.504   4.986  13.723  2.1632  2.0771  0.2463
   42DOPE  H11S 5349   0.614   4.973  13.845  0.5200  0.9697 -3.6898
   42DOPE  C212 5350   0.403   4.945  13.911  0.4247  0.3478  0.2044
   42DOPE  H12R 5351   0.313   4.884  13.885  0.4627  0.9078 -1.3624
   42DOPE  H12S 5352   0.378   5.053  13.915 -1.8785 -0.0726 -1.0428
   42DOPE  C213 5353   0.435   4.914  14.055 -0.0232  0.1915 -0.9114
   42DOPE  H13R 5354   0.498   5.001  14.085  3.1788 -1.9038 -1.1028
   42DOPE  H13S 5355   0.493   4.820  14.066  1.0266  0.8295 -0.7915
   42DOPE  C214 5356   0.313   4.911  14.149 -0.1404 -0.2554 -0.1093
   42DOPE  H14R 5357   0.250   4.824  14.119 -0.7892 -0.3663  1.4901
   42DOPE  H14S 5358   0.254   5.004  14.139  0.7380  0.2053 -1.2424
   42DOPE  C215 5359   0.350   4.905  14.294 -0.3286  0.9394 -0.0471
   42DOPE  H15R 5360   0.391   4.999  14.337  2.2298 -0.5579  0.9630
   42DOPE  H15S 5361   0.430   4.831  14.314 -0.2857  1.2408  0.9058
   42DOPE  C216 5362   0.232   4.875  14.381  0.6293  0.4387  0.4230
   42DOPE  H16R 5363   0.164   4.794  14.344 -0.6515  1.7361 -0.1655
   42DOPE  H16S 5364   0.166   4.964  14.377 -1.4909 -1.0497  0.3957
   42DOPE  C217 5365   0.248   4.862  14.529  0.7556  0.2097 -0.1943
   42DOPE  H17R 5366   0.336   4.924  14.555  0.2911  1.0807 -0.6165
   42DOPE  H17S 5367   0.281   4.758  14.549  1.4742  0.6368  0.8879
   42DOPE  C218 5368   0.111   4.888  14.592 -0.6613 -0.0930 -0.5346
   42DOPE  H18R 5369   0.062   4.983  14.563 -0.6745  0.6925  1.8969
   42DOPE  H18S 5370   0.125   4.905  14.701  0.1245  1.9814 -0.9094
   42DOPE  H18T 5371   0.035   4.810  14.571 -0.4816 -0.8057  1.2663
   42DOPE   C33 5372   1.747   4.295  13.381  0.0324 -0.2219  0.0481
   42DOPE   H3X 5373   1.842   4.336  13.340  0.6521 -2.5179 -0.9636
   42DOPE   H3Y 5374   1.768   4.238  13.474  1.1896  1.5473  0.9180
   42DOPE   C34 5375   1.665   4.426  13.401  0.0818 -0.5160 -0.2941
   42DOPE   H4X 5376   1.661   4.475  13.302 -1.6572  1.7756  0.7986
   42DOPE   H4Y 5377   1.560   4.412  13.437 -0.1505  2.9066  0.6936
   42DOPE   C35 5378   1.733   4.519  13.495  0.3242  0.0592 -0.0866
   42DOPE   H5X 5379   1.758   4.623  13.465  1.5418 -0.2645 -0.2394
   42DOPE   H5Y 5380   1.836   4.481  13.515 -0.6932 -2.8524  0.1394
   42DOPE   C36 5381   1.664   4.531  13.630  0.1046 -0.1283  0.8602
   42DOPE   H6X 5382   1.642   4.430  13.670  2.0433 -0.8353  0.2614
   42DOPE   H6Y 5383   1.566   4.582  13.612  0.0524 -0.4633  0.1551
   42DOPE   C37 5384   1.731   4.618  13.733 -0.5875 -0.0678 -0.2226
   42DOPE   H7X 5385   1.748   4.723  13.698  1.7809  0.2385  1.5627
   42DOPE   H7Y 5386   1.659   4.614  13.817  1.4306 -2.3764  1.5257
   42DOPE   C38 5387   1.870   4.568  13.776 -0.5814  0.0253 -0.3687
   42DOPE   H8X 5388   1.917   4.627  13.858 -0.6531 -1.9771  1.1756
   42DOPE   H8Y 5389   1.945   4.589  13.697  0.5052  3.2492  1.3247
   42DOPE   C39 5390   1.875   4.420  13.800 -0.1389 -0.3527 -0.0547
   42DOPE   H9X 5391   1.881   4.358  13.709  1.4917 -1.1061  0.5367
   42DOPE  C310 5392   1.897   4.355  13.921  1.0756  0.4383 -0.1199
   42DOPE  H10X 5393   1.905   4.246  13.934  0.8641  0.4865  0.4160
   42DOPE  C311 5394   1.899   4.434  14.052  0.4074  0.5714 -0.3385
   42DOPE  H11X 5395   1.967   4.379  14.119 -0.3392 -1.8081 -1.4337
   42DOPE  H11Y 5396   1.944   4.535  14.039 -1.6071  1.6052  0.3972
   42DOPE  C312 5397   1.758   4.455  14.119 -0.5613 -1.4683 -0.2342
   42DOPE  H12X 5398   1.719   4.360  14.162 -0.9275 -1.2023  0.0279
   42DOPE  H12Y 5399   1.683   4.477  14.039  2.0077  0.4175 -2.3173
   42DOPE  C313 5400   1.757   4.550  14.238 -0.3527  0.2467  0.6239
   42DOPE  H13X 5401   1.660   4.545  14.291 -0.2310 -1.0801  0.7438
   42DOPE  H13Y 5402   1.838   4.533  14.312  1.0177  0.6943 -0.7187
   42DOPE  C314 5403   1.762   4.693  14.185 -1.0403  0.1653 -0.0081
   42DOPE  H14X 5404   1.685   4.692  14.105 -2.0163 -1.5253  0.9037
   42DOPE  H14Y 5405   1.856   4.723  14.133 -1.2080 -0.7780 -0.8855
   42DOPE  C315 5406   1.725   4.796  14.293  0.3908  0.1008 -0.6822
   42DOPE  H15X 5407   1.624   4.765  14.327  0.3877  1.0847  0.2655
   42DOPE  H15Y 5408   1.720   4.896  14.245  0.0940  0.1509 -0.5449
   42DOPE  C316 5409   1.808   4.816  14.425 -0.2317 -0.0315 -0.2574
   42DOPE  H16X 5410   1.914   4.840  14.401 -0.3679 -1.1057 -2.1500
   42DOPE  H16Y 5411   1.797   4.717  14.475 -3.2024  1.0527  1.5261
   42DOPE  C317 5412   1.736   4.913  14.517 -0.2992 -0.5963  0.1430
   42DOPE  H17X 5413   1.733   5.016  14.476  1.7724 -0.7887 -0.5664
   42DOPE  H17Y 5414   1.631   4.879  14.536 -0.6956  0.4388 -0.1058
   42DOPE  C318 5415   1.805   4.916  14.656 -0.3525 -0.0293  0.7589
   42DOPE  H18X 5416   1.826   4.815  14.698 -0.2243  0.4594  1.9211
   42DOPE  H18Y 5417   1.896   4.979  14.647 -0.5513  0.2212  0.4890
   42DOPE  H18Z 5418   1.750   4.984  14.724 -0.5979  2.0515 -1.4093
   43DOPE     N 5419   1.878   2.309  12.646 -0.3711 -0.1259  0.3067
   43DOPE   HN1 5420   1.928   2.383  12.593 -3.2036  1.8083  0.1149
   43DOPE   HN2 5421   1.914   2.213  12.630 -2.5882 -1.2861  1.7116
   43DOPE   HN3 5422   1.777   2.316  12.622 -1.2519 -1.6943  3.0524
   43DOPE   C12 5423   1.893   2.344  12.794  0.3679 -0.4794  1.0805
   43DOPE  H12A 5424   1.999   2.336  12.825  0.9076  1.5992 -0.1041
   43DOPE  H12B 5425   1.834   2.264  12.844 -0.1371 -0.7692  0.0667
   43DOPE   C11 5426   1.839   2.485  12.831  0.1127  0.3228 -0.2983
   43DOPE  H11A 5427   1.903   2.557  12.776 -0.2519  1.0899  0.2643
   43DOPE  H11B 5428   1.862   2.502  12.939 -0.3658 -0.5952 -0.0429
   43DOPE     P 5429   1.581   2.462  12.889  0.3139 -0.1767 -0.0091
   43DOPE   O13 5430   1.513   2.343  12.819  0.1418 -0.4383  0.4824
   43DOPE   O14 5431   1.492   2.574  12.926 -0.0928 -0.0846  1.1240
   43DOPE   O11 5432   1.643   2.415  13.029  0.0972 -0.3493 -0.5766
   43DOPE   O12 5433   1.700   2.503  12.801  0.1922 -0.4725  0.2594
   43DOPE    C1 5434   1.674   2.513  13.131 -1.0424 -0.1916  0.1657
   43DOPE    HA 5435   1.663   2.618  13.099 -1.0902 -0.7703 -1.8407
   43DOPE    HB 5436   1.782   2.509  13.158 -0.8678 -1.5149 -0.6589
   43DOPE    C2 5437   1.586   2.486  13.254 -0.4712 -0.4181 -0.1946
   43DOPE    HS 5438   1.614   2.559  13.332  0.0100  1.3673 -1.9450
   43DOPE   O21 5439   1.598   2.353  13.293  0.0118  0.6715  0.3394
   43DOPE   C21 5440   1.710   2.317  13.341 -0.8508 -0.7936  1.2171
   43DOPE   O22 5441   1.800   2.403  13.373 -0.1072  0.1444  0.1309
   43DOPE   C22 5442   1.716   2.170  13.372  0.1629 -0.2584  0.7022
   43DOPE   H2R 5443   1.793   2.134  13.300 -0.7761 -0.9291  0.0096
   43DOPE   H2S 5444   1.621   2.115  13.354 -0.1597  0.1426  1.1607
   43DOPE    C3 5445   1.439   2.527  13.229 -0.4192 -0.1349  0.1447
   43DOPE    HX 5446   1.413   2.480  13.132  0.7927  0.3914 -0.4521
   43DOPE    HY 5447   1.434   2.638  13.226  0.3618  0.0060  2.1106
   43DOPE   O31 5448   1.355   2.470  13.331  0.4322 -0.3728  0.1100
   43DOPE   C31 5449   1.346   2.534  13.454  0.3736 -0.2827 -0.1646
   43DOPE   O32 5450   1.418   2.622  13.497  0.0038  0.6402  0.1121
   43DOPE   C32 5451   1.224   2.479  13.526  0.3000  0.4090 -0.3777
   43DOPE   H2X 5452   1.138   2.506  13.461  0.3921  0.7892 -0.3468
   43DOPE   H2Y 5453   1.231   2.369  13.539  1.0556  0.3721 -1.0637
   43DOPE   C23 5454   1.752   2.135  13.517 -0.1457  0.0568 -0.5666
   43DOPE   H3R 5455   1.833   2.205  13.545 -1.5881  1.3410  0.5729
   43DOPE   H3S 5456   1.803   2.036  13.508  0.4242  0.4415 -1.7706
   43DOPE   C24 5457   1.634   2.154  13.612  0.2757  0.1784 -0.4180
   43DOPE   H4R 5458   1.561   2.078  13.575 -1.5215  1.2799  0.6869
   43DOPE   H4S 5459   1.585   2.254  13.606 -0.0110  0.1454  1.0160
   43DOPE   C25 5460   1.659   2.122  13.757  0.0436 -0.2662  0.1527
   43DOPE   H5R 5461   1.761   2.152  13.789 -0.8276  2.0876  0.9389
   43DOPE   H5S 5462   1.658   2.012  13.778  0.8496 -0.2816  0.1569
   43DOPE   C26 5463   1.548   2.179  13.850  0.2892 -0.8580  0.2054
   43DOPE   H6R 5464   1.455   2.162  13.790  0.5120 -2.1994  0.2130
   43DOPE   H6S 5465   1.561   2.287  13.872 -0.1001 -0.4873 -1.2282
   43DOPE   C27 5466   1.540   2.103  13.992  0.3807 -0.0635  0.7881
   43DOPE   H7R 5467   1.514   2.001  13.956 -2.3762  0.5118  0.8878
   43DOPE   H7S 5468   1.450   2.136  14.049 -0.6639 -0.7058 -0.4346
   43DOPE   C28 5469   1.665   2.108  14.073 -0.0760  0.1031  0.0325
   43DOPE   H8R 5470   1.754   2.075  14.016 -0.1926  0.3268 -0.2821
   43DOPE   H8S 5471   1.647   2.038  14.157  1.3156  1.1071  1.2082
   43DOPE   C29 5472   1.687   2.248  14.126  0.9596 -0.2638 -0.6424
   43DOPE   H9R 5473   1.748   2.319  14.069 -0.5249  1.6460  0.0691
   43DOPE  C210 5474   1.649   2.295  14.248  0.2163  0.1503 -0.8819
   43DOPE  H10R 5475   1.671   2.401  14.265 -0.1549  0.0198  0.5307
   43DOPE  C211 5476   1.574   2.222  14.358  1.0359 -0.0467  0.2084
   43DOPE  H11R 5477   1.645   2.191  14.438  0.2366 -1.4010  0.4395
   43DOPE  H11S 5478   1.527   2.132  14.314  1.7341 -0.6063  0.5870
   43DOPE  C212 5479   1.451   2.293  14.425 -0.0006 -0.3299  0.4111
   43DOPE  H12R 5480   1.491   2.379  14.483  1.0489  1.2291 -2.4418
   43DOPE  H12S 5481   1.407   2.219  14.496 -0.9065 -1.7999 -1.6103
   43DOPE  C213 5482   1.331   2.327  14.324 -0.7205 -0.5639 -0.0212
   43DOPE  H13R 5483   1.328   2.237  14.259  3.6768 -0.0912 -1.2505
   43DOPE  H13S 5484   1.375   2.407  14.260 -2.9250 -1.3920 -2.7478
   43DOPE  C214 5485   1.203   2.363  14.398  0.6837 -0.6452 -0.0553
   43DOPE  H14R 5486   1.157   2.278  14.453 -1.6919  1.4201  1.3436
   43DOPE  H14S 5487   1.135   2.394  14.316  0.3270  2.3812  1.2513
   43DOPE  C215 5488   1.229   2.488  14.490  0.1427 -0.4408  0.7583
   43DOPE  H15R 5489   1.273   2.573  14.434 -1.0322  0.3000  0.9238
   43DOPE  H15S 5490   1.304   2.467  14.569  0.3753 -0.6813  0.4813
   43DOPE  C216 5491   1.102   2.544  14.547 -0.3849  0.7412 -0.6592
   43DOPE  H16R 5492   1.071   2.478  14.631  0.3235  0.7686 -0.3755
   43DOPE  H16S 5493   1.020   2.551  14.471 -2.1557  1.4686  1.2109
   43DOPE  C217 5494   1.114   2.685  14.606  0.4943 -0.2831 -0.5448
   43DOPE  H17R 5495   1.133   2.761  14.527  0.5603 -0.0603 -0.3175
   43DOPE  H17S 5496   1.207   2.692  14.666  0.7098  1.8644 -1.0369
   43DOPE  C218 5497   0.989   2.707  14.691 -0.7231 -0.6903  0.2799
   43DOPE  H18R 5498   0.994   2.637  14.777 -1.5073 -0.6445  0.3668
   43DOPE  H18S 5499   0.907   2.670  14.627 -0.2539 -0.9499 -0.1754
   43DOPE  H18T 5500   0.990   2.807  14.741  1.2689  0.1393 -1.2709
   43DOPE   C33 5501   1.200   2.546  13.665 -1.1998 -0.6869  0.2615
   43DOPE   H3X 5502   1.108   2.503  13.709  0.8914 -1.2745  4.6160
   43DOPE   H3Y 5503   1.200   2.655  13.644  1.2793 -0.2111  2.2601
   43DOPE   C34 5504   1.305   2.515  13.767 -0.3490  0.1390 -0.4170
   43DOPE   H4X 5505   1.321   2.405  13.768 -1.9697 -0.1358 -1.1478
   43DOPE   H4Y 5506   1.402   2.565  13.749 -0.3483 -0.4460 -2.2080
   43DOPE   C35 5507   1.257   2.538  13.914 -0.5063 -0.2394  0.2872
   43DOPE   H5X 5508   1.340   2.517  13.985 -0.0960  1.4572  0.3512
   43DOPE   H5Y 5509   1.173   2.469  13.938  0.9038 -2.2175 -0.1896
   43DOPE   C36 5510   1.216   2.682  13.943  0.0813 -0.1015  0.8819
   43DOPE   H6X 5511   1.118   2.699  13.894 -0.3021  0.3886  1.7743
   43DOPE   H6Y 5512   1.285   2.746  13.883 -1.5239  0.5286 -0.3591
   43DOPE   C37 5513   1.217   2.702  14.094  0.3460  0.0047  0.4571
   43DOPE   H7X 5514   1.158   2.617  14.135  1.1618 -2.0752 -2.3011
   43DOPE   H7Y 5515   1.318   2.687  14.139  0.7385 -0.0148 -0.3949
   43DOPE   C38 5516   1.162   2.840  14.131 -0.1821 -0.2284 -0.1515
   43DOPE   H8X 5517   1.229   2.920  14.092  1.7908 -1.7155  0.0622
   43DOPE   H8Y 5518   1.176   2.844  14.241  1.0472 -2.9724 -0.1408
   43DOPE   C39 5519   1.021   2.847  14.081  0.8446  0.7606  0.0295
   43DOPE   H9X 5520   1.000   2.837  13.974  0.5153  3.0653 -0.1668
   43DOPE  C310 5521   0.913   2.864  14.148  0.7662  0.1257 -0.0122
   43DOPE  H10X 5522   0.819   2.866  14.092  1.5866  0.3868 -1.4049
   43DOPE  C311 5523   0.897   2.874  14.302 -0.1317 -0.7687 -0.3908
   43DOPE  H11X 5524   0.820   2.801  14.335  0.9684 -1.6127  0.3809
   43DOPE  H11Y 5525   0.992   2.847  14.354  0.8225 -0.1976 -1.7681
   43DOPE  C312 5526   0.852   3.011  14.346  0.2357 -0.0556 -0.0161
   43DOPE  H12X 5527   0.818   3.028  14.450  0.1017  1.4570 -0.2788
   43DOPE  H12Y 5528   0.761   3.038  14.288  0.7804  1.9644 -0.0145
   43DOPE  C313 5529   0.948   3.133  14.314  0.5030 -0.7063 -0.3518
   43DOPE  H13X 5530   0.962   3.149  14.205  1.5900 -0.2776 -0.1654
   43DOPE  H13Y 5531   0.896   3.222  14.354  0.2222 -1.3441  0.7595
   43DOPE  C314 5532   1.077   3.122  14.392 -0.4379  0.0194  0.2251
   43DOPE  H14X 5533   1.131   3.214  14.363  0.8075 -1.1064 -1.1559
   43DOPE  H14Y 5534   1.136   3.037  14.351 -1.4142 -1.0987  1.0504
   43DOPE  C315 5535   1.065   3.101  14.540 -0.4912 -0.0540 -0.0861
   43DOPE  H15X 5536   1.037   2.993  14.534  0.8396 -0.4655  0.5832
   43DOPE  H15Y 5537   0.986   3.167  14.583 -1.0932 -0.4675 -0.5374
   43DOPE  C316 5538   1.200   3.113  14.610 -0.6926 -0.7652  0.6920
   43DOPE  H16X 5539   1.237   3.217  14.601 -2.1299 -0.1326  1.6787
   43DOPE  H16Y 5540   1.263   3.037  14.560 -0.5166 -1.3415  1.7533
   43DOPE  C317 5541   1.195   3.073  14.761 -0.4248  0.2079  0.4207
   43DOPE  H17X 5542   1.144   3.151  14.820 -1.3553 -0.6497  0.7863
   43DOPE  H17Y 5543   1.139   2.979  14.782  0.3281 -0.7441 -1.5690
   43DOPE  C318 5544   1.337   3.043  14.827  0.4127 -0.0359 -0.4988
   43DOPE  H18X 5545   1.389   3.141  14.822 -0.1429  0.2489 -0.8957
   43DOPE  H18Y 5546   1.323   3.009  14.932  0.1205 -1.5531 -1.0027
   43DOPE  H18Z 5547   1.403   2.963  14.787  1.5913  1.1693 -1.0384
   44DOPE     N 5548   3.420   1.519  13.026 -0.3028  0.1505 -0.8878
   44DOPE   HN1 5549   3.430   1.575  13.113  0.3164  2.2096 -2.2219
   44DOPE   HN2 5550   3.513   1.488  12.992 -0.2906 -0.5833 -0.2062
   44DOPE   HN3 5551   3.377   1.580  12.953 -1.7154  0.4813  0.1690
   44DOPE   C12 5552   3.344   1.395  13.029 -0.0686  0.0445 -0.0460
   44DOPE  H12A 5553   3.403   1.321  13.087  2.1529  3.1362  1.9475
   44DOPE  H12B 5554   3.324   1.359  12.926 -4.0555 -0.4527  0.7374
   44DOPE   C11 5555   3.204   1.401  13.103  0.4170  0.5819  0.2338
   44DOPE  H11A 5556   3.206   1.452  13.201  1.9778  0.3545  0.3396
   44DOPE  H11B 5557   3.174   1.295  13.119  0.4989  0.7582  1.6983
   44DOPE     P 5558   3.017   1.417  12.915  0.0677  0.4352 -0.3505
   44DOPE   O13 5559   3.088   1.338  12.808  0.7142  0.1996  0.5691
   44DOPE   O14 5560   2.932   1.525  12.861  0.0791 -0.1307 -1.0474
   44DOPE   O11 5561   2.934   1.321  13.010 -0.1812 -0.7298  0.3780
   44DOPE   O12 5562   3.116   1.478  13.019 -0.4362 -0.3287 -0.2341
   44DOPE    C1 5563   2.843   1.360  13.110 -0.5080 -0.1678 -0.7594
   44DOPE    HA 5564   2.765   1.280  13.105 -0.3229 -0.2912 -1.7345
   44DOPE    HB 5565   2.804   1.463  13.096 -0.9258 -0.2744 -0.4385
   44DOPE    C2 5566   2.905   1.361  13.258  0.0594  0.1782 -0.2022
   44DOPE    HS 5567   2.993   1.428  13.250  0.0026  0.2070 -0.5985
   44DOPE   O21 5568   2.947   1.230  13.300 -0.2689  0.2382  0.0395
   44DOPE   C21 5569   3.044   1.228  13.390  0.1964  0.0776  0.1512
   44DOPE   O22 5570   3.110   1.323  13.431 -0.2656  0.0496 -0.2794
   44DOPE   C22 5571   3.070   1.090  13.447  0.3863  0.8280  0.3848
   44DOPE   H2R 5572   3.080   1.015  13.366 -0.0452 -0.1197  1.1904
   44DOPE   H2S 5573   2.980   1.061  13.505  0.5307  1.5855  0.9992
   44DOPE    C3 5574   2.790   1.427  13.345 -0.2276  0.2321 -0.3306
   44DOPE    HX 5575   2.713   1.347  13.340  2.1327 -2.1152 -1.2688
   44DOPE    HY 5576   2.756   1.516  13.288  0.1049  0.8100  0.3512
   44DOPE   O31 5577   2.830   1.457  13.479 -0.0972 -0.0792 -0.5311
   44DOPE   C31 5578   2.919   1.552  13.507  0.0744 -0.4352 -0.3475
   44DOPE   O32 5579   2.961   1.631  13.424 -0.4997  0.1472 -0.7019
   44DOPE   C32 5580   2.962   1.549  13.653  0.1851  0.0653 -0.2131
   44DOPE   H2X 5581   2.897   1.486  13.717  0.9417  0.1168  0.6272
   44DOPE   H2Y 5582   3.059   1.495  13.653 -0.5505 -1.2975  0.5288
   44DOPE   C23 5583   3.192   1.086  13.537 -0.3937  0.4052 -0.3550
   44DOPE   H3R 5584   3.199   1.186  13.586  2.1486  0.7670 -1.3102
   44DOPE   H3S 5585   3.280   1.093  13.470  0.2754  3.1018  0.6771
   44DOPE   C24 5586   3.219   0.979  13.637 -0.2090 -0.0768 -0.5299
   44DOPE   H4R 5587   3.232   0.879  13.590  0.2661 -0.0470 -0.4624
   44DOPE   H4S 5588   3.128   0.966  13.701 -0.4519  0.8948 -0.6615
   44DOPE   C25 5589   3.334   1.004  13.729 -0.4361  0.2983  0.1237
   44DOPE   H5R 5590   3.306   1.070  13.814 -2.8705  0.0275 -0.4034
   44DOPE   H5S 5591   3.414   1.065  13.683 -0.2223 -0.2252 -0.2168
   44DOPE   C26 5592   3.399   0.875  13.780 -0.0924 -0.5584 -0.3933
   44DOPE   H6R 5593   3.409   0.803  13.696  1.1162  1.8071 -2.3883
   44DOPE   H6S 5594   3.326   0.826  13.849 -0.8469  0.5969 -0.3483
   44DOPE   C27 5595   3.531   0.891  13.853 -0.1864  0.0467  0.6369
   44DOPE   H7R 5596   3.600   0.932  13.776 -0.3129 -1.9272 -0.6085
   44DOPE   H7S 5597   3.572   0.791  13.877  1.4000  0.6590  0.6072
   44DOPE   C28 5598   3.523   0.980  13.980 -0.3400  0.1659  0.6166
   44DOPE   H8R 5599   3.465   0.934  14.062 -0.2735  2.0528  1.7718
   44DOPE   H8S 5600   3.469   1.072  13.951 -1.6475 -1.3114 -2.0366
   44DOPE   C29 5601   3.664   1.005  14.019 -0.2682 -0.5775  0.0203
   44DOPE   H9R 5602   3.726   1.071  13.956 -2.2093  0.1272 -1.2508
   44DOPE  C210 5603   3.724   0.963  14.134  1.3219 -0.5363 -0.5545
   44DOPE  H10R 5604   3.829   0.985  14.156  1.2549 -0.6385 -0.1321
   44DOPE  C211 5605   3.658   0.866  14.231 -0.1802 -0.4628  0.5897
   44DOPE  H11R 5606   3.644   0.759  14.203 -2.5059 -0.9492  3.1414
   44DOPE  H11S 5607   3.552   0.897  14.244  0.0171  1.1126 -1.1813
   44DOPE  C212 5608   3.709   0.867  14.374  0.7761  0.2244 -0.4713
   44DOPE  H12R 5609   3.641   0.806  14.436 -1.1750  3.7694  1.2203
   44DOPE  H12S 5610   3.693   0.969  14.417 -1.3646 -0.0854 -0.4381
   44DOPE  C213 5611   3.856   0.834  14.398 -0.5496  0.4326 -0.3208
   44DOPE  H13R 5612   3.925   0.899  14.340 -0.5015 -0.9202 -1.8634
   44DOPE  H13S 5613   3.882   0.736  14.352  0.6484  0.9254 -0.7485
   44DOPE  C214 5614   3.897   0.833  14.549  0.1623  0.4808  0.3396
   44DOPE  H14R 5615   3.825   0.784  14.618  0.9212  0.9425  1.4876
   44DOPE  H14S 5616   3.897   0.943  14.563 -2.1475  0.7839 -1.5364
   44DOPE  C215 5617   4.035   0.773  14.582  0.7603 -0.3689 -0.3260
   44DOPE  H15R 5618   4.077   0.839  14.660 -0.7095 -2.1470  2.1021
   44DOPE  H15S 5619   4.100   0.788  14.493  0.5672 -4.2059 -1.2774
   44DOPE  C216 5620   4.051   0.628  14.629  0.5035 -0.5255  0.1832
   44DOPE  H16R 5621   4.017   0.562  14.546  2.8072  0.2780 -1.5323
   44DOPE  H16S 5622   3.984   0.610  14.716 -1.6839 -0.4973 -1.4105
   44DOPE  C217 5623   4.198   0.590  14.649 -0.0681  0.8204 -0.1617
   44DOPE  H17R 5624   4.243   0.661  14.721  1.3251 -1.1576  1.0081
   44DOPE  H17S 5625   4.253   0.603  14.553 -2.8677  4.6554 -1.4933
   44DOPE  C218 5626   4.214   0.447  14.709 -0.0802 -0.4407  0.2007
   44DOPE  H18R 5627   4.310   0.412  14.668 -0.6550  0.4538 -2.0284
   44DOPE  H18S 5628   4.127   0.388  14.672  0.8366 -1.1562 -0.8667
   44DOPE  H18T 5629   4.221   0.456  14.820  4.3735 -0.9583  0.1426
   44DOPE   C33 5630   2.981   1.693  13.707 -1.2913  0.8460  0.0581
   44DOPE   H3X 5631   2.893   1.755  13.678 -0.8814  0.7396 -1.5119
   44DOPE   H3Y 5632   3.063   1.747  13.654 -1.4793 -0.3451 -1.5161
   44DOPE   C34 5633   3.009   1.700  13.856 -0.0240 -0.0399 -0.0206
   44DOPE   H4X 5634   2.961   1.622  13.919  0.0228  0.1175  0.2094
   44DOPE   H4Y 5635   3.114   1.675  13.880 -0.3899 -0.6644  0.9941
   44DOPE   C35 5636   2.976   1.834  13.922 -0.1159  0.2219 -0.2677
   44DOPE   H5X 5637   2.867   1.856  13.910  0.5453  2.4587 -3.4960
   44DOPE   H5Y 5638   3.031   1.916  13.872 -0.3209 -0.2626 -1.3388
   44DOPE   C36 5639   3.004   1.840  14.079  0.1938 -0.1630 -0.1999
   44DOPE   H6X 5640   3.111   1.856  14.101  0.3929  2.2777 -2.3906
   44DOPE   H6Y 5641   2.965   1.752  14.134  2.2272 -1.0332 -0.0756
   44DOPE   C37 5642   2.933   1.961  14.143  0.7914  0.4453 -0.6191
   44DOPE   H7X 5643   2.976   2.053  14.099  2.2281 -0.2322 -0.7003
   44DOPE   H7Y 5644   2.825   1.958  14.115  0.2798 -2.3107  1.2674
   44DOPE   C38 5645   2.947   1.961  14.293 -0.6491 -0.2215 -0.5510
   44DOPE   H8X 5646   3.052   1.940  14.325 -1.1388 -3.4251 -0.6787
   44DOPE   H8Y 5647   2.901   1.867  14.332 -0.4386 -0.1425 -0.1024
   44DOPE   C39 5648   2.888   2.082  14.354 -0.6862 -0.2181  0.4769
   44DOPE   H9X 5649   2.920   2.172  14.300  0.3232 -1.0332 -0.3087
   44DOPE  C310 5650   2.793   2.093  14.444  0.4977  0.6765  0.4557
   44DOPE  H10X 5651   2.758   2.191  14.483 -0.5634 -0.0891  1.5112
   44DOPE  C311 5652   2.725   1.973  14.507 -0.1875  0.2812  0.4075
   44DOPE  H11X 5653   2.614   1.977  14.512 -0.4231 -0.9272 -2.3155
   44DOPE  H11Y 5654   2.747   1.875  14.459 -0.0018  0.3017  0.4473
   44DOPE  C312 5655   2.762   1.960  14.656  0.0872 -0.0851  0.2640
   44DOPE  H12X 5656   2.734   2.046  14.719 -0.4816 -1.1262  1.4723
   44DOPE  H12Y 5657   2.871   1.954  14.678  0.1403  0.4007  0.1337
   44DOPE  C313 5658   2.688   1.839  14.720 -0.9837  0.0498  0.3692
   44DOPE  H13X 5659   2.580   1.861  14.705 -0.6727  0.3003 -1.8096
   44DOPE  H13Y 5660   2.709   1.744  14.667 -1.0753  1.5695 -2.5920
   44DOPE  C314 5661   2.729   1.825  14.866 -0.0142 -0.3801  0.9396
   44DOPE  H14X 5662   2.685   1.917  14.911  0.2479  1.6840 -2.6345
   44DOPE  H14Y 5663   2.837   1.817  14.890  0.7124 -1.8336 -2.2517
   44DOPE  C315 5664   2.672   1.695  14.921 -0.3447  0.3614  0.0599
   44DOPE  H15X 5665   2.720   1.614  14.861  1.7361  1.4849  0.1349
   44DOPE  H15Y 5666   2.565   1.694  14.890 -0.6991 -0.8245  1.2545
   44DOPE  C316 5667   2.681   1.683  15.080 -0.8764  0.2378 -0.4040
   44DOPE  H16X 5668   2.786   1.709  15.105 -0.7998 -0.5122  0.0673
   44DOPE  H16Y 5669   2.671   1.574  15.095 -1.9854  0.4141  0.3264
   44DOPE  C317 5670   2.592   1.770  15.163  0.1830  0.0519 -0.2999
   44DOPE  H17X 5671   2.603   1.874  15.126  0.3884  0.2582  0.3141
   44DOPE  H17Y 5672   2.491   1.735  15.130 -0.0638  1.4299 -1.0657
   44DOPE  C318 5673   2.610   1.765  15.311  0.1797  0.7103 -0.6051
   44DOPE  H18X 5674   2.556   1.848  15.361  0.2326  0.2742  0.1999
   44DOPE  H18Y 5675   2.578   1.663  15.344  0.3715  1.8393  3.6751
   44DOPE  H18Z 5676   2.716   1.774  15.343 -0.4643 -0.7027  2.2285
   45DOPE     N 5677   4.129   1.186  12.857  0.1775  1.3699  0.3079
   45DOPE   HN1 5678   4.173   1.234  12.776  1.0819 -1.2202 -0.8356
   45DOPE   HN2 5679   4.154   1.235  12.945  2.1241 -1.5906  1.5683
   45DOPE   HN3 5680   4.163   1.087  12.854 -0.9999  0.9325  0.9767
   45DOPE   C12 5681   3.981   1.179  12.845  0.2562  0.8388  0.1333
   45DOPE  H12A 5682   3.943   1.077  12.822 -0.2235  1.2398 -0.9078
   45DOPE  H12B 5683   3.951   1.239  12.757  2.9478  0.1350 -1.3688
   45DOPE   C11 5684   3.902   1.232  12.965 -0.2414 -0.3366 -0.0488
   45DOPE  H11A 5685   3.950   1.203  13.061 -0.9848 -0.6265  0.2416
   45DOPE  H11B 5686   3.806   1.177  12.974 -0.7362  0.4806 -0.2075
   45DOPE     P 5687   3.774   1.452  13.040 -0.3551  0.2439 -0.6375
   45DOPE   O13 5688   3.646   1.389  13.001 -0.5232  0.3916 -0.0437
   45DOPE   O14 5689   3.795   1.598  13.025  0.3601  0.1313  0.7242
   45DOPE   O11 5690   3.807   1.415  13.195  0.0475  0.4003  0.4281
   45DOPE   O12 5691   3.886   1.377  12.961 -0.5190  0.3766  0.5034
   45DOPE    C1 5692   3.720   1.312  13.258  0.4240  0.7856  0.2754
   45DOPE    HA 5693   3.724   1.224  13.191 -0.8855  3.0255 -3.0034
   45DOPE    HB 5694   3.615   1.347  13.260  0.3453  0.7862 -2.0072
   45DOPE    C2 5695   3.772   1.279  13.403  0.5840 -0.2366 -0.7329
   45DOPE    HS 5696   3.693   1.242  13.472  2.6383  0.9446  2.4655
   45DOPE   O21 5697   3.812   1.407  13.476  0.4153  0.6196 -0.3999
   45DOPE   C21 5698   3.718   1.502  13.483 -0.5307 -0.2551  0.1961
   45DOPE   O22 5699   3.600   1.489  13.465 -0.3493  0.5144  0.4442
   45DOPE   C22 5700   3.780   1.631  13.540  0.7837  0.0501 -0.2172
   45DOPE   H2R 5701   3.888   1.608  13.550  0.8838 -0.8101 -2.6233
   45DOPE   H2S 5702   3.745   1.641  13.645 -1.5198 -1.5492 -0.7520
   45DOPE    C3 5703   3.891   1.178  13.395  0.3008  0.6861 -0.4066
   45DOPE    HX 5704   3.967   1.232  13.334  1.3111 -0.2982 -0.0645
   45DOPE    HY 5705   3.856   1.088  13.340  4.2016 -1.7067  0.5480
   45DOPE   O31 5706   3.947   1.137  13.526  0.2558  0.0704 -0.1030
   45DOPE   C31 5707   3.884   1.038  13.588  0.1433 -0.2910  0.0300
   45DOPE   O32 5708   3.780   0.988  13.556  0.6507 -0.0341 -0.1363
   45DOPE   C32 5709   3.974   0.996  13.707 -0.0619 -0.1580 -0.0080
   45DOPE   H2X 5710   4.065   0.958  13.657  0.0972  0.8541 -0.5013
   45DOPE   H2Y 5711   3.993   1.077  13.781 -0.1728 -1.2704  1.2865
   45DOPE   C23 5712   3.772   1.757  13.449 -0.0377 -0.2516 -0.3008
   45DOPE   H3R 5713   3.667   1.792  13.454  0.1397  0.0932  2.0153
   45DOPE   H3S 5714   3.803   1.733  13.345  1.0847  1.8732 -0.5018
   45DOPE   C24 5715   3.864   1.868  13.500  0.0407 -0.0280  0.5127
   45DOPE   H4R 5716   3.865   1.940  13.415  1.2332  0.0196  0.5520
   45DOPE   H4S 5717   3.966   1.829  13.522 -0.0393 -0.3701  0.2972
   45DOPE   C25 5718   3.799   1.940  13.619 -0.4217 -0.3422  0.0381
   45DOPE   H5R 5719   3.768   1.862  13.692 -3.7829  0.7943  0.0345
   45DOPE   H5S 5720   3.707   1.996  13.589 -0.2885 -0.2655 -0.2292
   45DOPE   C26 5721   3.894   2.036  13.693 -0.2700 -0.0707 -0.2294
   45DOPE   H6R 5722   3.928   2.119  13.627  0.7901  0.7998  1.3500
   45DOPE   H6S 5723   3.988   1.993  13.732  0.2719  1.4130  0.1966
   45DOPE   C27 5724   3.810   2.090  13.802  0.1219 -0.2850 -0.0722
   45DOPE   H7R 5725   3.752   2.007  13.847 -0.0115 -0.3536 -0.3722
   45DOPE   H7S 5726   3.737   2.157  13.752  0.1414 -0.7894 -0.7940
   45DOPE   C28 5727   3.886   2.178  13.901 -0.5729 -1.2057  0.3218
   45DOPE   H8R 5728   3.805   2.237  13.949  0.7111  0.9257 -0.0244
   45DOPE   H8S 5729   3.940   2.259  13.848 -3.9823  0.5597 -0.7444
   45DOPE   C29 5730   3.965   2.102  14.005  0.5229  0.1158  0.3864
   45DOPE   H9R 5731   3.904   2.028  14.059  0.4489 -1.2901 -1.5415
   45DOPE  C210 5732   4.095   2.095  14.011  0.7351 -0.6217 -0.5728
   45DOPE  H10R 5733   4.136   2.038  14.095  1.8123 -0.8380 -1.2271
   45DOPE  C211 5734   4.192   2.168  13.922  0.6527  0.3029 -0.5107
   45DOPE  H11R 5735   4.146   2.213  13.831 -0.4885  0.0927 -0.0630
   45DOPE  H11S 5736   4.268   2.100  13.879  0.2186 -0.1444 -0.5731
   45DOPE  C212 5737   4.267   2.275  14.001 -0.0469 -0.1310 -0.3062
   45DOPE  H12R 5738   4.330   2.331  13.929  0.4070  0.8468  0.8133
   45DOPE  H12S 5739   4.337   2.235  14.078  0.2209  1.0212  0.0708
   45DOPE  C213 5740   4.178   2.377  14.075  0.1326 -0.0163  0.6189
   45DOPE  H13R 5741   4.108   2.312  14.132 -0.9546 -0.1977 -0.8395
   45DOPE  H13S 5742   4.110   2.427  14.003  2.7470 -0.7556 -2.6129
   45DOPE  C214 5743   4.255   2.478  14.153  0.1923 -0.0148  0.3954
   45DOPE  H14R 5744   4.182   2.555  14.187  1.2486  0.6767  1.1661
   45DOPE  H14S 5745   4.331   2.532  14.093 -1.8635  1.7448 -0.7770
   45DOPE  C215 5746   4.333   2.431  14.281  0.9061  0.1030 -0.3232
   45DOPE  H15R 5747   4.412   2.505  14.303  0.7643  0.2025 -0.1452
   45DOPE  H15S 5748   4.378   2.329  14.277  0.7635  0.0343 -0.1815
   45DOPE  C216 5749   4.251   2.434  14.412  0.1895  0.8145 -0.1369
   45DOPE  H16R 5750   4.311   2.412  14.503 -1.1972  0.3030  0.6709
   45DOPE  H16S 5751   4.180   2.349  14.403  0.5863  0.4632 -0.0112
   45DOPE  C217 5752   4.176   2.563  14.441  0.3603 -0.5872 -0.2292
   45DOPE  H17R 5753   4.095   2.589  14.369 -0.9367 -2.2198  0.5643
   45DOPE  H17S 5754   4.247   2.648  14.442  0.8252 -0.9789  0.4699
   45DOPE  C218 5755   4.129   2.558  14.590  0.8628 -0.3393 -0.4322
   45DOPE  H18R 5756   4.055   2.476  14.597 -2.5512  2.5697  0.8342
   45DOPE  H18S 5757   4.073   2.649  14.620 -0.8870 -2.1369  2.1831
   45DOPE  H18T 5758   4.207   2.532  14.664 -0.1853 -0.0285  0.8312
   45DOPE   C33 5759   3.925   0.874  13.781 -0.0976  0.6571 -0.0552
   45DOPE   H3X 5760   3.921   0.781  13.720  0.0230  0.0249  0.8865
   45DOPE   H3Y 5761   3.819   0.890  13.812  0.3608  2.9136  0.4948
   45DOPE   C34 5762   4.007   0.832  13.901 -0.3653  0.3499 -0.7970
   45DOPE   H4X 5763   4.118   0.836  13.902 -0.3074 -0.4039  1.6764
   45DOPE   H4Y 5764   3.986   0.918  13.968 -1.8051  1.3479 -2.4425
   45DOPE   C35 5765   3.944   0.700  13.955  0.8334 -0.6144 -0.6981
   45DOPE   H5X 5766   3.964   0.621  13.880 -2.0975 -2.3189  0.1792
   45DOPE   H5Y 5767   3.835   0.719  13.960  1.1901  1.5814  4.3862
   45DOPE   C36 5768   3.996   0.664  14.091  0.5180  0.4630 -0.3846
   45DOPE   H6X 5769   3.942   0.571  14.120 -1.7231  1.7475 -0.2041
   45DOPE   H6Y 5770   3.980   0.754  14.155  0.7298  0.9540 -1.0208
   45DOPE   C37 5771   4.148   0.639  14.102  0.1326  0.2684  0.3333
   45DOPE   H7X 5772   4.175   0.565  14.024  1.1957  0.6222  0.3502
   45DOPE   H7Y 5773   4.203   0.733  14.079 -1.1306  0.4063 -2.6396
   45DOPE   C38 5774   4.175   0.582  14.249  0.0216 -0.2983 -0.2498
   45DOPE   H8X 5775   4.088   0.517  14.276  0.1588 -0.3162  0.1501
   45DOPE   H8Y 5776   4.173   0.667  14.320 -2.1409  0.1839 -0.8030
   45DOPE   C39 5777   4.303   0.506  14.252 -0.2210 -0.4257  0.0767
   45DOPE   H9X 5778   4.386   0.574  14.278 -1.3365  1.8207 -1.9045
   45DOPE  C310 5779   4.329   0.377  14.253  0.7419  0.9388  0.1587
   45DOPE  H10X 5780   4.428   0.331  14.245  0.2004 -0.2939  0.2343
   45DOPE  C311 5781   4.220   0.269  14.248 -0.4788  0.5637  0.7540
   45DOPE  H11X 5782   4.123   0.308  14.209 -0.1103  4.2744  3.0284
   45DOPE  H11Y 5783   4.261   0.189  14.184 -3.0598 -1.1393  1.0739
   45DOPE  C312 5784   4.203   0.202  14.384  0.3327 -0.1609  0.1822
   45DOPE  H12X 5785   4.171   0.272  14.464 -0.7991 -1.0092  0.5024
   45DOPE  H12Y 5786   4.299   0.151  14.407  0.3918 -0.3865 -0.5267
   45DOPE  C313 5787   4.098   0.093  14.395  0.2420 -0.3522 -0.2246
   45DOPE  H13X 5788   4.003   0.141  14.427 -0.0562 -2.5102  2.6293
   45DOPE  H13Y 5789   4.083   0.035  14.302 -0.1530 -1.3834  0.4545
   45DOPE  C314 5790   4.139  -0.000  14.512 -0.5605  0.2578 -0.2844
   45DOPE  H14X 5791   4.243  -0.032  14.491  1.4798  5.1082  1.1085
   45DOPE  H14Y 5792   4.061  -0.079  14.508 -0.3136 -0.0143  0.2210
   45DOPE  C315 5793   4.137   0.061  14.653 -0.2922 -0.5381 -0.3372
   45DOPE  H15X 5794   4.030   0.082  14.676 -0.6154 -4.1473  2.3827
   45DOPE  H15Y 5795   4.189   0.158  14.666 -0.7183 -0.4015  0.4324
   45DOPE  C316 5796   4.188  -0.027  14.768  0.1326  0.7566  0.0034
   45DOPE  H16X 5797   4.268  -0.083  14.714  2.6970  2.7781  1.4934
   45DOPE  H16Y 5798   4.112  -0.092  14.818 -0.3076  2.0456  1.0521
   45DOPE  C317 5799   4.268   0.034  14.881  0.0219 -0.4021 -0.7363
   45DOPE  H17X 5800   4.313  -0.053  14.933 -0.2372 -1.9132 -2.8831
   45DOPE  H17Y 5801   4.357   0.082  14.835  0.3478 -0.5297 -0.2379
   45DOPE  C318 5802   4.207   0.128  14.982 -0.1321 -0.2354  0.8746
   45DOPE  H18X 5803   4.176   0.216  14.921 -1.8060  1.2978  3.7040
   45DOPE  H18Y 5804   4.114   0.087  15.028  0.8650 -0.9361  2.3372
   45DOPE  H18Z 5805   4.279   0.166  15.058 -1.5575 -1.4361  2.9347
   46DOPE     N 5806   3.936   7.135  12.421 -0.1075 -0.2387  0.9115
   46DOPE   HN1 5807   3.957   7.038  12.452 -0.5688 -1.6591 -2.7086
   46DOPE   HN2 5808   3.863   7.179  12.481 -2.9106 -1.0356 -1.6505
   46DOPE   HN3 5809   3.896   7.129  12.325  1.9236 -1.5651  0.0822
   46DOPE   C12 5810   4.057   7.224  12.431 -0.2718 -0.0541 -1.4911
   46DOPE  H12A 5811   4.026   7.329  12.409 -0.1151  0.2441 -0.3304
   46DOPE  H12B 5812   4.144   7.191  12.370  0.4812  0.0671 -0.5069
   46DOPE   C11 5813   4.112   7.213  12.575  0.2796 -0.6188 -0.4820
   46DOPE  H11A 5814   4.042   7.246  12.655  0.0946 -0.2175 -0.8027
   46DOPE  H11B 5815   4.199   7.283  12.573 -0.8459  0.8702  0.4222
   46DOPE     P 5816   4.144   7.016  12.754  0.1201  0.1436 -0.0017
   46DOPE   O13 5817   4.280   6.969  12.786 -0.1962 -0.4646  0.2364
   46DOPE   O14 5818   4.030   6.920  12.758  0.0010  0.1512  0.3364
   46DOPE   O11 5819   4.112   7.131  12.855 -0.2737 -0.6286  0.9904
   46DOPE   O12 5820   4.149   7.084  12.607 -0.7577  0.4295 -0.5116
   46DOPE    C1 5821   3.982   7.148  12.908  0.4543  0.9288  0.6750
   46DOPE    HA 5822   3.904   7.116  12.835 -0.8629  1.9953  1.5532
   46DOPE    HB 5823   3.958   7.256  12.919 -0.9426  0.6514  0.5089
   46DOPE    C2 5824   3.959   7.084  13.053 -0.5241 -0.0802  0.5638
   46DOPE    HS 5825   3.859   7.119  13.087 -0.4703  0.1139  0.5255
   46DOPE   O21 5826   4.069   7.132  13.148  0.3801 -0.0467  0.1529
   46DOPE   C21 5827   4.054   7.262  13.187  0.5818  0.4983 -0.4270
   46DOPE   O22 5828   3.954   7.329  13.163  0.8263  0.3065 -0.0041
   46DOPE   C22 5829   4.165   7.300  13.287 -0.7085 -0.2001  0.0624
   46DOPE   H2R 5830   4.261   7.278  13.234 -0.4660 -0.0822  0.4510
   46DOPE   H2S 5831   4.156   7.226  13.370  2.1005  0.1653  0.7931
   46DOPE    C3 5832   3.962   6.923  13.053 -0.3988  0.4205  0.5260
   46DOPE    HX 5833   4.067   6.907  13.021 -0.5112  0.2219  0.2593
   46DOPE    HY 5834   3.893   6.885  12.975 -0.2149  1.6097 -0.2423
   46DOPE   O31 5835   3.923   6.875  13.186  0.1715  0.2693 -0.0445
   46DOPE   C31 5836   3.969   6.757  13.213 -0.6314  0.6645  0.1908
   46DOPE   O32 5837   4.043   6.690  13.144 -0.1794  0.7899 -0.0168
   46DOPE   C32 5838   3.909   6.706  13.339  0.2510  0.1168 -0.0959
   46DOPE   H2X 5839   3.994   6.689  13.409 -0.7195 -2.9171  0.5203
   46DOPE   H2Y 5840   3.846   6.787  13.383 -0.0753  0.2173 -0.7317
   46DOPE   C23 5841   4.150   7.451  13.332  0.6187 -0.4123  1.1387
   46DOPE   H3R 5842   4.043   7.462  13.362 -0.0022 -2.0042 -0.3260
   46DOPE   H3S 5843   4.163   7.508  13.238 -0.9791  1.2243  1.8300
   46DOPE   C24 5844   4.256   7.498  13.439 -0.4129  0.2754  0.3574
   46DOPE   H4R 5845   4.256   7.435  13.531  0.1329  0.2300  0.3329
   46DOPE   H4S 5846   4.245   7.601  13.478  3.7336  0.0036  2.7724
   46DOPE   C25 5847   4.399   7.485  13.378  0.0999 -0.5632 -0.0347
   46DOPE   H5R 5848   4.396   7.524  13.274 -1.2593 -0.0470  0.1693
   46DOPE   H5S 5849   4.434   7.381  13.366  0.2058 -0.4209 -1.0473
   46DOPE   C26 5850   4.512   7.576  13.441  0.0414  0.6548  0.4259
   46DOPE   H6R 5851   4.486   7.684  13.433 -2.8316 -0.0194 -0.6672
   46DOPE   H6S 5852   4.603   7.560  13.379 -1.2842  0.2688 -1.5009
   46DOPE   C27 5853   4.544   7.535  13.582  0.2800  0.0962  0.4629
   46DOPE   H7R 5854   4.600   7.439  13.587  0.6337  0.2557 -0.2058
   46DOPE   H7S 5855   4.445   7.501  13.620 -0.3095 -1.1061 -1.9213
   46DOPE   C28 5856   4.603   7.641  13.664 -0.6092 -0.2401 -0.4237
   46DOPE   H8R 5857   4.609   7.611  13.771 -3.6908  1.2707  0.2841
   46DOPE   H8S 5858   4.531   7.725  13.662 -2.6279 -1.8710 -0.2110
   46DOPE   C29 5859   4.735   7.696  13.599 -1.0187 -0.4459  0.7215
   46DOPE   H9R 5860   4.730   7.763  13.512 -0.2662 -2.1542 -0.6953
   46DOPE  C210 5861   4.857   7.669  13.656 -0.1418  0.4814  0.8891
   46DOPE  H10R 5862   4.945   7.718  13.612  0.3637  1.1934  2.6325
   46DOPE  C211 5863   4.890   7.591  13.780  0.7966  0.1002 -0.2854
   46DOPE  H11R 5864   4.908   7.483  13.758 -0.8346 -0.1922 -0.2919
   46DOPE  H11S 5865   4.807   7.605  13.852  1.6017  0.9895  0.5030
   46DOPE  C212 5866   5.009   7.652  13.856 -0.2969  0.6923  0.6431
   46DOPE  H12R 5867   4.992   7.756  13.891 -2.8818 -0.3902  2.9224
   46DOPE  H12S 5868   5.098   7.664  13.790  2.5306 -1.5912  3.6844
   46DOPE  C213 5869   5.048   7.571  13.980 -0.2701  0.6894  0.1435
   46DOPE  H13R 5870   5.139   7.609  14.031  1.2622  0.2546 -2.0824
   46DOPE  H13S 5871   5.075   7.467  13.953 -0.1669  1.3252 -2.4815
   46DOPE  C214 5872   4.937   7.565  14.090  0.5184  0.5213 -0.5150
   46DOPE  H14R 5873   4.865   7.489  14.051  0.5365 -0.3426  1.0553
   46DOPE  H14S 5874   4.897   7.667  14.107  0.0324  0.3849 -0.8202
   46DOPE  C215 5875   4.994   7.514  14.230 -0.6889  0.2484 -0.3226
   46DOPE  H15R 5876   4.912   7.469  14.290 -0.1374  0.7112  0.8037
   46DOPE  H15S 5877   5.038   7.602  14.282 -0.1146  1.0794 -2.1297
   46DOPE  C216 5878   5.091   7.396  14.218 -0.2006 -0.2311  0.1481
   46DOPE  H16R 5879   5.186   7.446  14.189 -0.3930  0.2841  0.3823
   46DOPE  H16S 5880   5.070   7.323  14.138  1.4062 -1.8830  1.1555
   46DOPE  C217 5881   5.109   7.314  14.348 -0.2403  0.3006  0.2382
   46DOPE  H17R 5882   5.185   7.234  14.349  0.8518  1.2990 -0.5750
   46DOPE  H17S 5883   5.004   7.278  14.354 -0.1442  0.2058  1.7209
   46DOPE  C218 5884   5.133   7.403  14.472 -0.1986 -0.0239  0.0846
   46DOPE  H18R 5885   5.038   7.459  14.483 -1.6861 -2.0783 -1.5803
   46DOPE  H18S 5886   5.214   7.477  14.453  1.1945 -1.8402 -1.3991
   46DOPE  H18T 5887   5.150   7.354  14.570 -2.1222 -0.0799  0.4227
   46DOPE   C33 5888   3.830   6.569  13.338  0.1813 -0.6030  0.6303
   46DOPE   H3X 5889   3.895   6.496  13.285  2.1884  0.6033  1.3059
   46DOPE   H3Y 5890   3.742   6.592  13.275  1.0950  0.1067 -0.4286
   46DOPE   C34 5891   3.793   6.516  13.469 -0.2563 -0.1904 -0.7221
   46DOPE   H4X 5892   3.883   6.490  13.528 -0.8453  1.4736  1.0068
   46DOPE   H4Y 5893   3.739   6.593  13.529 -2.4327 -2.6408  0.6698
   46DOPE   C35 5894   3.695   6.396  13.462  0.5124  0.2845  0.4581
   46DOPE   H5X 5895   3.746   6.311  13.411  0.2538  0.8465 -0.7555
   46DOPE   H5Y 5896   3.606   6.409  13.397  0.9244  1.6609  0.1496
   46DOPE   C36 5897   3.640   6.355  13.601 -0.4357  0.4131  0.2386
   46DOPE   H6X 5898   3.601   6.449  13.645  2.4841  1.0294  1.7442
   46DOPE   H6Y 5899   3.725   6.325  13.666 -0.3164  1.1967  0.4531
   46DOPE   C37 5900   3.541   6.240  13.614  0.3087  1.0361 -0.5352
   46DOPE   H7X 5901   3.464   6.262  13.537 -0.5298 -2.3909 -0.8688
   46DOPE   H7Y 5902   3.590   6.141  13.598  0.1340  0.8833 -0.1523
   46DOPE   C38 5903   3.480   6.241  13.761  0.0488 -0.1905  0.6600
   46DOPE   H8X 5904   3.409   6.156  13.753  2.3405 -2.0694 -1.0162
   46DOPE   H8Y 5905   3.426   6.336  13.781  0.5120 -0.0229  1.1603
   46DOPE   C39 5906   3.581   6.232  13.867 -0.3483 -0.2121 -0.6131
   46DOPE   H9X 5907   3.680   6.207  13.826  0.6315  0.0337  1.4656
   46DOPE  C310 5908   3.571   6.264  14.005  0.4826 -0.1827 -0.1529
   46DOPE  H10X 5909   3.657   6.240  14.069 -0.5475 -0.4510  1.1700
   46DOPE  C311 5910   3.439   6.297  14.072 -0.4272 -0.0455  0.2748
   46DOPE  H11X 5911   3.470   6.389  14.127  0.2743 -0.9060  1.3442
   46DOPE  H11Y 5912   3.365   6.321  13.992  1.5608  1.5307 -1.2115
   46DOPE  C312 5913   3.393   6.188  14.168 -0.4188 -0.0412 -0.4375
   46DOPE  H12X 5914   3.362   6.096  14.113 -1.8844 -0.4959  1.0633
   46DOPE  H12Y 5915   3.300   6.230  14.211  0.5155 -0.6574  2.4321
   46DOPE  C313 5916   3.482   6.166  14.293 -0.3330 -0.1030 -0.4893
   46DOPE  H13X 5917   3.570   6.100  14.276 -0.1606 -0.4210  1.4303
   46DOPE  H13Y 5918   3.522   6.264  14.327  0.0242 -0.6751  0.8144
   46DOPE  C314 5919   3.403   6.098  14.413 -0.6048 -0.5728 -0.1671
   46DOPE  H14X 5920   3.295   6.122  14.403 -0.0311  2.9197  0.5997
   46DOPE  H14Y 5921   3.434   6.152  14.505 -0.5521 -2.8240  1.2096
   46DOPE  C315 5922   3.422   5.948  14.414 -0.0918 -0.1691 -0.7625
   46DOPE  H15X 5923   3.529   5.920  14.411 -0.3716 -1.3525 -0.2918
   46DOPE  H15Y 5924   3.377   5.903  14.323 -1.5595 -0.6084  0.1425
   46DOPE  C316 5925   3.355   5.880  14.538 -0.2107  0.1834 -0.3339
   46DOPE  H16X 5926   3.355   5.769  14.533  0.6524  0.1719 -0.2446
   46DOPE  H16Y 5927   3.255   5.925  14.555 -2.2395 -3.9205 -0.0542
   46DOPE  C317 5928   3.442   5.923  14.662 -0.3310  0.2265  0.6730
   46DOPE  H17X 5929   3.549   5.899  14.644 -0.9988 -2.9503  0.4711
   46DOPE  H17Y 5930   3.437   6.034  14.666  0.6034  0.3565 -0.6954
   46DOPE  C318 5931   3.394   5.873  14.799  0.6166  1.0055 -0.0239
   46DOPE  H18X 5932   3.469   5.889  14.880 -2.3591 -1.7121  3.6792
   46DOPE  H18Y 5933   3.297   5.921  14.824 -1.0705 -1.1294 -2.0129
   46DOPE  H18Z 5934   3.376   5.764  14.813 -0.0419  0.9010 -1.4807
   47DOPE     N 5935   0.536   6.333  12.667 -0.0733 -0.4693 -0.0709
   47DOPE   HN1 5936   0.615   6.270  12.690  0.8553  0.6497 -0.1164
   47DOPE   HN2 5937   0.490   6.361  12.757 -0.6835  0.3478 -0.6261
   47DOPE   HN3 5938   0.464   6.289  12.605 -0.9941  0.5400  0.2379
   47DOPE   C12 5939   0.583   6.463  12.613 -0.9384 -0.3592 -0.2853
   47DOPE  H12A 5940   0.664   6.447  12.540 -1.2570 -2.0305 -0.2960
   47DOPE  H12B 5941   0.633   6.526  12.691  0.8628 -0.8024 -1.0407
   47DOPE   C11 5942   0.461   6.534  12.550 -0.3805  0.8156  0.9398
   47DOPE  H11A 5943   0.440   6.475  12.458 -2.7420 -0.0437  1.9393
   47DOPE  H11B 5944   0.482   6.639  12.523 -2.8489  0.4387 -3.3640
   47DOPE     P 5945   0.312   6.622  12.747 -0.4240  0.1696 -0.2681
   47DOPE   O13 5946   0.189   6.569  12.807  0.0695 -0.1692  0.2001
   47DOPE   O14 5947   0.324   6.761  12.700 -0.3455 -0.0040 -0.0338
   47DOPE   O11 5948   0.441   6.586  12.836  0.9373 -0.1092 -0.4479
   47DOPE   O12 5949   0.345   6.520  12.628 -0.1971 -0.6634  0.2533
   47DOPE    C1 5950   0.457   6.632  12.967  0.5103  0.4449 -0.4723
   47DOPE    HA 5951   0.371   6.604  13.031  0.5962  0.1283 -0.4949
   47DOPE    HB 5952   0.469   6.743  12.971  1.3512  0.3293  0.6960
   47DOPE    C2 5953   0.585   6.561  13.029  0.1291  0.4565 -0.2045
   47DOPE    HS 5954   0.656   6.569  12.943 -0.7074  2.7832 -0.7511
   47DOPE   O21 5955   0.552   6.425  13.060  0.0729 -0.4456 -0.0867
   47DOPE   C21 5956   0.666   6.352  13.059  0.7494 -0.7537 -0.1707
   47DOPE   O22 5957   0.780   6.390  13.036  0.2158  0.3049 -0.1428
   47DOPE   C22 5958   0.642   6.203  13.094 -0.4996 -0.4879  0.1446
   47DOPE   H2R 5959   0.745   6.166  13.114 -0.0847  0.1148 -0.8198
   47DOPE   H2S 5960   0.589   6.153  13.010 -0.0479 -1.2034  0.2675
   47DOPE    C3 5961   0.637   6.632  13.154 -0.3277 -0.3657  0.0563
   47DOPE    HX 5962   0.744   6.601  13.159 -0.6888 -1.7037 -0.1145
   47DOPE    HY 5963   0.586   6.595  13.245 -1.6865  1.8307  0.2579
   47DOPE   O31 5964   0.630   6.775  13.138 -0.6776  0.0077  0.0407
   47DOPE   C31 5965   0.710   6.841  13.232  1.0850 -0.3948  1.2399
   47DOPE   O32 5966   0.786   6.778  13.302 -0.5257  0.1299 -0.4338
   47DOPE   C32 5967   0.676   6.990  13.232  0.1819 -0.3565 -0.1748
   47DOPE   H2X 5968   0.726   7.033  13.143  1.6988 -0.4754  0.5876
   47DOPE   H2Y 5969   0.567   7.001  13.217  0.2791  0.0817 -0.5939
   47DOPE   C23 5970   0.556   6.183  13.227  0.6854  0.6548 -0.4966
   47DOPE   H3R 5971   0.565   6.080  13.267  1.4170  1.4183  1.4418
   47DOPE   H3S 5972   0.450   6.198  13.197  0.5797  1.8559  0.4163
   47DOPE   C24 5973   0.581   6.264  13.353 -1.2101 -0.1320  0.7203
   47DOPE   H4R 5974   0.576   6.371  13.322 -3.2954 -0.4468 -0.2000
   47DOPE   H4S 5975   0.678   6.238  13.400 -0.3472 -0.1814 -1.0092
   47DOPE   C25 5976   0.478   6.222  13.455  0.6392  0.2802 -0.6888
   47DOPE   H5R 5977   0.465   6.114  13.475 -1.9378  0.8683  1.2831
   47DOPE   H5S 5978   0.383   6.274  13.430  1.1719  1.6547  0.0515
   47DOPE   C26 5979   0.515   6.282  13.592 -0.0069  0.0727  0.0790
   47DOPE   H6R 5980   0.493   6.391  13.584 -1.4480 -0.2370 -0.6074
   47DOPE   H6S 5981   0.624   6.273  13.611  0.0358 -1.0268 -0.5948
   47DOPE   C27 5982   0.443   6.219  13.717  0.5224 -0.2422  1.4217
   47DOPE   H7R 5983   0.481   6.115  13.719  2.8882  0.5276 -0.0170
   47DOPE   H7S 5984   0.335   6.224  13.688  0.3597  1.9549  2.2714
   47DOPE   C28 5985   0.479   6.288  13.848  0.3473 -0.3943 -0.0998
   47DOPE   H8R 5986   0.586   6.287  13.879  0.2813  3.7541  0.8394
   47DOPE   H8S 5987   0.421   6.235  13.927  0.9103  0.0971  0.6627
   47DOPE   C29 5988   0.440   6.431  13.829 -0.2718  0.3499  0.2848
   47DOPE   H9R 5989   0.336   6.446  13.797  0.0144 -1.2747 -1.6374
   47DOPE  C210 5990   0.512   6.540  13.860  0.5554 -0.7515 -0.6865
   47DOPE  H10R 5991   0.481   6.638  13.821  1.8012 -0.3711 -0.7775
   47DOPE  C211 5992   0.654   6.535  13.910  0.4826 -0.1487  0.7883
   47DOPE  H11R 5993   0.666   6.454  13.986 -0.5424  0.2078  1.3440
   47DOPE  H11S 5994   0.682   6.635  13.951 -0.6334  1.1036 -1.3541
   47DOPE  C212 5995   0.752   6.510  13.787 -0.0871  0.1807  0.6707
   47DOPE  H12R 5996   0.739   6.407  13.749  1.3509  0.2264 -0.0279
   47DOPE  H12S 5997   0.851   6.525  13.837 -0.1997 -0.8264  1.2396
   47DOPE  C213 5998   0.743   6.607  13.663 -0.5972 -0.2918  0.4060
   47DOPE  H13R 5999   0.719   6.713  13.684  0.2126  0.1353 -0.7525
   47DOPE  H13S 6000   0.657   6.574  13.601  2.0253 -1.6468 -2.8090
   47DOPE  C214 6001   0.869   6.595  13.582  0.5194 -0.0294  0.7250
   47DOPE  H14R 6002   0.965   6.620  13.632  2.1451 -3.2334 -0.4693
   47DOPE  H14S 6003   0.861   6.661  13.493 -0.6885  0.6664  1.3422
   47DOPE  C215 6004   0.884   6.456  13.525 -0.5845  0.2335  0.8386
   47DOPE  H15R 6005   0.883   6.469  13.415 -1.0812  1.7814  1.0011
   47DOPE  H15S 6006   0.795   6.393  13.546 -0.6909 -0.2676 -0.9277
   47DOPE  C216 6007   1.015   6.393  13.568  0.3320 -0.6231  0.0627
   47DOPE  H16R 6008   1.026   6.404  13.678  3.2426 -0.8027 -0.1453
   47DOPE  H16S 6009   1.087   6.453  13.509 -0.9435  0.3907 -0.5230
   47DOPE  C217 6010   1.008   6.245  13.533 -0.2246  0.5123 -0.2746
   47DOPE  H17R 6011   1.026   6.243  13.424 -2.2237  1.7163 -0.6755
   47DOPE  H17S 6012   0.907   6.200  13.546  0.6076 -1.2356  0.4969
   47DOPE  C218 6013   1.098   6.156  13.623  0.4809 -0.0213  0.3384
   47DOPE  H18R 6014   1.092   6.177  13.732 -0.8240  0.1387  0.2575
   47DOPE  H18S 6015   1.204   6.166  13.594  0.4307  0.4404  0.3128
   47DOPE  H18T 6016   1.066   6.052  13.597 -0.3765  0.6593 -1.4658
   47DOPE   C33 6017   0.704   7.053  13.372 -0.2282  0.7567  0.1485
   47DOPE   H3X 6018   0.729   7.161  13.364 -0.5988  0.7910 -0.6778
   47DOPE   H3Y 6019   0.801   7.020  13.413 -0.3032  2.9012  2.2976
   47DOPE   C34 6020   0.583   7.028  13.467 -0.2009 -0.7091 -0.5531
   47DOPE   H4X 6021   0.496   7.071  13.413  0.5617  1.2580 -0.3206
   47DOPE   H4Y 6022   0.572   6.918  13.482 -0.7478 -0.4837  0.8016
   47DOPE   C35 6023   0.594   7.081  13.611 -0.5849  0.7780  0.3370
   47DOPE   H5X 6024   0.549   7.181  13.625 -0.3766  0.7524  1.2641
   47DOPE   H5Y 6025   0.703   7.093  13.629 -0.6445  0.0094  1.3187
   47DOPE   C36 6026   0.552   6.976  13.713 -0.6050  0.1865 -0.9540
   47DOPE   H6X 6027   0.620   6.888  13.721 -1.2870 -0.1512  2.8540
   47DOPE   H6Y 6028   0.453   6.936  13.681 -1.3030  1.2895 -0.2329
   47DOPE   C37 6029   0.522   7.046  13.847 -0.4585 -0.2985 -0.1295
   47DOPE   H7X 6030   0.619   7.089  13.879 -1.7304  2.7506  0.0184
   47DOPE   H7Y 6031   0.447   7.122  13.817  0.2310  0.1444 -0.7802
   47DOPE   C38 6032   0.448   6.945  13.942 -0.0528 -0.9398  0.4431
   47DOPE   H8X 6033   0.521   6.868  13.977 -0.3840 -1.6309 -0.3625
   47DOPE   H8Y 6034   0.366   6.895  13.885 -0.2084 -0.4574  0.2467
   47DOPE   C39 6035   0.391   7.025  14.060 -0.4136 -0.1297 -0.4078
   47DOPE   H9X 6036   0.329   7.110  14.028  1.3426  0.3934 -2.6525
   47DOPE  C310 6037   0.375   6.974  14.187  0.7554  0.1673 -0.3720
   47DOPE  H10X 6038   0.321   7.028  14.267 -2.7214  2.1052 -3.6697
   47DOPE  C311 6039   0.430   6.840  14.238  0.3885 -0.5362  0.0592
   47DOPE  H11X 6040   0.475   6.784  14.154  0.1345  1.5953 -1.5751
   47DOPE  H11Y 6041   0.512   6.862  14.310  0.4398 -0.8437  0.0948
   47DOPE  C312 6042   0.325   6.746  14.305  0.5782 -0.4891  1.0391
   47DOPE  H12X 6043   0.244   6.740  14.228  2.4707  0.3947 -1.1555
   47DOPE  H12Y 6044   0.288   6.774  14.406 -3.6440  3.0421 -1.1064
   47DOPE  C313 6045   0.376   6.604  14.299  0.4173 -0.4101 -0.3296
   47DOPE  H13X 6046   0.293   6.543  14.339  1.1301 -0.6531  0.8287
   47DOPE  H13Y 6047   0.403   6.567  14.198  0.8952 -0.9734 -0.0025
   47DOPE  C314 6048   0.502   6.591  14.385  0.7931 -0.0215  0.9017
   47DOPE  H14X 6049   0.466   6.630  14.483 -0.7910  0.4328  0.1854
   47DOPE  H14Y 6050   0.591   6.653  14.360 -0.5880  1.6829 -0.0631
   47DOPE  C315 6051   0.558   6.449  14.392 -0.3445  0.7571  0.4616
   47DOPE  H15X 6052   0.480   6.386  14.439  0.4147  0.6914  1.6704
   47DOPE  H15Y 6053   0.643   6.457  14.462  0.9652  0.0366 -0.9753
   47DOPE  C316 6054   0.616   6.392  14.266 -0.4504 -0.6618  0.1518
   47DOPE  H16X 6055   0.682   6.462  14.210 -1.0688  2.2411  2.7641
   47DOPE  H16Y 6056   0.533   6.355  14.203 -0.4587 -2.3210  1.0677
   47DOPE  C317 6057   0.708   6.277  14.286 -0.1968 -0.6651 -0.2600
   47DOPE  H17X 6058   0.811   6.315  14.301 -0.3699  0.4366 -1.6384
   47DOPE  H17Y 6059   0.685   6.222  14.380  0.3337 -2.6795 -1.2518
   47DOPE  C318 6060   0.721   6.174  14.167 -0.0389 -0.3899  0.6571
   47DOPE  H18X 6061   0.816   6.118  14.178  0.2934  0.3289  1.5610
   47DOPE  H18Y 6062   0.633   6.107  14.157 -0.6310  0.4095  0.3846
   47DOPE  H18Z 6063   0.719   6.222  14.067  0.9092  0.5526  1.0764
   48DOPE     N 6064   7.227   1.366  12.638 -1.0661  0.4221 -0.2137
   48DOPE   HN1 6065   7.198   1.273  12.675  0.6457  0.1911  0.6728
   48DOPE   HN2 6066   7.216   1.351  12.535  0.0192  0.5501 -0.3641
   48DOPE   HN3 6067   7.326   1.383  12.665 -0.8859  0.5418 -0.9302
   48DOPE   C12 6068   7.144   1.466  12.714 -0.2307  0.0882 -0.7118
   48DOPE  H12A 6069   7.209   1.553  12.735 -0.4806  0.5584 -1.8350
   48DOPE  H12B 6070   7.127   1.416  12.812  1.2887 -0.4100 -0.6860
   48DOPE   C11 6071   7.019   1.503  12.646  0.5403  0.2189  0.4122
   48DOPE  H11A 6072   6.956   1.412  12.642  0.1645  0.4642  0.7601
   48DOPE  H11B 6073   7.051   1.532  12.543  0.1920 -3.0381 -0.7207
   48DOPE     P 6074   6.797   1.634  12.700 -0.0204  0.6002 -0.3739
   48DOPE   O13 6075   6.764   1.617  12.561  0.0845  0.1744  0.4487
   48DOPE   O14 6076   6.762   1.764  12.759  0.0706 -0.2487 -0.4523
   48DOPE   O11 6077   6.740   1.510  12.777  0.5168 -0.3328  0.2114
   48DOPE   O12 6078   6.957   1.610  12.717  0.4766  0.1740  0.3344
   48DOPE    C1 6079   6.801   1.455  12.892 -0.5674  0.5002  0.0419
   48DOPE    HA 6080   6.909   1.479  12.893 -0.4831  0.1514 -0.3763
   48DOPE    HB 6081   6.814   1.345  12.879 -1.9744  0.5696 -2.6563
   48DOPE    C2 6082   6.733   1.483  13.022 -0.8419 -0.4497  0.0753
   48DOPE    HS 6083   6.629   1.448  13.002 -1.0076  0.4807 -0.7884
   48DOPE   O21 6084   6.749   1.624  13.059 -0.1215  0.4077 -0.0971
   48DOPE   C21 6085   6.633   1.661  13.121  0.7420  0.0534  0.2265
   48DOPE   O22 6086   6.530   1.603  13.131 -0.1476  0.2940 -0.4107
   48DOPE   C22 6087   6.655   1.805  13.167 -0.2189 -0.3439  0.1976
   48DOPE   H2R 6088   6.634   1.865  13.076 -1.3327 -0.4588  0.3594
   48DOPE   H2S 6089   6.763   1.808  13.191 -0.3345  1.9338  0.6290
   48DOPE    C3 6090   6.787   1.393  13.136  0.0576 -0.2519 -0.5074
   48DOPE    HX 6091   6.895   1.419  13.142  0.5415 -2.0668 -0.8344
   48DOPE    HY 6092   6.806   1.287  13.110 -0.2645 -0.7781  1.2972
   48DOPE   O31 6093   6.710   1.400  13.255  0.0770  0.3008 -0.2856
   48DOPE   C31 6094   6.618   1.306  13.278 -0.1039  0.1373  0.7162
   48DOPE   O32 6095   6.577   1.225  13.193 -0.5738 -0.2104  0.2196
   48DOPE   C32 6096   6.568   1.312  13.424 -0.5434 -0.7766 -0.4838
   48DOPE   H2X 6097   6.502   1.223  13.439 -0.5341 -0.6746  0.2182
   48DOPE   H2Y 6098   6.652   1.314  13.497 -0.4261  0.5327 -0.6321
   48DOPE   C23 6099   6.556   1.849  13.279  1.1533 -0.5536 -0.3000
   48DOPE   H3R 6100   6.451   1.825  13.253  0.3805  1.3852  0.8459
   48DOPE   H3S 6101   6.560   1.960  13.288 -1.1505 -0.4366 -0.2367
   48DOPE   C24 6102   6.581   1.793  13.427  0.2217  0.0467  0.2146
   48DOPE   H4R 6103   6.628   1.694  13.406  0.6367  0.7540 -2.7574
   48DOPE   H4S 6104   6.491   1.795  13.491  0.9748  0.9057  1.2648
   48DOPE   C25 6105   6.686   1.881  13.492 -0.3784  0.4084  0.3809
   48DOPE   H5R 6106   6.651   1.986  13.492 -1.3895  0.1363  2.8574
   48DOPE   H5S 6107   6.783   1.875  13.438 -0.6391 -0.5538 -0.0025
   48DOPE   C26 6108   6.733   1.852  13.636  0.0765 -0.6838 -0.8074
   48DOPE   H6R 6109   6.757   1.746  13.655 -0.6980 -0.3824  2.7101
   48DOPE   H6S 6110   6.648   1.867  13.707  0.0588 -0.8698 -0.7909
   48DOPE   C27 6111   6.854   1.936  13.677 -0.7123 -0.0764  0.1578
   48DOPE   H7R 6112   6.831   2.043  13.692 -1.8886 -0.2385 -0.3471
   48DOPE   H7S 6113   6.938   1.938  13.604 -0.8381  1.6073  0.0320
   48DOPE   C28 6114   6.918   1.872  13.802  0.1101  0.4802  0.2811
   48DOPE   H8R 6115   6.961   1.773  13.774 -2.4151 -0.7751  0.5113
   48DOPE   H8S 6116   6.834   1.856  13.874  0.0703  1.3293  0.4245
   48DOPE   C29 6117   7.030   1.955  13.852 -0.0666 -0.8494  0.1354
   48DOPE   H9R 6118   7.115   1.971  13.784  0.0012  0.8829  0.5895
   48DOPE  C210 6119   7.045   2.019  13.971  0.6598 -0.1894  0.6236
   48DOPE  H10R 6120   7.135   2.075  14.000 -0.0628  0.7972  1.0404
   48DOPE  C211 6121   6.937   2.042  14.072 -0.2836 -0.0316  0.0357
   48DOPE  H11R 6122   6.844   1.991  14.037 -0.9351  2.8856 -3.0349
   48DOPE  H11S 6123   6.915   2.151  14.072  0.9950  0.2613 -1.8180
   48DOPE  C212 6124   6.973   1.996  14.210  0.4669  0.3612  0.5332
   48DOPE  H12R 6125   7.075   2.029  14.238 -0.1870  1.6659  1.5122
   48DOPE  H12S 6126   6.966   1.885  14.210  0.2529  0.3592  1.6417
   48DOPE  C213 6127   6.878   2.051  14.320 -0.3179  0.7223  0.3499
   48DOPE  H13R 6128   6.771   2.033  14.296 -0.3734 -2.3042  2.3078
   48DOPE  H13S 6129   6.902   2.157  14.343 -1.6960  1.1074  0.0671
   48DOPE  C214 6130   6.888   1.959  14.445 -0.0280  0.0486  0.3473
   48DOPE  H14R 6131   6.843   1.860  14.423 -0.3231  0.7957 -2.9033
   48DOPE  H14S 6132   6.829   2.002  14.529  0.5332  0.7980  0.3710
   48DOPE  C215 6133   7.035   1.957  14.491 -0.0324  0.0043 -0.7338
   48DOPE  H15R 6134   7.075   2.057  14.514  2.0545 -1.0737  0.5971
   48DOPE  H15S 6135   7.101   1.910  14.414  3.3511 -1.2644  2.6486
   48DOPE  C216 6136   7.049   1.887  14.628  0.2234  0.3432  0.6036
   48DOPE  H16R 6137   6.985   1.797  14.638  2.1350 -1.2411 -0.5643
   48DOPE  H16S 6138   7.015   1.959  14.705 -2.7489  0.3589 -0.6121
   48DOPE  C217 6139   7.194   1.839  14.663 -0.5764  0.2557  0.4162
   48DOPE  H17R 6140   7.274   1.916  14.675  0.9661 -1.1047 -0.7286
   48DOPE  H17S 6141   7.219   1.759  14.591 -0.5742  1.1180 -0.5641
   48DOPE  C218 6142   7.194   1.767  14.803 -0.5239  0.4119  0.7752
   48DOPE  H18R 6143   7.123   1.681  14.803 -0.0841  0.0083 -1.2111
   48DOPE  H18S 6144   7.158   1.834  14.884 -1.7348 -0.2294  0.7879
   48DOPE  H18T 6145   7.300   1.736  14.815 -0.0832  1.2331 -0.7694
   48DOPE   C33 6146   6.473   1.431  13.445  0.2504  0.4783 -0.0279
   48DOPE   H3X 6147   6.373   1.404  13.405  0.7016  1.3362 -1.8605
   48DOPE   H3Y 6148   6.509   1.522  13.393 -1.1657  0.5394 -0.9524
   48DOPE   C34 6149   6.458   1.480  13.589  0.6443  0.7294 -0.4153
   48DOPE   H4X 6150   6.396   1.572  13.593 -1.9550 -0.9632  1.7351
   48DOPE   H4Y 6151   6.407   1.402  13.649  2.6615 -1.5849 -1.5622
   48DOPE   C35 6152   6.590   1.506  13.661  0.2574 -0.2963 -0.1062
   48DOPE   H5X 6153   6.657   1.575  13.605  0.4584 -0.3721  0.0399
   48DOPE   H5Y 6154   6.650   1.412  13.664 -0.3172 -0.6947 -0.8611
   48DOPE   C36 6155   6.570   1.548  13.805 -0.5333  0.5465  0.2880
   48DOPE   H6X 6156   6.501   1.472  13.846  0.7914  0.0568  1.7306
   48DOPE   H6Y 6157   6.535   1.654  13.809 -1.1291  0.3478  0.4135
   48DOPE   C37 6158   6.709   1.533  13.876  0.4368 -0.1471 -0.4586
   48DOPE   H7X 6159   6.742   1.428  13.862  0.7578 -0.0935 -0.1226
   48DOPE   H7Y 6160   6.785   1.592  13.822 -0.4267  0.6549 -0.8261
   48DOPE   C38 6161   6.707   1.580  14.020  0.5023  0.4838  1.0646
   48DOPE   H8X 6162   6.673   1.492  14.077 -0.1327 -1.0527 -1.5083
   48DOPE   H8Y 6163   6.624   1.654  14.022 -0.3684 -0.4747  0.8182
   48DOPE   C39 6164   6.835   1.633  14.075 -0.1887  0.0933 -0.3212
   48DOPE   H9X 6165   6.877   1.721  14.024  2.0752 -0.2719  0.7715
   48DOPE  C310 6166   6.912   1.580  14.172  0.2040  0.2504 -0.6108
   48DOPE  H10X 6167   7.006   1.630  14.199  0.3343 -0.4648  0.3012
   48DOPE  C311 6168   6.891   1.467  14.257 -0.2154  0.4884 -0.2484
   48DOPE  H11X 6169   6.795   1.423  14.222 -0.7934  1.2798  0.2940
   48DOPE  H11Y 6170   6.974   1.393  14.247  0.4379  1.2463 -0.5273
   48DOPE  C312 6171   6.880   1.488  14.411  0.1003  0.1580  0.4643
   48DOPE  H12X 6172   6.830   1.586  14.426 -1.5353 -0.7349  1.1853
   48DOPE  H12Y 6173   6.980   1.489  14.458  1.2378 -1.3856 -1.7870
   48DOPE  C313 6174   6.796   1.378  14.478 -0.3989  0.4751 -0.3954
   48DOPE  H13X 6175   6.697   1.375  14.429  0.3549 -0.1771 -1.9292
   48DOPE  H13Y 6176   6.842   1.277  14.467  0.2770  0.7771 -0.4237
   48DOPE  C314 6177   6.774   1.395  14.627  0.6854 -0.3830 -0.3921
   48DOPE  H14X 6178   6.685   1.333  14.651  0.8026  0.3103  2.0775
   48DOPE  H14Y 6179   6.743   1.491  14.672  2.8762 -0.5359  1.6346
   48DOPE  C315 6180   6.892   1.342  14.709  0.0142 -0.2958 -0.0191
   48DOPE  H15X 6181   6.986   1.386  14.669 -0.3338  0.1896 -0.3145
   48DOPE  H15Y 6182   6.905   1.233  14.692 -0.2983 -0.3080 -0.1870
   48DOPE  C316 6183   6.868   1.374  14.856 -0.3687 -0.0862 -0.1319
   48DOPE  H16X 6184   6.761   1.348  14.874 -0.2810 -0.1035  0.3651
   48DOPE  H16Y 6185   6.885   1.484  14.860 -1.3287  0.0544  0.4092
   48DOPE  C317 6186   6.968   1.307  14.944 -0.1623 -0.3226 -0.1048
   48DOPE  H17X 6187   6.952   1.338  15.049  0.1627  0.2203 -0.2099
   48DOPE  H17Y 6188   6.959   1.196  14.937 -1.0734 -0.3736  1.4191
   48DOPE  C318 6189   7.112   1.347  14.909 -0.3779  0.9747  0.1056
   48DOPE  H18X 6190   7.118   1.457  14.928 -1.0406  0.9775  0.3233
   48DOPE  H18Y 6191   7.185   1.299  14.977 -0.2263  1.0439 -0.0055
   48DOPE  H18Z 6192   7.145   1.319  14.806  0.6522 -1.4644  1.0221
   49DOPE     N 6193   0.586   7.089  12.640 -0.1466 -0.0282  0.2959
   49DOPE   HN1 6194   0.666   7.145  12.675  0.7114 -0.2975 -1.1401
   49DOPE   HN2 6195   0.597   7.067  12.538  0.4804  0.1321  0.3218
   49DOPE   HN3 6196   0.496   7.139  12.643 -0.0014  0.3519 -0.9407
   49DOPE   C12 6197   0.581   6.980  12.739 -0.3365  0.2151  0.3613
   49DOPE  H12A 6198   0.660   6.911  12.702 -0.0265  0.2120  1.0060
   49DOPE  H12B 6199   0.479   6.937  12.729 -0.9603  1.1177  2.2995
   49DOPE   C11 6200   0.613   7.013  12.887  0.4470 -0.0625  0.7636
   49DOPE  H11A 6201   0.622   6.914  12.937  1.7979 -0.4995 -0.2952
   49DOPE  H11B 6202   0.528   7.069  12.932  0.1374 -0.7417  1.0442
   49DOPE     P 6203   0.883   7.038  12.872  0.1628  0.0821 -0.0202
   49DOPE   O13 6204   0.934   7.114  12.753  0.0912  0.3958  0.0329
   49DOPE   O14 6205   0.892   6.888  12.874 -0.1248  0.2484  0.2450
   49DOPE   O11 6206   0.960   7.092  12.997 -0.6426 -0.2636  0.5320
   49DOPE   O12 6207   0.738   7.088  12.903 -0.2294  0.2821 -0.3712
   49DOPE    C1 6208   0.924   7.227  13.041 -0.5229  0.3053  0.0527
   49DOPE    HA 6209   0.825   7.234  13.092 -1.7885  1.1558 -2.3655
   49DOPE    HB 6210   0.917   7.301  12.959 -2.7284  0.8085  0.6302
   49DOPE    C2 6211   1.026   7.273  13.146 -0.2749  0.0546  0.0690
   49DOPE    HS 6212   1.126   7.267  13.098 -0.4894 -1.6687 -0.2322
   49DOPE   O21 6213   1.005   7.200  13.268  0.0945 -0.2517  0.3294
   49DOPE   C21 6214   1.125   7.194  13.334 -0.1336 -0.3033 -0.5733
   49DOPE   O22 6215   1.228   7.247  13.304 -0.1551  0.6139  0.4323
   49DOPE   C22 6216   1.098   7.130  13.473 -0.4302 -0.2778  0.9840
   49DOPE   H2R 6217   0.994   7.146  13.508 -0.2955  0.4610  1.0675
   49DOPE   H2S 6218   1.183   7.170  13.532  1.6050 -1.7895 -0.7564
   49DOPE    C3 6219   0.999   7.426  13.156  0.1585  0.3814 -0.4636
   49DOPE    HX 6220   1.029   7.459  13.054  1.5125 -2.1840 -0.9606
   49DOPE    HY 6221   1.065   7.467  13.236  1.3019 -1.7429 -0.2589
   49DOPE   O31 6222   0.859   7.461  13.178 -0.6805 -0.4615  0.3399
   49DOPE   C31 6223   0.817   7.488  13.303 -0.5832  0.0248  0.7317
   49DOPE   O32 6224   0.889   7.484  13.398 -0.3602 -0.3749  0.0971
   49DOPE   C32 6225   0.673   7.501  13.310 -0.1221 -0.4501  0.7332
   49DOPE   H2X 6226   0.640   7.570  13.230  1.9779 -0.2032  0.0141
   49DOPE   H2Y 6227   0.624   7.401  13.302 -1.0932  0.1182 -0.7187
   49DOPE   C23 6228   1.111   6.974  13.459 -0.2145 -0.0110 -0.4035
   49DOPE   H3R 6229   1.214   6.951  13.422  0.5864 -0.0466  1.7015
   49DOPE   H3S 6230   1.040   6.931  13.386  1.3928  0.6616 -2.4468
   49DOPE   C24 6231   1.105   6.897  13.594 -0.0928  0.2074  0.5619
   49DOPE   H4R 6232   1.187   6.938  13.656 -2.4231 -1.2378  5.1151
   49DOPE   H4S 6233   1.127   6.788  13.595 -0.9108  0.0353  0.7564
   49DOPE   C25 6234   0.971   6.921  13.667 -0.0256  0.1800 -0.1210
   49DOPE   H5R 6235   0.893   6.865  13.610  0.5601 -3.1126  2.0573
   49DOPE   H5S 6236   0.955   7.031  13.663 -0.4320  0.2302  1.9143
   49DOPE   C26 6237   0.974   6.880  13.814 -0.1469 -0.0810  0.1122
   49DOPE   H6R 6238   1.074   6.907  13.854 -0.4944  1.1250  0.2280
   49DOPE   H6S 6239   0.971   6.769  13.811  0.2026 -0.1025  0.5752
   49DOPE   C27 6240   0.850   6.925  13.892 -0.6711 -0.0715  0.5868
   49DOPE   H7R 6241   0.765   6.855  13.876 -0.8959  0.4598 -0.6248
   49DOPE   H7S 6242   0.826   7.027  13.855  1.2331  0.0921 -0.3155
   49DOPE   C28 6243   0.867   6.931  14.047 -0.3957  0.8850  0.1987
   49DOPE   H8R 6244   0.765   6.956  14.084 -0.9278 -0.3934 -0.3784
   49DOPE   H8S 6245   0.948   7.004  14.070  1.5065 -1.5499  1.7655
   49DOPE   C29 6246   0.908   6.803  14.110 -0.1396  0.0763 -0.2754
   49DOPE   H9R 6247   0.909   6.717  14.041  0.5575 -1.0786  1.1042
   49DOPE  C210 6248   0.962   6.784  14.230  0.0580  0.6703 -0.5896
   49DOPE  H10R 6249   0.989   6.679  14.242 -0.1985  0.6571 -0.0882
   49DOPE  C211 6250   0.981   6.890  14.336 -0.9053 -0.0904 -0.4814
   49DOPE  H11R 6251   0.991   6.987  14.282 -0.2890  1.1675  1.7640
   49DOPE  H11S 6252   1.084   6.886  14.378  0.5856  1.2290 -3.7060
   49DOPE  C212 6253   0.868   6.887  14.440  0.6801 -0.5117  0.2993
   49DOPE  H12R 6254   0.782   6.825  14.406 -1.0065  0.4184  2.6070
   49DOPE  H12S 6255   0.812   6.983  14.439 -1.2219 -1.5439 -1.6639
   49DOPE  C213 6256   0.897   6.837  14.583 -0.3085 -0.2998 -0.0328
   49DOPE  H13R 6257   0.937   6.734  14.596 -1.5166 -0.8472 -0.4677
   49DOPE  H13S 6258   0.794   6.835  14.625 -0.4496  0.9310 -0.3024
   49DOPE  C214 6259   0.994   6.932  14.660 -0.7383  0.3285 -0.0149
   49DOPE  H14R 6260   0.927   7.020  14.672 -0.4154  0.5161  0.4345
   49DOPE  H14S 6261   1.083   6.964  14.603 -0.1800  2.1699  1.7589
   49DOPE  C215 6262   1.042   6.884  14.800  0.8784 -0.2476  0.6684
   49DOPE  H15R 6263   1.091   6.784  14.793 -2.3430 -1.8721 -1.9124
   49DOPE  H15S 6264   0.958   6.862  14.869 -0.0708  1.9702  0.2950
   49DOPE  C216 6265   1.127   6.993  14.866 -0.0772  0.2047 -0.1497
   49DOPE  H16R 6266   1.126   6.979  14.976 -1.1284  0.4736 -0.1150
   49DOPE  H16S 6267   1.074   7.088  14.842 -1.7141 -0.1065  1.9268
   49DOPE  C217 6268   1.268   6.989  14.814  0.0875  0.4573 -0.0687
   49DOPE  H17R 6269   1.272   7.018  14.707  1.1931  2.1184  0.3871
   49DOPE  H17S 6270   1.301   6.884  14.829  0.0773  0.6256  1.2643
   49DOPE  C218 6271   1.359   7.081  14.885  0.2888  0.2647  0.4768
   49DOPE  H18R 6272   1.388   7.040  14.984  0.4266  1.4347  0.9360
   49DOPE  H18S 6273   1.310   7.179  14.905 -1.8254 -0.4493 -0.8818
   49DOPE  H18T 6274   1.444   7.107  14.819 -1.3704 -1.5008 -2.6149
   49DOPE   C33 6275   0.626   7.577  13.434  0.2208 -0.3124 -0.4066
   49DOPE   H3X 6276   0.645   7.686  13.421  0.7118 -0.2654  0.6305
   49DOPE   H3Y 6277   0.674   7.543  13.528  1.1458  3.0148  0.4644
   49DOPE   C34 6278   0.466   7.562  13.441 -0.1815 -0.5911 -0.1983
   49DOPE   H4X 6279   0.430   7.636  13.516  1.5533  0.8581 -0.7188
   49DOPE   H4Y 6280   0.430   7.588  13.339  1.5000  0.8731 -0.4725
   49DOPE   C35 6281   0.417   7.426  13.494 -0.1617  0.2595  0.3872
   49DOPE   H5X 6282   0.463   7.404  13.593  0.1988  1.2540  0.4515
   49DOPE   H5Y 6283   0.427   7.348  13.415  0.2889  2.5534 -1.9532
   49DOPE   C36 6284   0.266   7.414  13.534 -0.2200 -0.0828  0.5817
   49DOPE   H6X 6285   0.235   7.311  13.505  1.2388 -0.5029  0.4165
   49DOPE   H6Y 6286   0.203   7.480  13.471  1.0132 -0.5971 -1.2908
   49DOPE   C37 6287   0.238   7.443  13.677 -0.1506 -0.5307  0.1572
   49DOPE   H7X 6288   0.287   7.536  13.713  1.4546 -1.6134  0.8668
   49DOPE   H7Y 6289   0.129   7.467  13.678 -0.4160 -1.6810  0.1125
   49DOPE   C38 6290   0.269   7.333  13.773 -0.4977 -0.0202  0.0786
   49DOPE   H8X 6291   0.253   7.358  13.880 -0.1036 -0.6455  0.2880
   49DOPE   H8Y 6292   0.379   7.322  13.762 -0.8011 -1.7887 -1.8220
   49DOPE   C39 6293   0.186   7.211  13.734  0.1813 -0.3965 -0.2419
   49DOPE   H9X 6294   0.220   7.174  13.636 -1.1348  0.5744 -1.0883
   49DOPE  C310 6295   0.084   7.147  13.802 -0.1604  0.2503  0.3532
   49DOPE  H10X 6296   0.022   7.078  13.743 -0.3524  1.7478 -1.2451
   49DOPE  C311 6297   0.043   7.171  13.948 -0.0190 -0.4391  0.2532
   49DOPE  H11X 6298   0.119   7.232  14.002 -1.0009  0.3512  0.7543
   49DOPE  H11Y 6299  -0.053   7.226  13.942  0.5118  0.4435 -0.4915
   49DOPE  C312 6300   0.025   7.030  14.020 -0.0995 -0.5392 -0.1629
   49DOPE  H12X 6301   0.118   6.971  14.005  1.5772  1.9580 -0.2354
   49DOPE  H12Y 6302  -0.069   6.976  13.996 -1.0840  1.0651 -0.1186
   49DOPE  C313 6303   0.019   7.043  14.177  0.2491 -0.2659 -0.0833
   49DOPE  H13X 6304   0.037   6.940  14.216 -0.5115  0.8071  3.4841
   49DOPE  H13Y 6305   0.099   7.111  14.215 -1.2515 -0.2928  3.6040
   49DOPE  C314 6306  -0.115   7.091  14.239 -0.0028 -0.1370 -0.0785
   49DOPE  H14X 6307  -0.197   7.017  14.226 -0.6267  0.2183  1.5538
   49DOPE  H14Y 6308  -0.136   7.190  14.195 -1.9437  0.9955  3.0330
   49DOPE  C315 6309  -0.111   7.128  14.390  0.0766 -0.3061 -0.3433
   49DOPE  H15X 6310  -0.214   7.147  14.428 -0.1478  0.3752 -1.2505
   49DOPE  H15Y 6311  -0.052   7.221  14.406  0.2816 -0.8883  2.7891
   49DOPE  C316 6312  -0.042   7.026  14.484 -0.0611 -0.0728 -0.0421
   49DOPE  H16X 6313   0.038   6.985  14.420  0.9136 -0.0499  1.1430
   49DOPE  H16Y 6314  -0.111   6.941  14.501  0.8101 -0.3951  2.1894
   49DOPE  C317 6315   0.013   7.081  14.618  0.5045 -0.2209 -1.2003
   49DOPE  H17X 6316   0.059   6.996  14.673  0.3820  0.6616  0.3106
   49DOPE  H17Y 6317   0.097   7.152  14.599 -0.1809  1.2415  0.8629
   49DOPE  C318 6318  -0.101   7.139  14.695 -0.6613 -0.3198 -0.6526
   49DOPE  H18X 6319  -0.182   7.062  14.699 -0.3670 -0.6058 -0.0487
   49DOPE  H18Y 6320  -0.084   7.166  14.801  0.3481  1.0176 -1.1230
   49DOPE  H18Z 6321  -0.142   7.230  14.646  0.9339  0.5202 -0.4604
   50DOPE     N 6322   0.032   4.246  12.846  0.2221 -0.9366  0.9981
   50DOPE   HN1 6323   0.056   4.146  12.827  1.7487 -1.2797  4.1867
   50DOPE   HN2 6324  -0.071   4.256  12.853  0.2501  0.1554  0.0231
   50DOPE   HN3 6325   0.055   4.310  12.768  1.7822 -2.3033  0.2663
   50DOPE   C12 6326   0.096   4.291  12.975 -0.4061 -0.7261  0.6324
   50DOPE  H12A 6327   0.049   4.230  13.055  0.9915 -1.6886  0.7616
   50DOPE  H12B 6328   0.074   4.396  13.004  1.6763 -0.3774  1.1041
   50DOPE   C11 6329   0.254   4.269  12.960  0.0941  0.5353  0.5297
   50DOPE  H11A 6330   0.268   4.178  12.897  0.3770  0.9015  0.0630
   50DOPE  H11B 6331   0.301   4.244  13.057  1.0126 -2.4556 -0.5837
   50DOPE     P 6332   0.392   4.491  12.953  0.2386 -0.0989  0.3651
   50DOPE   O13 6333   0.295   4.603  12.977  0.0276  0.4273  0.0137
   50DOPE   O14 6334   0.516   4.516  12.876 -1.1133 -0.5075  0.6616
   50DOPE   O11 6335   0.434   4.429  13.091  0.3962 -0.4749  0.3333
   50DOPE   O12 6336   0.310   4.380  12.887 -0.2977  0.1300  0.0287
   50DOPE    C1 6337   0.571   4.388  13.117 -0.0743 -0.7093  0.0289
   50DOPE    HA 6338   0.589   4.373  13.226  2.4944  0.4440 -0.1669
   50DOPE    HB 6339   0.639   4.471  13.087  1.2566 -1.2143  1.5293
   50DOPE    C2 6340   0.614   4.253  13.045 -0.4974 -0.2482 -0.0391
   50DOPE    HS 6341   0.604   4.272  12.936  1.0202 -1.2970 -0.3989
   50DOPE   O21 6342   0.538   4.133  13.093 -0.0887 -0.8371 -0.3425
   50DOPE   C21 6343   0.552   4.031  13.016  0.1218  0.3183  1.1428
   50DOPE   O22 6344   0.605   4.036  12.901 -0.0931  0.4029 -0.5855
   50DOPE   C22 6345   0.479   3.906  13.065  0.4665 -0.4728  0.1655
   50DOPE   H2R 6346   0.526   3.815  13.022 -0.0388 -0.5597 -0.2063
   50DOPE   H2S 6347   0.375   3.917  13.028  0.4442 -1.1692  0.0165
   50DOPE    C3 6348   0.771   4.235  13.060 -0.2950 -0.7191  0.2258
   50DOPE    HX 6349   0.823   4.324  13.018 -0.7524  0.3877  1.9214
   50DOPE    HY 6350   0.804   4.162  12.983  0.4195  1.5037 -1.7157
   50DOPE   O31 6351   0.800   4.196  13.195 -0.3859  0.2127  0.1143
   50DOPE   C31 6352   0.861   4.290  13.266 -0.5673  0.3819 -0.2146
   50DOPE   O32 6353   0.896   4.399  13.224  0.3323  0.1475  0.4036
   50DOPE   C32 6354   0.875   4.246  13.407  0.6664 -0.2741 -0.1858
   50DOPE   H2X 6355   0.781   4.197  13.439 -0.7915  2.8065  0.7016
   50DOPE   H2Y 6356   0.957   4.171  13.410 -2.1903 -3.9225 -3.3952
   50DOPE   C23 6357   0.466   3.900  13.220  0.6773  0.2529 -0.0471
   50DOPE   H3R 6358   0.419   3.801  13.237 -0.1857  0.7465  0.5118
   50DOPE   H3S 6359   0.393   3.977  13.255  0.8568  0.5503 -0.3205
   50DOPE   C24 6360   0.602   3.901  13.286 -0.5855  0.8701 -0.4388
   50DOPE   H4R 6361   0.578   3.922  13.393  0.2047 -1.1808  0.1959
   50DOPE   H4S 6362   0.670   3.980  13.249  1.5343  0.2187  1.7951
   50DOPE   C25 6363   0.681   3.762  13.264  0.2723 -0.4254 -0.0612
   50DOPE   H5R 6364   0.706   3.746  13.157  0.7822 -2.0492  0.2854
   50DOPE   H5S 6365   0.617   3.677  13.296 -0.4873  1.1678  3.1548
   50DOPE   C26 6366   0.816   3.757  13.337  0.5106  0.5681  1.2739
   50DOPE   H6R 6367   0.863   3.662  13.303  1.0222  1.0419  0.6233
   50DOPE   H6S 6368   0.803   3.736  13.445 -0.6533  2.0270  1.4491
   50DOPE   C27 6369   0.917   3.871  13.303 -0.1683  0.0416  0.1682
   50DOPE   H7R 6370   0.879   3.963  13.354 -0.4836  0.2338 -0.4079
   50DOPE   H7S 6371   0.913   3.889  13.194 -1.6583  1.4966  0.4250
   50DOPE   C28 6372   1.058   3.853  13.347  0.6663  0.2943 -0.4069
   50DOPE   H8R 6373   1.061   3.831  13.456 -2.0038  1.8312  0.0544
   50DOPE   H8S 6374   1.115   3.947  13.337  2.6102 -0.6960  0.7095
   50DOPE   C29 6375   1.123   3.729  13.284 -0.2360 -0.9437 -0.4905
   50DOPE   H9R 6376   1.051   3.650  13.257 -3.9562  1.8963  0.2812
   50DOPE  C210 6377   1.250   3.727  13.249  0.6799 -0.2173  0.0386
   50DOPE  H10R 6378   1.291   3.633  13.208 -0.2078 -0.3737 -0.5280
   50DOPE  C211 6379   1.342   3.846  13.268  0.2751  0.5798  0.3480
   50DOPE  H11R 6380   1.286   3.937  13.235  2.6667  1.4411 -1.6421
   50DOPE  H11S 6381   1.420   3.831  13.191 -1.9021 -1.1222 -1.6771
   50DOPE  C212 6382   1.409   3.867  13.402 -0.8132 -0.6247  0.5562
   50DOPE  H12R 6383   1.497   3.932  13.381 -1.2118  0.4532  2.0626
   50DOPE  H12S 6384   1.454   3.773  13.441 -0.7354 -0.5671  0.6059
   50DOPE  C213 6385   1.337   3.949  13.503 -0.4185 -0.3986  0.3309
   50DOPE  H13R 6386   1.243   3.899  13.534 -1.5130  2.9845  3.1504
   50DOPE  H13S 6387   1.315   4.045  13.451 -0.6194 -1.1147 -0.9584
   50DOPE  C214 6388   1.413   3.995  13.631 -0.2811  0.3269 -0.0064
   50DOPE  H14R 6389   1.517   4.015  13.597 -0.2003  0.0340  0.0710
   50DOPE  H14S 6390   1.424   3.915  13.706  0.2985  0.4749  0.0697
   50DOPE  C215 6391   1.344   4.119  13.689 -0.4401  0.4772 -0.2725
   50DOPE  H15R 6392   1.264   4.082  13.757 -0.1559  0.4637  0.0575
   50DOPE  H15S 6393   1.302   4.168  13.599 -0.6207  0.6980 -0.0667
   50DOPE  C216 6394   1.425   4.216  13.771  0.6540  0.4716 -0.2010
   50DOPE  H16R 6395   1.507   4.251  13.704  0.3112  0.1559 -0.7961
   50DOPE  H16S 6396   1.458   4.173  13.867 -2.5869 -0.5397  0.5859
   50DOPE  C217 6397   1.341   4.337  13.820  0.0637 -0.0708  0.5642
   50DOPE  H17R 6398   1.259   4.298  13.885 -0.0919 -0.4795  0.1256
   50DOPE  H17S 6399   1.289   4.380  13.732  1.0254  0.0500  0.0472
   50DOPE  C218 6400   1.416   4.437  13.907 -0.1566  0.3232 -0.0526
   50DOPE  H18R 6401   1.462   4.391  13.998 -2.4785 -0.3654  0.8384
   50DOPE  H18S 6402   1.348   4.517  13.942  0.9170  1.3680 -0.2934
   50DOPE  H18T 6403   1.501   4.490  13.859 -0.9144  1.2630 -0.3729
   50DOPE   C33 6404   0.889   4.357  13.508 -0.2185 -0.4518 -0.0905
   50DOPE   H3X 6405   0.800   4.420  13.530  0.9372  0.4111  2.4912
   50DOPE   H3Y 6406   0.983   4.410  13.482  1.1002 -2.4465  0.4004
   50DOPE   C34 6407   0.908   4.308  13.654 -0.6235  0.4117  0.1371
   50DOPE   H4X 6408   0.846   4.216  13.667  0.9508 -1.2666 -3.0130
   50DOPE   H4Y 6409   1.013   4.278  13.672 -0.6407 -0.1415 -0.6433
   50DOPE   C35 6410   0.873   4.413  13.755 -0.1818 -0.4162  0.1929
   50DOPE   H5X 6411   0.769   4.449  13.737  0.0119 -0.6611 -1.5522
   50DOPE   H5Y 6412   0.946   4.497  13.755  0.3784 -0.8355  2.3352
   50DOPE   C36 6413   0.862   4.366  13.905 -0.1456  0.0722 -0.0842
   50DOPE   H6X 6414   0.955   4.320  13.945  0.6842 -0.4813 -2.4900
   50DOPE   H6Y 6415   0.778   4.294  13.917 -0.0188 -0.0341  0.1675
   50DOPE   C37 6416   0.826   4.488  14.000  0.5872  0.1657  0.3229
   50DOPE   H7X 6417   0.846   4.461  14.106  2.8971 -1.0474 -0.3250
   50DOPE   H7Y 6418   0.893   4.573  13.977 -0.6406  0.7295 -1.3508
   50DOPE   C38 6419   0.683   4.542  13.996  0.2382 -0.5243 -0.5842
   50DOPE   H8X 6420   0.638   4.559  13.896  0.5211 -1.5294 -0.8927
   50DOPE   H8Y 6421   0.684   4.640  14.047 -0.3416 -0.1327 -1.3098
   50DOPE   C39 6422   0.599   4.450  14.077  0.2532  0.2250 -0.1365
   50DOPE   H9X 6423   0.646   4.393  14.158  2.0696  1.0217 -0.5734
   50DOPE  C310 6424   0.471   4.413  14.044  0.2460 -0.2081 -0.0518
   50DOPE  H10X 6425   0.427   4.340  14.113  1.4107 -0.8303  0.0564
   50DOPE  C311 6426   0.382   4.444  13.924 -0.1180 -0.0209 -0.1177
   50DOPE  H11X 6427   0.439   4.487  13.839  2.8890  0.2360  1.9001
   50DOPE  H11Y 6428   0.333   4.354  13.880  1.4049 -2.7381  3.3032
   50DOPE  C312 6429   0.266   4.545  13.961  0.4865  0.0481  0.2620
   50DOPE  H12X 6430   0.308   4.636  14.009  0.6646 -1.2806  2.7853
   50DOPE  H12Y 6431   0.199   4.495  14.034  0.4522 -0.9273 -0.4183
   50DOPE  C313 6432   0.170   4.583  13.843 -0.9257  0.5114  0.8439
   50DOPE  H13X 6433   0.228   4.623  13.758 -3.0584  0.6593 -0.6130
   50DOPE  H13Y 6434   0.141   4.482  13.808  0.5987  0.8877 -1.8004
   50DOPE  C314 6435   0.064   4.675  13.886  0.1311 -0.0250 -0.1375
   50DOPE  H14X 6436   0.115   4.763  13.928  2.3430 -0.6529 -1.3707
   50DOPE  H14Y 6437  -0.015   4.636  13.954  0.6388  2.0275  1.7423
   50DOPE  C315 6438  -0.016   4.723  13.759  0.1618  0.5080  0.7527
   50DOPE  H15X 6439  -0.042   4.635  13.696  0.1699 -0.0408  1.5038
   50DOPE  H15Y 6440   0.044   4.785  13.690 -1.4679  1.3067 -0.0090
   50DOPE  C316 6441  -0.140   4.805  13.809 -0.4289 -0.1883  0.4413
   50DOPE  H16X 6442  -0.106   4.846  13.906 -1.3976 -0.7658  1.0387
   50DOPE  H16Y 6443  -0.222   4.738  13.841 -0.7806  0.7453  1.5741
   50DOPE  C317 6444  -0.197   4.900  13.697  0.1112 -0.0093  0.2958
   50DOPE  H17X 6445  -0.264   4.978  13.741  1.2571  0.6743  0.8885
   50DOPE  H17Y 6446  -0.122   4.967  13.649 -1.2669  0.4043 -1.4025
   50DOPE  C318 6447  -0.273   4.830  13.585 -0.5892  0.2333 -0.0027
   50DOPE  H18X 6448  -0.201   4.769  13.527 -1.7658  0.4269 -1.7418
   50DOPE  H18Y 6449  -0.347   4.766  13.638 -1.7973  2.3773  1.0513
   50DOPE  H18Z 6450  -0.322   4.906  13.522  1.3294  0.5350 -1.2109
   51DOPE     N 6451   3.049   0.101  12.835 -0.4427 -0.4132  0.0341
   51DOPE   HN1 6452   3.004   0.075  12.925 -0.7230 -2.5324 -0.6799
   51DOPE   HN2 6453   2.998   0.181  12.793  1.9047  0.5512 -1.2188
   51DOPE   HN3 6454   3.060   0.017  12.776  2.9476  0.1819 -0.3983
   51DOPE   C12 6455   3.181   0.157  12.874  0.2644 -0.0442  0.3032
   51DOPE  H12A 6456   3.173   0.228  12.959  1.6697  1.3876 -0.6990
   51DOPE  H12B 6457   3.220   0.220  12.791 -1.1442  0.2296 -0.1851
   51DOPE   C11 6458   3.275   0.045  12.895 -0.1357 -0.0941 -0.0713
   51DOPE  H11A 6459   3.251  -0.001  12.993  4.1239 -2.2712  0.1958
   51DOPE  H11B 6460   3.380   0.083  12.891 -1.0587  2.8178  0.8125
   51DOPE     P 6461   3.234  -0.212  12.826  0.1156 -0.1096 -0.2497
   51DOPE   O13 6462   3.320  -0.300  12.746 -0.2705 -0.2057 -0.7685
   51DOPE   O14 6463   3.089  -0.206  12.802  0.2451 -0.0742  0.2151
   51DOPE   O11 6464   3.272  -0.233  12.977  0.2266 -0.1047  0.0258
   51DOPE   O12 6465   3.284  -0.059  12.802 -0.8419  0.1380  0.1180
   51DOPE    C1 6466   3.177  -0.233  13.092 -0.4349 -0.0621 -0.4314
   51DOPE    HA 6467   3.081  -0.180  13.073 -1.1168 -0.3971  1.7102
   51DOPE    HB 6468   3.216  -0.173  13.177 -0.1606 -0.5073 -0.2431
   51DOPE    C2 6469   3.164  -0.377  13.163  0.1021  0.2011 -0.1002
   51DOPE    HS 6470   3.101  -0.374  13.255 -0.4196 -1.0534 -0.3820
   51DOPE   O21 6471   3.295  -0.432  13.192 -0.1095 -0.4246 -0.0221
   51DOPE   C21 6472   3.361  -0.367  13.295 -0.1594 -0.2883  0.2927
   51DOPE   O22 6473   3.313  -0.279  13.362 -0.2612 -0.7176  0.3145
   51DOPE   C22 6474   3.506  -0.427  13.309  0.4001 -0.3656  1.1245
   51DOPE   H2R 6475   3.564  -0.381  13.226 -2.0823 -0.8248 -1.0200
   51DOPE   H2S 6476   3.494  -0.537  13.302 -2.3760 -0.1852  1.9121
   51DOPE    C3 6477   3.100  -0.476  13.065  0.5652 -0.0908 -0.1973
   51DOPE    HX 6478   3.186  -0.511  13.006  0.8454 -1.1810  0.8223
   51DOPE    HY 6479   3.025  -0.432  12.995 -0.0527 -0.6766  0.0817
   51DOPE   O31 6480   3.038  -0.588  13.129  0.1761 -0.8072  0.1645
   51DOPE   C31 6481   2.917  -0.576  13.174 -0.3902  0.4653  0.3986
   51DOPE   O32 6482   2.862  -0.470  13.192 -0.2918 -0.0396 -0.1216
   51DOPE   C32 6483   2.862  -0.715  13.207 -0.0030 -0.1403 -0.2976
   51DOPE   H2X 6484   2.841  -0.755  13.106 -2.1243  2.1096 -0.8584
   51DOPE   H2Y 6485   2.952  -0.762  13.252  1.4104  2.4865 -0.2111
   51DOPE   C23 6486   3.582  -0.384  13.441 -0.5820  0.4465  0.4275
   51DOPE   H3R 6487   3.523  -0.398  13.534 -2.0734 -3.2328 -0.8670
   51DOPE   H3S 6488   3.598  -0.277  13.419  0.7357 -0.2062 -2.1689
   51DOPE   C24 6489   3.720  -0.443  13.442  0.0503  0.0080  0.5803
   51DOPE   H4R 6490   3.782  -0.387  13.515  0.5569  1.6421 -1.0441
   51DOPE   H4S 6491   3.764  -0.433  13.341  0.6256  1.7388  0.9778
   51DOPE   C25 6492   3.729  -0.593  13.471 -0.4798 -0.0808  0.3934
   51DOPE   H5R 6493   3.830  -0.622  13.436 -1.6755 -1.9171 -1.8058
   51DOPE   H5S 6494   3.658  -0.649  13.406 -0.1942  0.2244 -0.1811
   51DOPE   C26 6495   3.707  -0.635  13.613  0.5604  0.0286  0.2880
   51DOPE   H6R 6496   3.598  -0.641  13.632  0.0137  0.2408 -2.3590
   51DOPE   H6S 6497   3.755  -0.555  13.673  0.2461 -0.2966  0.9880
   51DOPE   C27 6498   3.776  -0.765  13.662 -0.2792  0.2083  0.0904
   51DOPE   H7R 6499   3.886  -0.749  13.667 -0.3634  1.5191 -1.5453
   51DOPE   H7S 6500   3.745  -0.843  13.590 -2.6635 -0.3695  1.6350
   51DOPE   C28 6501   3.737  -0.823  13.803 -0.6901 -0.3780 -0.0828
   51DOPE   H8R 6502   3.627  -0.837  13.802 -0.7193 -0.1287 -0.4804
   51DOPE   H8S 6503   3.771  -0.748  13.877  1.0001 -1.3436  0.1772
   51DOPE   C29 6504   3.810  -0.957  13.824 -0.1903 -0.1378  0.1364
   51DOPE   H9R 6505   3.890  -0.984  13.753 -0.3589  3.5575 -1.6994
   51DOPE  C210 6506   3.765  -1.041  13.918  0.2102 -0.0406  0.7845
   51DOPE  H10R 6507   3.813  -1.140  13.921  0.6911  0.1287 -0.6216
   51DOPE  C211 6508   3.651  -1.024  14.013  0.1015  0.7455  0.5937
   51DOPE  H11R 6509   3.587  -1.114  14.011  0.3052  0.5094 -3.1035
   51DOPE  H11S 6510   3.583  -0.939  13.991  1.3096  0.9216 -3.1677
   51DOPE  C212 6511   3.726  -0.992  14.146 -0.1894 -0.6304 -0.1581
   51DOPE  H12R 6512   3.819  -1.050  14.160  1.7352  1.8609 -1.8836
   51DOPE  H12S 6513   3.655  -1.013  14.229  0.8884 -0.1268  0.9207
   51DOPE  C213 6514   3.767  -0.844  14.154 -0.3005  0.4625  0.4529
   51DOPE  H13R 6515   3.683  -0.779  14.121 -1.5341 -2.2717 -2.2975
   51DOPE  H13S 6516   3.851  -0.821  14.085 -0.4147 -0.1840  0.0885
   51DOPE  C214 6517   3.801  -0.804  14.294  0.1143 -0.5684 -0.4100
   51DOPE  H14R 6518   3.711  -0.817  14.359 -0.3666 -0.7865 -1.1129
   51DOPE  H14S 6519   3.832  -0.698  14.302  1.5940 -0.7390 -2.8353
   51DOPE  C215 6520   3.931  -0.863  14.352 -0.2414 -0.6189  0.2049
   51DOPE  H15R 6521   4.011  -0.840  14.278  1.3767 -0.4704  1.9341
   51DOPE  H15S 6522   3.922  -0.974  14.359  0.2196 -0.6967 -0.4191
   51DOPE  C216 6523   3.977  -0.817  14.489 -0.7147  0.0668 -0.1399
   51DOPE  H16R 6524   4.004  -0.710  14.478  0.1402 -0.1545 -0.2848
   51DOPE  H16S 6525   4.064  -0.872  14.530 -0.1468  0.6247 -0.5609
   51DOPE  C217 6526   3.870  -0.833  14.597  0.5817 -0.1354 -0.2240
   51DOPE  H17R 6527   3.786  -0.762  14.581 -0.2950 -1.5646 -2.2394
   51DOPE  H17S 6528   3.920  -0.793  14.689  2.0815 -0.6943 -0.7558
   51DOPE  C218 6529   3.826  -0.976  14.625 -0.4962  0.2113  0.3025
   51DOPE  H18R 6530   3.788  -1.020  14.530 -0.1806  1.0284 -0.2121
   51DOPE  H18S 6531   3.736  -0.984  14.689 -0.6665 -0.5986 -0.0311
   51DOPE  H18T 6532   3.904  -1.035  14.677  0.1861  0.9461  0.1326
   51DOPE   C33 6533   2.742  -0.707  13.306  0.2035  0.0292 -0.1257
   51DOPE   H3X 6534   2.701  -0.809  13.317 -1.5789  0.8473  1.5594
   51DOPE   H3Y 6535   2.663  -0.639  13.267  1.1988  1.8763  0.9158
   51DOPE   C34 6536   2.784  -0.666  13.450  0.0814  0.1674  0.5672
   51DOPE   H4X 6537   2.863  -0.734  13.491  1.9231  1.8598 -0.0078
   51DOPE   H4Y 6538   2.831  -0.567  13.434  2.7110 -1.0340  0.3105
   51DOPE   C35 6539   2.663  -0.653  13.541 -0.4262  0.4328  0.5016
   51DOPE   H5X 6540   2.606  -0.748  13.531  0.0623  0.3373 -1.6946
   51DOPE   H5Y 6541   2.603  -0.567  13.507  0.1588 -0.1070 -2.1102
   51DOPE   C36 6542   2.708  -0.628  13.685 -0.1715  0.1589 -0.4904
   51DOPE   H6X 6543   2.785  -0.707  13.700 -0.7016 -0.8804 -2.7813
   51DOPE   H6Y 6544   2.625  -0.642  13.758  0.0657 -0.2862 -0.3010
   51DOPE   C37 6545   2.758  -0.483  13.699 -0.3470  0.4087 -0.1977
   51DOPE   H7X 6546   2.861  -0.468  13.659  0.0104  1.0593  0.9130
   51DOPE   H7Y 6547   2.703  -0.409  13.637 -2.0552 -1.3980 -0.9281
   51DOPE   C38 6548   2.776  -0.432  13.844  0.4630  0.1919 -0.0409
   51DOPE   H8X 6549   2.677  -0.434  13.894  0.9895  1.2124  1.0980
   51DOPE   H8Y 6550   2.791  -0.322  13.851  0.5957  0.0983  1.6728
   51DOPE   C39 6551   2.880  -0.521  13.912 -0.2902 -0.4555 -0.3582
   51DOPE   H9X 6552   2.914  -0.613  13.864 -0.9946 -1.9129  1.7616
   51DOPE  C310 6553   2.907  -0.507  14.045  0.1449  0.2740 -0.4777
   51DOPE  H10X 6554   2.987  -0.571  14.083  1.1977  0.6632 -1.9450
   51DOPE  C311 6555   2.847  -0.405  14.136 -0.5078  0.0244 -0.0792
   51DOPE  H11X 6556   2.915  -0.324  14.171 -0.5634 -0.6983  1.8360
   51DOPE  H11Y 6557   2.761  -0.354  14.087  0.1929  2.2752  0.8973
   51DOPE  C312 6558   2.777  -0.458  14.267  0.3988 -0.0374  0.1426
   51DOPE  H12X 6559   2.727  -0.555  14.247  2.4892 -1.4059  1.2461
   51DOPE  H12Y 6560   2.695  -0.387  14.292 -0.6198 -0.7865 -0.9428
   51DOPE  C313 6561   2.874  -0.461  14.388  0.1388  0.0843 -0.5454
   51DOPE  H13X 6562   2.974  -0.486  14.346 -0.4072 -2.2713 -0.5817
   51DOPE  H13Y 6563   2.887  -0.364  14.441 -0.5471 -0.6945  1.1308
   51DOPE  C314 6564   2.852  -0.573  14.497  1.2665 -0.0360  0.0593
   51DOPE  H14X 6565   2.847  -0.667  14.438 -2.9605 -0.4234  0.7110
   51DOPE  H14Y 6566   2.749  -0.566  14.538  1.3962 -1.3983  0.6859
   51DOPE  C315 6567   2.954  -0.564  14.612 -0.5848 -0.1665 -0.7219
   51DOPE  H15X 6568   2.940  -0.462  14.655  0.7149  0.5996 -1.9985
   51DOPE  H15Y 6569   3.058  -0.566  14.574  0.2250 -0.8166  1.3862
   51DOPE  C316 6570   2.941  -0.665  14.723  0.6412  0.2169  0.3492
   51DOPE  H16X 6571   2.834  -0.693  14.732  0.3184  0.7958 -1.3782
   51DOPE  H16Y 6572   2.975  -0.638  14.825  1.1577 -1.3434  0.6224
   51DOPE  C317 6573   3.038  -0.780  14.684  0.0358 -0.6207  0.0178
   51DOPE  H17X 6574   3.001  -0.814  14.585  1.6638  0.0057 -0.8637
   51DOPE  H17Y 6575   3.138  -0.732  14.675 -0.4105  0.4323  0.5011
   51DOPE  C318 6576   3.038  -0.902  14.778  0.2253  0.7523  0.2816
   51DOPE  H18X 6577   3.108  -0.981  14.740 -0.3341  0.5079 -0.2556
   51DOPE  H18Y 6578   3.089  -0.879  14.874  2.1470 -4.3909  0.8437
   51DOPE  H18Z 6579   2.932  -0.933  14.787 -0.6892  3.6890  0.5315
   52DOPE     N 6580   6.819   4.983  12.705  0.0298  0.4242  1.0026
   52DOPE   HN1 6581   6.861   4.973  12.799  0.4223 -1.4863  0.6606
   52DOPE   HN2 6582   6.732   4.927  12.709  0.5056 -0.3010  1.3232
   52DOPE   HN3 6583   6.876   4.937  12.631  1.6474  0.8852  1.9137
   52DOPE   C12 6584   6.808   5.126  12.662  0.2810 -0.8737 -0.8534
   52DOPE  H12A 6585   6.740   5.171  12.737  1.8081  0.3963 -0.1834
   52DOPE  H12B 6586   6.755   5.125  12.564 -2.2537 -2.0192  0.4353
   52DOPE   C11 6587   6.939   5.195  12.684  0.5322  0.5438  0.4036
   52DOPE  H11A 6588   6.912   5.300  12.663 -1.6696  0.1241  0.9221
   52DOPE  H11B 6589   7.015   5.155  12.613 -1.1005  0.7590 -1.5347
   52DOPE     P 6590   7.033   5.279  12.917 -0.2427 -0.2247  0.1179
   52DOPE   O13 6591   6.926   5.368  12.966  0.1033  0.1303  0.0573
   52DOPE   O14 6592   7.158   5.339  12.862  0.6968  0.7929  0.0630
   52DOPE   O11 6593   7.075   5.193  13.037 -0.2064 -0.4447 -0.8652
   52DOPE   O12 6594   6.979   5.175  12.815  1.2296 -0.5568 -0.5937
   52DOPE    C1 6595   6.993   5.097  13.101  0.5466  0.8624  0.1964
   52DOPE    HA 6596   7.027   4.992  13.093 -0.5434  0.4654  0.5850
   52DOPE    HB 6597   6.889   5.087  13.064  0.7256  2.7461 -0.9565
   52DOPE    C2 6598   6.980   5.113  13.251 -0.0191  0.8568 -0.5383
   52DOPE    HS 6599   6.916   5.203  13.263 -0.3210  0.4905  0.6676
   52DOPE   O21 6600   7.114   5.114  13.311 -0.5688 -0.2766 -0.4481
   52DOPE   C21 6601   7.155   5.235  13.325  0.2047  0.3604  0.0240
   52DOPE   O22 6602   7.089   5.340  13.312 -0.2449 -0.3191  0.8498
   52DOPE   C22 6603   7.296   5.234  13.377  0.0365 -0.0361  0.1904
   52DOPE   H2R 6604   7.360   5.265  13.292 -0.9202  1.0851 -0.1375
   52DOPE   H2S 6605   7.327   5.130  13.403  1.4651 -0.0405 -1.3854
   52DOPE    C3 6606   6.901   4.990  13.304  0.0538  0.5747 -0.5831
   52DOPE    HX 6607   6.951   4.897  13.269  0.0829 -0.0110  0.9478
   52DOPE    HY 6608   6.798   4.989  13.262 -1.7317 -0.9005  3.3929
   52DOPE   O31 6609   6.893   4.995  13.452  0.1170 -0.2149  0.0121
   52DOPE   C31 6610   6.979   4.923  13.521 -0.0637 -0.7919  0.6397
   52DOPE   O32 6611   7.047   4.827  13.482  0.8123 -0.0152  0.1706
   52DOPE   C32 6612   6.972   4.980  13.664 -0.5133  0.0533 -0.5006
   52DOPE   H2X 6613   6.973   5.090  13.658  2.3072  0.3312  2.6985
   52DOPE   H2Y 6614   6.871   4.945  13.695  0.3198 -1.6048  0.4922
   52DOPE   C23 6615   7.313   5.337  13.494  0.1985 -0.1488 -0.4079
   52DOPE   H3R 6616   7.235   5.319  13.571  0.2776  1.6676  0.1616
   52DOPE   H3S 6617   7.295   5.443  13.466 -1.0488 -0.3529 -0.4076
   52DOPE   C24 6618   7.455   5.325  13.553 -0.3427  0.0872 -0.1617
   52DOPE   H4R 6619   7.528   5.329  13.469  0.3474  0.6827  0.4497
   52DOPE   H4S 6620   7.456   5.228  13.606 -2.1807  0.1977  0.1605
   52DOPE   C25 6621   7.502   5.434  13.649  0.5861  0.2834  0.1228
   52DOPE   H5R 6622   7.463   5.408  13.749  1.1591 -1.5322 -0.0946
   52DOPE   H5S 6623   7.462   5.529  13.606  0.2571  1.3086  2.5230
   52DOPE   C26 6624   7.649   5.445  13.665 -0.9809 -0.3845 -0.3322
   52DOPE   H6R 6625   7.705   5.432  13.570  0.0332  0.5256  0.1233
   52DOPE   H6S 6626   7.695   5.361  13.721 -0.9139 -0.9184 -1.1667
   52DOPE   C27 6627   7.702   5.581  13.714 -0.0393 -0.0628 -0.2361
   52DOPE   H7R 6628   7.657   5.659  13.649  0.7157  2.9792  2.6137
   52DOPE   H7S 6629   7.811   5.591  13.692  0.2188  0.2558  1.1317
   52DOPE   C28 6630   7.675   5.601  13.867  0.0148 -0.9704  0.2045
   52DOPE   H8R 6631   7.739   5.532  13.927  1.1624  1.7790  2.3845
   52DOPE   H8S 6632   7.571   5.567  13.887 -1.5145  1.0206 -3.5206
   52DOPE   C29 6633   7.689   5.742  13.913  0.4665  0.2919 -0.0879
   52DOPE   H9R 6634   7.597   5.791  13.949  1.3033  0.2860  2.2122
   52DOPE  C210 6635   7.806   5.808  13.920 -0.6547 -0.3570  0.6365
   52DOPE  H10R 6636   7.814   5.917  13.932  1.5210 -0.3656 -0.2601
   52DOPE  C211 6637   7.944   5.755  13.879  0.3161 -0.0019 -0.1539
   52DOPE  H11R 6638   7.972   5.778  13.774  1.6299 -0.7023  0.0212
   52DOPE  H11S 6639   7.939   5.644  13.883 -0.9370  0.0311 -0.3499
   52DOPE  C212 6640   8.049   5.813  13.979  0.0423  0.3031  0.5023
   52DOPE  H12R 6641   8.021   5.803  14.087  0.0234 -1.5111  0.3660
   52DOPE  H12S 6642   8.046   5.922  13.961 -0.1377  0.0191 -1.3120
   52DOPE  C213 6643   8.189   5.760  13.954  0.0200 -0.6220  0.4610
   52DOPE  H13R 6644   8.220   5.792  13.853  1.5586  1.4296  1.5110
   52DOPE  H13S 6645   8.182   5.649  13.965  0.3766 -0.7462 -0.4702
   52DOPE  C214 6646   8.291   5.813  14.056 -0.1913 -0.3192  0.0668
   52DOPE  H14R 6647   8.281   5.757  14.151  1.0002  2.3299  1.8721
   52DOPE  H14S 6648   8.279   5.920  14.082 -0.3980 -0.2576 -0.2798
   52DOPE  C215 6649   8.440   5.792  14.007 -0.2729 -0.6147  0.6021
   52DOPE  H15R 6650   8.463   5.693  13.963 -1.5450  0.0179 -1.6906
   52DOPE  H15S 6651   8.503   5.789  14.098  0.9603 -0.5325 -0.2363
   52DOPE  C216 6652   8.472   5.904  13.908  0.6821 -0.1344 -0.3460
   52DOPE  H16R 6653   8.468   5.999  13.966 -1.2181  0.1757 -0.9121
   52DOPE  H16S 6654   8.400   5.915  13.824  0.6391 -0.8024 -0.3982
   52DOPE  C217 6655   8.617   5.886  13.846 -0.0615 -0.7838  0.7442
   52DOPE  H17R 6656   8.610   5.959  13.763 -0.6875  0.2047  1.6374
   52DOPE  H17S 6657   8.626   5.790  13.792  1.7866 -2.7863  4.2813
   52DOPE  C218 6658   8.741   5.917  13.926  0.4043 -0.5122 -0.6105
   52DOPE  H18R 6659   8.739   5.858  14.021  1.2798  1.6350  0.8332
   52DOPE  H18S 6660   8.842   5.900  13.884  1.6851  0.9890  1.5907
   52DOPE  H18T 6661   8.745   6.025  13.955  0.2335 -0.5520 -0.4376
   52DOPE   C33 6662   7.073   4.905  13.756 -0.2686  0.0225 -0.2288
   52DOPE   H3X 6663   7.175   4.949  13.745  0.1873 -0.7304  0.8185
   52DOPE   H3Y 6664   7.086   4.796  13.739  0.3862  0.1665 -0.6986
   52DOPE   C34 6665   7.035   4.947  13.899 -0.2626  0.2820 -0.2296
   52DOPE   H4X 6666   7.033   5.058  13.898 -1.2857  0.2822  0.1440
   52DOPE   H4Y 6667   6.933   4.914  13.926 -0.7124  1.4501 -0.4228
   52DOPE   C35 6668   7.137   4.912  14.003 -0.4727  0.2529 -0.4928
   52DOPE   H5X 6669   7.239   4.946  13.975  0.1936  0.2045  1.6798
   52DOPE   H5Y 6670   7.143   4.801  14.007  0.2889  0.3038 -0.1328
   52DOPE   C36 6671   7.115   4.955  14.147 -0.2192  0.2392 -0.3772
   52DOPE   H6X 6672   7.141   5.063  14.148 -0.7984  0.3833 -0.8725
   52DOPE   H6Y 6673   7.191   4.910  14.215  0.9206  0.3499 -1.5484
   52DOPE   C37 6674   6.970   4.929  14.206 -0.2042 -0.0020  0.4361
   52DOPE   H7X 6675   6.904   5.014  14.178  1.3345  1.4120  0.9586
   52DOPE   H7Y 6676   6.934   4.831  14.168  0.9501  0.0114 -0.7412
   52DOPE   C38 6677   6.971   4.946  14.361 -0.5124 -0.4872 -0.2418
   52DOPE   H8X 6678   7.034   5.036  14.379  2.4708 -1.6872 -3.3403
   52DOPE   H8Y 6679   7.031   4.865  14.408 -3.2006 -1.0951  2.3975
   52DOPE   C39 6680   6.845   4.931  14.438  0.1913 -0.5348 -0.0243
   52DOPE   H9X 6681   6.789   4.840  14.414  2.4173 -2.9577  3.0895
   52DOPE  C310 6682   6.817   4.993  14.557  0.1891  0.4972  0.3653
   52DOPE  H10X 6683   6.718   4.967  14.597  0.6942  0.8559  1.9246
   52DOPE  C311 6684   6.877   5.119  14.600 -0.9877  0.1882  0.3707
   52DOPE  H11X 6685   6.980   5.108  14.639 -0.5391 -0.1173 -0.8393
   52DOPE  H11Y 6686   6.904   5.185  14.515  2.9431  0.5039  1.6898
   52DOPE  C312 6687   6.788   5.189  14.699 -0.6017 -0.4426  0.2302
   52DOPE  H12X 6688   6.762   5.127  14.787  0.8148 -1.0293  0.2615
   52DOPE  H12Y 6689   6.686   5.207  14.657  0.2367  0.3653 -1.5995
   52DOPE  C313 6690   6.849   5.323  14.746 -0.0859  0.0571  0.2904
   52DOPE  H13X 6691   6.956   5.310  14.774  0.4723  0.0672 -1.7111
   52DOPE  H13Y 6692   6.848   5.405  14.671  1.2518  0.4840  0.7150
   52DOPE  C314 6693   6.785   5.380  14.878  0.0329 -0.6354 -0.4894
   52DOPE  H14X 6694   6.766   5.303  14.955 -0.4337  0.6673  0.7570
   52DOPE  H14Y 6695   6.680   5.407  14.851 -0.6270 -0.3685  2.1210
   52DOPE  C315 6696   6.869   5.495  14.942  0.1906  0.2399  0.5010
   52DOPE  H15X 6697   6.894   5.569  14.863  1.4731 -0.6332  0.0529
   52DOPE  H15Y 6698   6.967   5.457  14.976  0.1994 -0.2324 -0.0415
   52DOPE  C316 6699   6.803   5.556  15.067 -0.2623 -0.0854  0.9893
   52DOPE  H16X 6700   6.777   5.487  15.150 -0.0020  1.5533  2.4956
   52DOPE  H16Y 6701   6.702   5.592  15.039 -0.2367 -0.0571  0.9317
   52DOPE  C317 6702   6.891   5.662  15.123 -0.6913 -0.0386 -0.2248
   52DOPE  H17X 6703   6.986   5.618  15.161 -2.1551 -3.0026  0.2594
   52DOPE  H17Y 6704   6.925   5.736  15.048  1.9462  0.0921  0.9786
   52DOPE  C318 6705   6.825   5.742  15.241 -0.4862  0.9768 -0.1026
   52DOPE  H18X 6706   6.740   5.809  15.216  0.0729  1.5118 -0.6014
   52DOPE  H18Y 6707   6.788   5.664  15.311 -0.2582 -0.5781 -1.6350
   52DOPE  H18Z 6708   6.901   5.796  15.301  0.7292 -1.1865  0.4264
   53DOPE     N 6709   5.806   7.010  12.731  0.1571 -0.1424  0.4285
   53DOPE   HN1 6710   5.803   7.081  12.655 -1.6261 -1.3757 -0.7112
   53DOPE   HN2 6711   5.893   7.021  12.787  0.6620 -5.4975  1.1826
   53DOPE   HN3 6712   5.808   6.910  12.704 -0.6142 -0.3665  1.1503
   53DOPE   C12 6713   5.697   7.035  12.832  0.4852  0.2755  0.6481
   53DOPE  H12A 6714   5.722   7.127  12.890  0.0652  1.5027 -1.0358
   53DOPE  H12B 6715   5.695   6.945  12.897 -0.4594  0.3467  0.7392
   53DOPE   C11 6716   5.550   7.035  12.765 -0.0156 -0.2256  0.1692
   53DOPE  H11A 6717   5.483   7.031  12.854 -1.7140 -1.7475 -1.0836
   53DOPE  H11B 6718   5.528   6.946  12.702 -1.8168  0.4342 -0.1952
   53DOPE     P 6719   5.420   7.250  12.687  0.1361 -0.2182  0.2501
   53DOPE   O13 6720   5.293   7.186  12.663  0.0909  0.1002 -0.1651
   53DOPE   O14 6721   5.451   7.371  12.600 -0.5559  0.0975  0.1407
   53DOPE   O11 6722   5.423   7.291  12.839  0.2989 -0.1360 -0.1840
   53DOPE   O12 6723   5.536   7.149  12.679 -0.2918  0.0884  0.0593
   53DOPE    C1 6724   5.533   7.365  12.891 -0.8273  0.2247 -0.0595
   53DOPE    HA 6725   5.538   7.459  12.832  2.1094  2.0154  2.7472
   53DOPE    HB 6726   5.631   7.317  12.874 -0.6550  0.7455 -0.5708
   53DOPE    C2 6727   5.515   7.411  13.048  0.0445  0.2115  0.0424
   53DOPE    HS 6728   5.618   7.406  13.089 -0.8021 -1.3742  2.1227
   53DOPE   O21 6729   5.427   7.316  13.111  0.0489 -0.0432 -0.1936
   53DOPE   C21 6730   5.480   7.193  13.124 -0.8621  0.0835 -1.1089
   53DOPE   O22 6731   5.587   7.152  13.089  0.3250 -0.6321  0.0596
   53DOPE   C22 6732   5.371   7.102  13.186  0.1398 -0.2053 -0.0708
   53DOPE   H2R 6733   5.390   7.004  13.136  1.4292  0.1519 -0.3225
   53DOPE   H2S 6734   5.275   7.139  13.143  0.3430  0.6740  0.2208
   53DOPE    C3 6735   5.462   7.554  13.056 -0.2923 -0.1869  0.4374
   53DOPE    HX 6736   5.366   7.559  13.001  0.8839 -2.3968 -2.0419
   53DOPE    HY 6737   5.538   7.619  13.006 -0.6680 -0.1055 -0.0272
   53DOPE   O31 6738   5.464   7.583  13.194  0.3383  0.0488  0.2180
   53DOPE   C31 6739   5.343   7.581  13.250  0.2154  0.1703  0.6979
   53DOPE   O32 6740   5.241   7.547  13.189  0.0898 -0.2675 -0.2535
   53DOPE   C32 6741   5.342   7.636  13.390  0.2128 -0.7389  0.2373
   53DOPE   H2X 6742   5.441   7.644  13.439 -0.8011  0.5823  2.2006
   53DOPE   H2Y 6743   5.305   7.740  13.385  0.6932 -0.6161 -1.1917
   53DOPE   C23 6744   5.352   7.079  13.339  0.5406 -0.5248 -0.3408
   53DOPE   H3R 6745   5.283   6.992  13.352 -3.2163  1.9269 -2.1373
   53DOPE   H3S 6746   5.314   7.169  13.391 -1.3191 -1.3851 -0.1268
   53DOPE   C24 6747   5.490   7.038  13.396 -0.1664  0.1085 -0.2747
   53DOPE   H4R 6748   5.561   7.122  13.375  1.4589 -0.1588  3.4041
   53DOPE   H4S 6749   5.519   6.943  13.345 -2.1924 -0.5806 -0.2126
   53DOPE   C25 6750   5.496   7.017  13.553 -0.1008 -0.2523  0.5769
   53DOPE   H5R 6751   5.414   6.952  13.588 -0.3146  1.3352  3.3362
   53DOPE   H5S 6752   5.473   7.111  13.608 -0.2556  0.2992 -0.4178
   53DOPE   C26 6753   5.631   6.951  13.587  0.4968  0.3783 -0.1154
   53DOPE   H6R 6754   5.704   6.988  13.512  0.8520 -0.1773 -0.0486
   53DOPE   H6S 6755   5.611   6.842  13.575  0.0941  0.5347 -0.9233
   53DOPE   C27 6756   5.669   6.971  13.734 -0.3778 -0.1301 -0.0071
   53DOPE   H7R 6757   5.584   6.933  13.795 -1.1070  0.0352 -0.9037
   53DOPE   H7S 6758   5.682   7.081  13.743  2.4166 -0.4820  1.2582
   53DOPE   C28 6759   5.795   6.892  13.775  0.0781  0.9335 -0.2139
   53DOPE   H8R 6760   5.862   6.899  13.687  1.2359 -1.9465  0.3078
   53DOPE   H8S 6761   5.772   6.785  13.795  0.1162  1.1324  0.9447
   53DOPE   C29 6762   5.853   6.937  13.908  0.3315  0.0586 -0.5831
   53DOPE   H9R 6763   5.812   6.892  13.999 -3.9779  1.8039 -1.4361
   53DOPE  C210 6764   5.950   7.032  13.921  1.1350  0.8455 -0.3604
   53DOPE  H10R 6765   5.978   7.064  14.023  1.7788  3.1717 -1.2136
   53DOPE  C211 6766   6.020   7.101  13.811  0.5359 -0.0660 -0.2949
   53DOPE  H11R 6767   5.958   7.191  13.790  1.0456  0.4755  0.4681
   53DOPE  H11S 6768   6.009   7.046  13.715  1.1552  1.1794 -1.1100
   53DOPE  C212 6769   6.170   7.140  13.823 -0.1322  0.4196  0.1379
   53DOPE  H12R 6770   6.225   7.061  13.879  1.9456  0.8676 -1.1443
   53DOPE  H12S 6771   6.183   7.235  13.879  3.6586 -0.6876  1.4375
   53DOPE  C213 6772   6.244   7.176  13.685  0.1139 -0.3210  0.1563
   53DOPE  H13R 6773   6.348   7.212  13.699 -0.2976  0.7718  0.4848
   53DOPE  H13S 6774   6.187   7.259  13.639  2.1810 -0.9219 -4.0931
   53DOPE  C214 6775   6.263   7.059  13.581 -0.3599 -0.5129 -0.6194
   53DOPE  H14R 6776   6.339   7.081  13.502 -1.4588  1.0691 -1.2840
   53DOPE  H14S 6777   6.171   7.051  13.519 -1.5521  0.6377  0.9073
   53DOPE  C215 6778   6.289   6.922  13.644  0.1325 -0.2734 -0.2856
   53DOPE  H15R 6779   6.280   6.848  13.561 -1.9722  0.5298 -0.8355
   53DOPE  H15S 6780   6.205   6.894  13.711  0.9377 -1.2980  0.3185
   53DOPE  C216 6781   6.430   6.919  13.693  0.4308  0.6491 -0.3487
   53DOPE  H16R 6782   6.439   6.980  13.785 -0.5235  1.3728 -0.7224
   53DOPE  H16S 6783   6.490   6.969  13.614 -0.2520  0.3806 -1.0470
   53DOPE  C217 6784   6.468   6.782  13.734 -0.3296  0.2766 -0.3828
   53DOPE  H17R 6785   6.576   6.791  13.763 -0.1249  1.0688 -1.3393
   53DOPE  H17S 6786   6.462   6.720  13.643 -0.5347 -0.6722  0.2629
   53DOPE  C218 6787   6.393   6.723  13.853 -0.0111  0.1569 -1.1436
   53DOPE  H18R 6788   6.382   6.801  13.931 -4.3130  0.6161 -1.9935
   53DOPE  H18S 6789   6.461   6.644  13.892  1.8000  1.3523 -1.7525
   53DOPE  H18T 6790   6.292   6.686  13.825 -0.4441 -0.0389  0.6061
   53DOPE   C33 6791   5.247   7.571  13.493  0.0089  0.4384  0.3221
   53DOPE   H3X 6792   5.150   7.537  13.452  0.5996 -2.0735  0.8619
   53DOPE   H3Y 6793   5.221   7.646  13.571 -1.3246  0.6205 -0.2748
   53DOPE   C34 6794   5.316   7.451  13.548 -0.0178 -0.3694 -0.0306
   53DOPE   H4X 6795   5.326   7.366  13.477 -1.1735 -0.4787 -0.0744
   53DOPE   H4Y 6796   5.422   7.479  13.565 -0.6927  1.2668  1.8171
   53DOPE   C35 6797   5.245   7.405  13.678  0.1543 -0.5385  0.6457
   53DOPE   H5X 6798   5.135   7.413  13.664  0.4707  0.7735 -1.5425
   53DOPE   H5Y 6799   5.275   7.472  13.761 -0.0968  0.4728 -0.0670
   53DOPE   C36 6800   5.300   7.272  13.731  0.5021 -0.0806  0.3229
   53DOPE   H6X 6801   5.409   7.280  13.711 -0.0368 -0.2375 -3.4737
   53DOPE   H6Y 6802   5.258   7.185  13.676  2.0288 -1.1847  0.8672
   53DOPE   C37 6803   5.274   7.242  13.878 -0.1190  0.0468  0.6645
   53DOPE   H7X 6804   5.330   7.318  13.937  3.0091 -0.8417 -0.9333
   53DOPE   H7Y 6805   5.166   7.228  13.899 -0.8618  0.5775 -2.3640
   53DOPE   C38 6806   5.342   7.107  13.912  0.5235  0.0023 -0.0294
   53DOPE   H8X 6807   5.443   7.100  13.867  1.1532  2.1287  0.9254
   53DOPE   H8Y 6808   5.282   7.029  13.860  0.5041  0.7045 -1.0947
   53DOPE   C39 6809   5.347   7.091  14.065  0.0797  0.1601  0.4683
   53DOPE   H9X 6810   5.249   7.086  14.114  0.2227 -3.2311  0.6343
   53DOPE  C310 6811   5.451   7.085  14.150  0.2518 -0.1799  0.6002
   53DOPE  H10X 6812   5.430   7.045  14.250 -1.6908  0.3514  0.4596
   53DOPE  C311 6813   5.590   7.094  14.105  0.0372  0.5824 -0.3397
   53DOPE  H11X 6814   5.638   6.995  14.087 -0.3839  0.8426 -3.5494
   53DOPE  H11Y 6815   5.608   7.148  14.010  1.9090  1.5720  0.5271
   53DOPE  C312 6816   5.673   7.154  14.216  0.3606  0.1893 -0.5145
   53DOPE  H12X 6817   5.648   7.262  14.215 -1.4351 -0.1752  0.8164
   53DOPE  H12Y 6818   5.782   7.148  14.192  0.5071  2.5185 -0.6251
   53DOPE  C313 6819   5.657   7.111  14.360 -0.6042 -0.5315  0.2083
   53DOPE  H13X 6820   5.729   7.170  14.421  3.7700 -1.7848 -3.2299
   53DOPE  H13Y 6821   5.555   7.123  14.404 -0.3006 -1.2997  1.1429
   53DOPE  C314 6822   5.677   6.960  14.375  0.6677 -0.1161  0.7227
   53DOPE  H14X 6823   5.765   6.928  14.316  1.3864  0.4631  1.4465
   53DOPE  H14Y 6824   5.597   6.907  14.319  0.7010 -0.5563  1.0921
   53DOPE  C315 6825   5.693   6.928  14.528  0.2885  0.6168  0.6351
   53DOPE  H15X 6826   5.597   6.957  14.576  1.2655 -0.9869  3.8045
   53DOPE  H15Y 6827   5.774   6.996  14.562 -0.6234  2.3327 -0.4528
   53DOPE  C316 6828   5.724   6.783  14.566 -0.6183  0.3613  0.2971
   53DOPE  H16X 6829   5.787   6.722  14.497 -0.2518  1.5921 -0.4788
   53DOPE  H16Y 6830   5.630   6.724  14.570  1.0482 -2.5717 -0.0418
   53DOPE  C317 6831   5.788   6.763  14.705  0.0668  0.4714  0.3985
   53DOPE  H17X 6832   5.780   6.657  14.738 -0.2654  0.6584  0.9221
   53DOPE  H17Y 6833   5.896   6.791  14.703  0.1705  0.1668  1.5285
   53DOPE  C318 6834   5.727   6.850  14.811  0.4278  0.3735  0.3180
   53DOPE  H18X 6835   5.720   6.955  14.776  0.6597  0.4717  0.5682
   53DOPE  H18Y 6836   5.620   6.821  14.820 -0.0362  2.4479  2.3802
   53DOPE  H18Z 6837   5.784   6.853  14.906  3.8964 -0.1409 -1.5667
   54DOPE     N 6838   0.160   3.341  12.635  0.1241  1.0089 -0.3780
   54DOPE   HN1 6839   0.257   3.330  12.669  0.2058  3.4202  0.3191
   54DOPE   HN2 6840   0.155   3.279  12.551  3.8277  1.6432 -1.2604
   54DOPE   HN3 6841   0.157   3.436  12.592 -5.1852  0.6014 -1.5796
   54DOPE   C12 6842   0.060   3.322  12.744 -0.6788 -0.7018 -0.1010
   54DOPE  H12A 6843   0.058   3.212  12.760 -0.5869 -0.8158 -0.8185
   54DOPE  H12B 6844  -0.040   3.358  12.713 -0.3865  0.8121  0.6254
   54DOPE   C11 6845   0.098   3.396  12.876 -0.0346 -0.0268  0.2288
   54DOPE  H11A 6846   0.191   3.358  12.923  1.0317  1.7409 -0.3722
   54DOPE  H11B 6847   0.020   3.378  12.953  1.6119  0.7665  2.1828
   54DOPE     P 6848   0.047   3.652  12.920  0.2139  0.1561  0.5053
   54DOPE   O13 6849  -0.099   3.658  12.882 -0.2124  0.0708 -0.4392
   54DOPE   O14 6850   0.125   3.773  12.906  0.3634 -0.2394  0.5890
   54DOPE   O11 6851   0.064   3.610  13.078  0.4818  0.3243  0.0598
   54DOPE   O12 6852   0.118   3.537  12.846  0.0010  0.2090  0.0619
   54DOPE    C1 6853  -0.050   3.548  13.145  0.2884 -0.4781  0.3606
   54DOPE    HA 6854  -0.095   3.475  13.075  0.9436  0.7024 -1.3585
   54DOPE    HB 6855  -0.119   3.630  13.174 -0.1118 -0.9191  0.6620
   54DOPE    C2 6856  -0.018   3.496  13.288 -0.0595  0.1391  0.3335
   54DOPE    HS 6857  -0.111   3.502  13.347 -0.9622 -1.3405 -0.8531
   54DOPE   O21 6858   0.085   3.572  13.344 -0.0657  0.0970  0.5742
   54DOPE   C21 6859   0.044   3.681  13.398  0.0286 -0.1048 -0.6615
   54DOPE   O22 6860  -0.072   3.721  13.413  0.1210  0.6524  0.1993
   54DOPE   C22 6861   0.162   3.763  13.457 -1.2012  0.0528 -0.1730
   54DOPE   H2R 6862   0.122   3.858  13.498  0.4602  1.0584 -0.7806
   54DOPE   H2S 6863   0.220   3.788  13.366 -0.5111  0.2170  0.3086
   54DOPE    C3 6864   0.031   3.354  13.278  0.3108  0.0389 -0.1299
   54DOPE    HX 6865   0.132   3.359  13.233  0.2527  0.7509 -0.1912
   54DOPE    HY 6866  -0.044   3.304  13.213 -0.1240  1.4920 -0.7930
   54DOPE   O31 6867   0.027   3.287  13.413  0.0811  0.1719 -0.1812
   54DOPE   C31 6868   0.121   3.188  13.420  0.0280 -0.1195  0.2286
   54DOPE   O32 6869   0.200   3.156  13.331 -0.1724  0.6196  0.2434
   54DOPE   C32 6870   0.111   3.138  13.564 -0.7235 -0.4231  0.4229
   54DOPE   H2X 6871   0.102   3.228  13.630 -0.8447  0.7104 -1.0718
   54DOPE   H2Y 6872   0.017   3.080  13.555 -1.0216 -0.0325  0.9484
   54DOPE   C23 6873   0.245   3.682  13.557  0.8171 -0.0949  0.4473
   54DOPE   H3R 6874   0.250   3.578  13.518 -2.1808 -0.3589  0.5584
   54DOPE   H3S 6875   0.195   3.685  13.656  0.2078 -0.3778  0.1536
   54DOPE   C24 6876   0.387   3.719  13.579  0.2715 -0.3931 -0.6575
   54DOPE   H4R 6877   0.380   3.824  13.614  2.7026 -1.0572  2.2031
   54DOPE   H4S 6878   0.442   3.720  13.482 -0.6608 -1.3382 -1.2036
   54DOPE   C25 6879   0.466   3.626  13.666 -0.0389 -0.6370  0.0632
   54DOPE   H5R 6880   0.482   3.523  13.627  1.3885 -2.1709  4.1816
   54DOPE   H5S 6881   0.421   3.607  13.766  0.4030  0.2928  0.4469
   54DOPE   C26 6882   0.594   3.700  13.706  0.7153  0.4378 -0.0121
   54DOPE   H6R 6883   0.566   3.774  13.784 -3.9531 -1.1754  0.1345
   54DOPE   H6S 6884   0.634   3.755  13.618 -1.3214  1.4881 -0.3291
   54DOPE   C27 6885   0.702   3.594  13.754  0.5038 -0.8743  0.2296
   54DOPE   H7R 6886   0.733   3.538  13.664 -0.7210 -0.6951 -0.3243
   54DOPE   H7S 6887   0.652   3.528  13.828  0.9366  1.5479  2.8797
   54DOPE   C28 6888   0.817   3.665  13.828  0.2380 -0.0804 -0.3640
   54DOPE   H8R 6889   0.894   3.591  13.860 -0.9499 -0.6660  1.2679
   54DOPE   H8S 6890   0.775   3.708  13.921  0.8323  2.1307 -1.0503
   54DOPE   C29 6891   0.889   3.766  13.743 -0.1090  0.1551  0.0458
   54DOPE   H9R 6892   0.923   3.731  13.645  0.7062 -2.0526  1.0511
   54DOPE  C210 6893   0.916   3.895  13.771  0.1357 -0.2146 -0.3469
   54DOPE  H10R 6894   0.966   3.958  13.695 -1.4621  2.4139  0.6224
   54DOPE  C211 6895   0.889   3.967  13.897  0.1753 -0.5333 -0.0600
   54DOPE  H11R 6896   0.837   3.901  13.969 -2.3901  1.1379 -0.2808
   54DOPE  H11S 6897   0.813   4.046  13.880  0.6493 -0.0861 -0.1476
   54DOPE  C212 6898   1.000   4.037  13.979 -0.0548  0.0832  0.0855
   54DOPE  H12R 6899   1.039   4.111  13.906  1.5537 -1.5408 -0.7808
   54DOPE  H12S 6900   1.079   3.961  13.999 -0.9850 -0.7116  0.8288
   54DOPE  C213 6901   0.946   4.107  14.106  0.1808  0.3005  0.7218
   54DOPE  H13R 6902   0.897   4.035  14.175 -0.0143  1.1131  1.4522
   54DOPE  H13S 6903   0.872   4.184  14.075 -0.4285 -0.4974  0.1538
   54DOPE  C214 6904   1.064   4.172  14.184 -0.2655  0.0896 -0.6086
   54DOPE  H14R 6905   1.113   4.251  14.124  0.7992  0.5644  0.8050
   54DOPE  H14S 6906   1.137   4.091  14.205 -0.7738  0.2989  2.5180
   54DOPE  C215 6907   1.026   4.229  14.329  0.5319 -0.6285 -0.1719
   54DOPE  H15R 6908   1.019   4.145  14.401 -1.5047  0.2913  0.7847
   54DOPE  H15S 6909   0.929   4.276  14.299  0.9805 -0.8318 -2.0965
   54DOPE  C216 6910   1.110   4.342  14.397  0.2466  0.0777 -0.2740
   54DOPE  H16R 6911   1.100   4.424  14.322 -1.5330 -2.0893 -2.6011
   54DOPE  H16S 6912   1.220   4.327  14.396  0.2980  0.4269 -0.9453
   54DOPE  C217 6913   1.060   4.384  14.534 -0.3134  0.5056 -0.4268
   54DOPE  H17R 6914   1.096   4.487  14.552 -0.7401  0.8093 -1.2762
   54DOPE  H17S 6915   1.109   4.329  14.618  3.4710  1.6015 -1.7166
   54DOPE  C218 6916   0.909   4.382  14.559 -0.2361 -0.1360 -0.1572
   54DOPE  H18R 6917   0.853   4.427  14.475  1.2113  0.8311 -0.6453
   54DOPE  H18S 6918   0.883   4.436  14.652 -3.1443 -1.0488 -0.3481
   54DOPE  H18T 6919   0.871   4.279  14.577 -0.5982  0.2486  1.4245
   54DOPE   C33 6920   0.219   3.036  13.612  0.3661 -0.5207 -0.7904
   54DOPE   H3X 6921   0.313   3.085  13.578  0.0328 -1.0958 -2.6722
   54DOPE   H3Y 6922   0.203   2.936  13.566  0.6567 -1.3292  0.8011
   54DOPE   C34 6923   0.215   3.013  13.766 -0.1707 -0.7250 -0.2599
   54DOPE   H4X 6924   0.112   3.012  13.808  0.5598  1.6807  1.8712
   54DOPE   H4Y 6925   0.270   2.922  13.799  1.0270 -0.1522 -0.6153
   54DOPE   C35 6926   0.275   3.132  13.840 -0.2758 -0.9216  0.0317
   54DOPE   H5X 6927   0.204   3.217  13.825 -0.1088 -0.6273  0.8548
   54DOPE   H5Y 6928   0.368   3.164  13.789 -1.2647 -0.3856 -1.5425
   54DOPE   C36 6929   0.301   3.105  13.988  0.1327 -0.6953 -0.3558
   54DOPE   H6X 6930   0.396   3.053  14.009  0.7589  0.7822  0.6543
   54DOPE   H6Y 6931   0.221   3.046  14.038 -1.2996 -0.0632 -1.7907
   54DOPE   C37 6932   0.315   3.228  14.076  0.3661 -0.6513  0.2011
   54DOPE   H7X 6933   0.397   3.289  14.032  0.5713 -1.5120 -0.6352
   54DOPE   H7Y 6934   0.222   3.288  14.068  1.2058  0.6700  0.0693
   54DOPE   C38 6935   0.338   3.193  14.213 -0.5345  0.6177 -0.2030
   54DOPE   H8X 6936   0.441   3.152  14.221 -0.4190  1.1262  1.3242
   54DOPE   H8Y 6937   0.265   3.119  14.254  0.8901 -0.3744  0.6511
   54DOPE   C39 6938   0.337   3.318  14.293 -0.2577  0.5380  0.1650
   54DOPE   H9X 6939   0.384   3.403  14.241 -0.2564 -0.1619 -1.0168
   54DOPE  C310 6940   0.268   3.339  14.406  0.0095 -1.5101 -0.2648
   54DOPE  H10X 6941   0.278   3.434  14.460  0.5540 -1.1995 -0.8937
   54DOPE  C311 6942   0.169   3.244  14.479  0.1785 -0.7308 -0.6643
   54DOPE  H11X 6943   0.071   3.297  14.480  0.9629  0.7683  0.1164
   54DOPE  H11Y 6944   0.178   3.150  14.420 -1.5081 -1.0977 -0.4008
   54DOPE  C312 6945   0.185   3.208  14.627 -0.1868  0.4285 -0.3049
   54DOPE  H12X 6946   0.103   3.144  14.664  1.0061 -1.0007 -0.0250
   54DOPE  H12Y 6947   0.201   3.299  14.689 -0.3059  2.0496 -2.5235
   54DOPE  C313 6948   0.311   3.124  14.650 -0.7156  0.3171  0.6376
   54DOPE  H13X 6949   0.328   3.048  14.571  1.3959 -0.0874  1.4052
   54DOPE  H13Y 6950   0.398   3.193  14.646 -0.6224  0.2946  1.7565
   54DOPE  C314 6951   0.321   3.058  14.790 -0.4790  0.0616  0.6034
   54DOPE  H14X 6952   0.238   2.985  14.798 -1.1886  0.8854  0.9240
   54DOPE  H14Y 6953   0.301   3.133  14.869  0.7339  0.1810  0.8241
   54DOPE  C315 6954   0.456   2.993  14.810  0.2870  0.1836 -0.3359
   54DOPE  H15X 6955   0.540   3.059  14.779 -0.1396  0.6161 -0.5744
   54DOPE  H15Y 6956   0.453   2.914  14.732 -1.1216 -0.1913  0.0758
   54DOPE  C316 6957   0.462   2.928  14.952  0.0778  0.4604 -0.3030
   54DOPE  H16X 6958   0.392   2.842  14.960  1.2537 -0.5238 -0.4693
   54DOPE  H16Y 6959   0.414   3.005  15.017  0.8351  0.4293  0.3050
   54DOPE  C317 6960   0.605   2.890  15.004  0.2628 -0.4846  0.0695
   54DOPE  H17X 6961   0.643   2.816  14.930  0.3979 -0.6663  0.3178
   54DOPE  H17Y 6962   0.669   2.981  15.006  0.5198 -0.6320 -1.0022
   54DOPE  C318 6963   0.615   2.831  15.137 -0.2034  0.2090 -0.1133
   54DOPE  H18X 6964   0.721   2.808  15.159 -0.1483  1.2554  0.7902
   54DOPE  H18Y 6965   0.588   2.893  15.225 -0.9824 -1.3962  0.8397
   54DOPE  H18Z 6966   0.557   2.736  15.146 -1.7646  1.1969  0.7069
   55DOPE     N 6967   0.454   5.853  12.347  0.0835  0.4181 -0.0446
   55DOPE   HN1 6968   0.426   5.931  12.285  0.2944  0.5165 -0.0143
   55DOPE   HN2 6969   0.531   5.883  12.410  0.8667 -1.5106 -0.0055
   55DOPE   HN3 6970   0.488   5.773  12.290 -3.9945 -1.6612  0.0704
   55DOPE   C12 6971   0.332   5.789  12.404  0.0084  0.0933 -0.1394
   55DOPE  H12A 6972   0.368   5.691  12.442 -0.9368  0.3592  1.5033
   55DOPE  H12B 6973   0.251   5.762  12.334 -0.7639 -1.7728  1.3791
   55DOPE   C11 6974   0.276   5.870  12.524 -0.1806 -0.1235 -0.0504
   55DOPE  H11A 6975   0.356   5.892  12.597 -1.1779  0.3606  0.9343
   55DOPE  H11B 6976   0.196   5.807  12.568 -1.2475 -1.0106 -3.0220
   55DOPE     P 6977   0.228   6.127  12.552  0.2412  0.0079  0.4528
   55DOPE   O13 6978   0.128   6.224  12.506  0.4180 -0.7639 -0.4411
   55DOPE   O14 6979   0.366   6.175  12.544 -0.3273 -0.2095  0.1828
   55DOPE   O11 6980   0.196   6.098  12.699  0.0468  0.3047 -0.4470
   55DOPE   O12 6981   0.211   5.986  12.478  0.2370 -0.1991  0.6148
   55DOPE    C1 6982   0.068   6.061  12.753  0.1859 -0.4562 -0.1773
   55DOPE    HA 6983   0.014   5.991  12.685  1.3826 -0.7301 -0.8601
   55DOPE    HB 6984   0.003   6.151  12.740  0.9238 -0.2864 -3.9023
   55DOPE    C2 6985   0.072   6.006  12.903 -0.5293 -0.4608 -0.4151
   55DOPE    HS 6986  -0.029   5.989  12.946 -0.2720  1.7848  1.3223
   55DOPE   O21 6987   0.134   6.109  12.988  0.1414  0.0872  0.0682
   55DOPE   C21 6988   0.069   6.225  13.016 -0.5746 -0.0759 -0.2010
   55DOPE   O22 6989  -0.044   6.251  12.977  0.6442 -0.1587  0.2531
   55DOPE   C22 6990   0.170   6.321  13.083 -0.4539 -0.2553 -0.5139
   55DOPE   H2R 6991   0.167   6.419  13.030 -0.6178  0.7256  1.2236
   55DOPE   H2S 6992   0.273   6.281  13.077 -0.1847  0.6320 -3.1628
   55DOPE    C3 6993   0.160   5.879  12.910 -0.0352  0.0721 -0.7344
   55DOPE    HX 6994   0.250   5.886  12.845  0.6503  1.9677  0.3670
   55DOPE    HY 6995   0.092   5.802  12.866  0.5490 -1.5268  1.0286
   55DOPE   O31 6996   0.181   5.839  13.047 -0.5612 -0.2149  0.3348
   55DOPE   C31 6997   0.297   5.883  13.097 -0.6347  0.0493 -0.0032
   55DOPE   O32 6998   0.385   5.940  13.031 -0.6126  0.5344  0.4146
   55DOPE   C32 6999   0.308   5.858  13.250 -0.1763 -0.6360  0.2722
   55DOPE   H2X 7000   0.311   5.747  13.257 -1.5438 -0.6317  1.2210
   55DOPE   H2Y 7001   0.397   5.904  13.298 -0.9826  2.2129 -0.7371
   55DOPE   C23 7002   0.130   6.351  13.227  0.4942  0.0988 -0.4187
   55DOPE   H3R 7003   0.206   6.418  13.273  0.0748 -0.4922  1.2023
   55DOPE   H3S 7004   0.131   6.259  13.288  0.0065 -0.2820 -0.9704
   55DOPE   C24 7005  -0.007   6.417  13.244 -0.3576 -0.3535 -1.2640
   55DOPE   H4R 7006  -0.086   6.354  13.198  2.1641 -3.7389 -1.3816
   55DOPE   H4S 7007  -0.000   6.516  13.193 -0.7420 -0.0395 -0.7141
   55DOPE   C25 7008  -0.048   6.461  13.390  0.1136  0.1610 -0.3298
   55DOPE   H5R 7009   0.033   6.523  13.434  0.0578  0.1492 -0.2115
   55DOPE   H5S 7010  -0.060   6.376  13.460  0.5399  0.3146 -0.0641
   55DOPE   C26 7011  -0.175   6.553  13.388 -0.0250  0.0737  1.2305
   55DOPE   H6R 7012  -0.265   6.496  13.358 -0.0577 -0.4747  2.3075
   55DOPE   H6S 7013  -0.160   6.626  13.305  1.0304 -2.6448 -1.1532
   55DOPE   C27 7014  -0.204   6.617  13.525 -0.1133  0.0703  0.3194
   55DOPE   H7R 7015  -0.122   6.685  13.557  1.2769 -0.8102 -1.1684
   55DOPE   H7S 7016  -0.216   6.539  13.603 -1.1494  0.2306  0.3228
   55DOPE   C28 7017  -0.333   6.699  13.529 -0.3465 -0.0287  1.3023
   55DOPE   H8R 7018  -0.362   6.702  13.636 -1.3113  3.5836  1.0923
   55DOPE   H8S 7019  -0.417   6.648  13.476  0.8905  0.0671 -0.8698
   55DOPE   C29 7020  -0.327   6.841  13.462  0.2305  0.4821  0.3864
   55DOPE   H9R 7021  -0.304   6.855  13.355 -0.2293  1.1767  0.3743
   55DOPE  C210 7022  -0.300   6.954  13.538 -0.4753 -0.0421  0.1370
   55DOPE  H10R 7023  -0.291   7.053  13.492 -0.6631  1.4315  3.0466
   55DOPE  C211 7024  -0.296   6.965  13.683  0.4513 -0.7385 -0.6207
   55DOPE  H11R 7025  -0.192   6.982  13.720  0.6540 -1.2642 -0.9406
   55DOPE  H11S 7026  -0.339   6.877  13.734  1.7003 -0.4258  1.0586
   55DOPE  C212 7027  -0.372   7.085  13.731 -0.4548 -0.2696  0.6138
   55DOPE  H12R 7028  -0.479   7.060  13.718 -0.1722 -2.4703  2.0507
   55DOPE  H12S 7029  -0.360   7.170  13.660 -1.1629  0.8904  1.8570
   55DOPE  C213 7030  -0.344   7.146  13.874  0.2228  0.1426 -0.3481
   55DOPE  H13R 7031  -0.246   7.198  13.869 -0.0212  0.5017 -2.9520
   55DOPE  H13S 7032  -0.330   7.063  13.947  1.7814  0.7510  0.0849
   55DOPE  C214 7033  -0.461   7.239  13.924  0.1527  0.3019  0.5269
   55DOPE  H14R 7034  -0.552   7.180  13.899  1.2452 -2.0622  1.7702
   55DOPE  H14S 7035  -0.453   7.337  13.874 -1.1935 -0.0366 -0.3884
   55DOPE  C215 7036  -0.453   7.253  14.076 -0.9020 -0.0172 -0.5281
   55DOPE  H15R 7037  -0.357   7.306  14.094 -2.3083  2.6079 -0.1881
   55DOPE  H15S 7038  -0.463   7.150  14.117  3.0770 -0.4131 -0.2200
   55DOPE  C216 7039  -0.574   7.338  14.129 -0.5429  0.6459 -0.0842
   55DOPE  H16R 7040  -0.671   7.297  14.094 -1.8278  1.5548  2.1929
   55DOPE  H16S 7041  -0.571   7.441  14.088 -0.5866  2.0465  3.1227
   55DOPE  C217 7042  -0.590   7.328  14.280 -0.2776  0.2970 -0.6307
   55DOPE  H17R 7043  -0.504   7.381  14.326 -0.2774 -0.0872 -0.1825
   55DOPE  H17S 7044  -0.591   7.222  14.313  0.8816  0.4000 -0.2090
   55DOPE  C218 7045  -0.719   7.388  14.323 -0.5833 -0.1795  0.3499
   55DOPE  H18R 7046  -0.796   7.312  14.299 -1.7262  0.6442  1.2558
   55DOPE  H18S 7047  -0.746   7.475  14.260 -0.7263  0.1250  0.8239
   55DOPE  H18T 7048  -0.730   7.409  14.432 -1.7746 -0.9373  0.3916
   55DOPE   C33 7049   0.188   5.919  13.327 -0.0437  0.4380  0.1157
   55DOPE   H3X 7050   0.094   5.894  13.274  0.1314  0.9115 -0.4197
   55DOPE   H3Y 7051   0.194   6.029  13.314 -3.1400  1.0798  2.6689
   55DOPE   C34 7052   0.187   5.883  13.475  0.3848  0.2601  0.5346
   55DOPE   H4X 7053   0.186   5.772  13.485  0.1768  0.0889 -1.2069
   55DOPE   H4Y 7054   0.282   5.920  13.518 -0.1266  0.6270  1.3651
   55DOPE   C35 7055   0.075   5.950  13.549 -0.3315 -0.4707 -0.1089
   55DOPE   H5X 7056   0.098   5.929  13.655 -1.0376 -1.9764 -0.2275
   55DOPE   H5Y 7057  -0.021   5.900  13.522  0.0310 -0.8812 -0.6552
   55DOPE   C36 7058   0.058   6.100  13.529  0.3645  0.2353  0.0472
   55DOPE   H6X 7059  -0.024   6.117  13.456 -0.9463  0.7349  1.5962
   55DOPE   H6Y 7060   0.149   6.149  13.487  0.6014 -0.4245 -0.2127
   55DOPE   C37 7061   0.031   6.178  13.660  0.2382  0.2089  0.5539
   55DOPE   H7X 7062   0.119   6.158  13.726  1.8936  1.9123 -0.9982
   55DOPE   H7Y 7063   0.047   6.284  13.629 -0.1408  0.0913 -0.0357
   55DOPE   C38 7064  -0.112   6.162  13.712  0.5118 -0.4170 -0.0543
   55DOPE   H8X 7065  -0.123   6.061  13.758  2.5292 -0.8484 -0.4331
   55DOPE   H8Y 7066  -0.185   6.163  13.628  0.9319  0.5369 -0.4155
   55DOPE   C39 7067  -0.148   6.273  13.801  0.1807 -0.1646 -0.8261
   55DOPE   H9X 7068  -0.149   6.366  13.742 -0.6788  1.7435  1.9635
   55DOPE  C310 7069  -0.161   6.282  13.935 -0.1355  0.0475  0.9468
   55DOPE  H10X 7070  -0.205   6.372  13.980  0.8960 -0.4292  3.0535
   55DOPE  C311 7071  -0.146   6.174  14.039 -0.2542 -0.4454  0.3883
   55DOPE  H11X 7072  -0.234   6.181  14.106 -0.4469 -1.9202  0.3144
   55DOPE  H11Y 7073  -0.149   6.072  13.996  1.4444 -0.1606 -0.4999
   55DOPE  C312 7074  -0.032   6.195  14.142 -0.8147 -0.0321 -0.4915
   55DOPE  H12X 7075  -0.032   6.117  14.221 -0.5971  2.1674  1.8274
   55DOPE  H12Y 7076  -0.043   6.290  14.198  0.8011 -0.8350  1.2953
   55DOPE  C313 7077   0.109   6.180  14.086  0.3427  0.0838  0.0569
   55DOPE  H13X 7078   0.102   6.096  14.015 -0.2032 -1.8406  2.2527
   55DOPE  H13Y 7079   0.136   6.276  14.036  1.2930 -0.6066 -0.7822
   55DOPE  C314 7080   0.208   6.148  14.201  0.2338  0.6529 -0.0158
   55DOPE  H14X 7081   0.309   6.137  14.155  0.5936  0.7181  0.7372
   55DOPE  H14Y 7082   0.174   6.049  14.239 -1.1851  1.6170  1.3658
   55DOPE  C315 7083   0.226   6.249  14.315  0.1006 -0.0158 -0.4478
   55DOPE  H15X 7084   0.132   6.277  14.366 -0.1248 -2.8088  0.8526
   55DOPE  H15Y 7085   0.272   6.340  14.271 -0.6006  0.1092 -0.9420
   55DOPE  C316 7086   0.309   6.181  14.423 -0.3813 -0.1285 -0.2497
   55DOPE  H16X 7087   0.415   6.180  14.391  0.2697  4.2822  1.1446
   55DOPE  H16Y 7088   0.296   6.072  14.440  0.0047  0.3251  3.8690
   55DOPE  C317 7089   0.289   6.245  14.563 -0.1987  0.4209 -0.1783
   55DOPE  H17X 7090   0.307   6.354  14.552 -0.4209  0.3873 -0.9256
   55DOPE  H17Y 7091   0.189   6.215  14.600  0.5459 -0.9172  0.8416
   55DOPE  C318 7092   0.392   6.194  14.663 -1.0361  0.2631 -0.2660
   55DOPE  H18X 7093   0.371   6.085  14.671 -2.8456  0.4427 -1.9508
   55DOPE  H18Y 7094   0.498   6.219  14.637 -1.1374  1.2478  0.2113
   55DOPE  H18Z 7095   0.370   6.237  14.763 -1.4482  0.7248 -0.5499
   56DOPE     N 7096   0.212   7.395  12.438 -0.2739  0.5656 -0.0365
   56DOPE   HN1 7097   0.244   7.313  12.382  2.0449  1.2245  0.2074
   56DOPE   HN2 7098   0.214   7.475  12.371 -0.5151 -0.1100 -0.8676
   56DOPE   HN3 7099   0.271   7.419  12.520 -0.3823 -0.1676  0.2615
   56DOPE   C12 7100   0.079   7.391  12.497 -0.6103  0.4735  0.0153
   56DOPE  H12A 7101   0.019   7.324  12.431 -0.3981  0.2035  0.0925
   56DOPE  H12B 7102   0.041   7.495  12.499 -1.4013  0.2203  2.5843
   56DOPE   C11 7103   0.084   7.332  12.640 -0.0883 -0.6313  0.4940
   56DOPE  H11A 7104   0.084   7.221  12.637 -2.7031 -0.7201  1.2423
   56DOPE  H11B 7105  -0.014   7.367  12.679  0.8528  1.4848  1.1591
   56DOPE     P 7106   0.281   7.278  12.803 -0.0734 -0.1855  0.1277
   56DOPE   O13 7107   0.366   7.361  12.894  0.2117  0.6162  0.6128
   56DOPE   O14 7108   0.348   7.186  12.709 -0.1260 -0.3799  0.0026
   56DOPE   O11 7109   0.171   7.211  12.893 -0.3529  0.0814 -0.2941
   56DOPE   O12 7110   0.196   7.383  12.716  0.1219 -0.0871  0.1579
   56DOPE    C1 7111   0.146   7.073  12.908 -0.2542 -0.4157  0.7022
   56DOPE    HA 7112   0.233   7.018  12.952 -0.6698 -0.5853  1.3254
   56DOPE    HB 7113   0.134   7.037  12.804  0.2764  0.8788  0.1674
   56DOPE    C2 7114   0.016   7.048  12.979  0.0263  0.9075 -0.1468
   56DOPE    HS 7115  -0.054   7.090  12.904 -2.5950 -1.1054  1.0227
   56DOPE   O21 7116   0.022   7.126  13.101  0.0352 -0.0715 -0.2983
   56DOPE   C21 7117  -0.095   7.151  13.156 -0.1081 -0.4343  0.1453
   56DOPE   O22 7118  -0.206   7.120  13.111 -0.5347 -1.0708 -0.3036
   56DOPE   C22 7119  -0.081   7.219  13.287 -0.3565 -0.2898  0.2570
   56DOPE   H2R 7120   0.002   7.293  13.277 -0.1928 -0.2882  1.3993
   56DOPE   H2S 7121  -0.044   7.144  13.360 -0.7740 -0.0006  0.7743
   56DOPE    C3 7122  -0.009   6.893  13.005  0.4474  0.0036  0.1661
   56DOPE    HX 7123  -0.013   6.843  12.905  0.9342  1.3935 -0.5848
   56DOPE    HY 7124  -0.105   6.879  13.057  0.9439  0.7459  1.3265
   56DOPE   O31 7125   0.095   6.836  13.076 -0.2312  0.5326 -0.2543
   56DOPE   C31 7126   0.085   6.836  13.210 -0.4808  0.5447  0.1189
   56DOPE   O32 7127  -0.002   6.886  13.277 -0.3731 -0.4645 -0.4343
   56DOPE   C32 7128   0.219   6.777  13.266 -0.0800 -0.3720  0.0445
   56DOPE   H2X 7129   0.204   6.673  13.300  0.7300 -0.7996 -0.8983
   56DOPE   H2Y 7130   0.292   6.794  13.185 -2.1841  0.5315 -1.7812
   56DOPE   C23 7131  -0.208   7.286  13.338 -0.3999  0.1422  0.2980
   56DOPE   H3R 7132  -0.281   7.206  13.359 -0.5691 -0.3149 -1.8092
   56DOPE   H3S 7133  -0.249   7.340  13.250  0.8855 -1.6601 -1.5015
   56DOPE   C24 7134  -0.194   7.374  13.462  0.1302 -0.1377  0.6031
   56DOPE   H4R 7135  -0.130   7.461  13.436 -0.5935  0.1154 -0.3638
   56DOPE   H4S 7136  -0.145   7.334  13.553 -2.1169 -0.3452  1.7776
   56DOPE   C25 7137  -0.332   7.423  13.488 -1.2430 -0.3998 -0.2602
   56DOPE   H5R 7138  -0.398   7.334  13.494 -2.4638  0.5036  0.1679
   56DOPE   H5S 7139  -0.372   7.469  13.395 -0.6799 -0.6157 -0.6121
   56DOPE   C26 7140  -0.351   7.522  13.606  0.0940 -0.2329 -0.2403
   56DOPE   H6R 7141  -0.310   7.622  13.579 -0.4191 -0.1646 -0.8052
   56DOPE   H6S 7142  -0.296   7.484  13.695 -1.9568 -1.1722  0.6873
   56DOPE   C27 7143  -0.501   7.543  13.639 -0.2136 -0.0979  0.2400
   56DOPE   H7R 7144  -0.556   7.446  13.645 -2.0660  0.9555  1.0208
   56DOPE   H7S 7145  -0.547   7.594  13.552 -0.1630  0.0255  0.2868
   56DOPE   C28 7146  -0.522   7.633  13.757 -0.5130 -0.1775  0.1173
   56DOPE   H8R 7147  -0.486   7.736  13.737  0.4435 -0.3477  0.9025
   56DOPE   H8S 7148  -0.461   7.588  13.838  0.1163  0.2247 -0.1329
   56DOPE   C29 7149  -0.658   7.624  13.802  0.1584  0.5218 -0.0827
   56DOPE   H9R 7150  -0.734   7.582  13.734  0.3299 -0.6140  0.4163
   56DOPE  C210 7151  -0.696   7.663  13.927 -0.3522  0.0661  1.4574
   56DOPE  H10R 7152  -0.795   7.645  13.972  0.7893 -0.2422  4.0211
   56DOPE  C211 7153  -0.598   7.730  14.019 -0.0012  0.3397 -0.5780
   56DOPE  H11R 7154  -0.570   7.828  13.973  0.4864 -0.1728 -1.4076
   56DOPE  H11S 7155  -0.509   7.666  14.041 -0.0558 -0.1324 -1.6481
   56DOPE  C212 7156  -0.656   7.754  14.158 -0.1211 -0.4639 -0.4783
   56DOPE  H12R 7157  -0.687   7.656  14.199 -1.6984 -0.1246 -0.7848
   56DOPE  H12S 7158  -0.747   7.819  14.152  0.4741  0.3705 -0.6202
   56DOPE  C213 7159  -0.563   7.831  14.253  0.1174  0.2090  0.2865
   56DOPE  H13R 7160  -0.545   7.929  14.205 -1.3104 -1.1559 -3.3939
   56DOPE  H13S 7161  -0.468   7.773  14.259 -0.3077 -0.6450 -1.0031
   56DOPE  C214 7162  -0.607   7.839  14.397 -1.2698  0.3192  0.4104
   56DOPE  H14R 7163  -0.717   7.845  14.403 -1.4302 -2.1282  1.0684
   56DOPE  H14S 7164  -0.563   7.933  14.435 -2.6468  2.5609 -3.0087
   56DOPE  C215 7165  -0.555   7.725  14.485  0.4103  0.0630  0.4059
   56DOPE  H15R 7166  -0.452   7.696  14.456  0.6252  0.7427  0.4736
   56DOPE  H15S 7167  -0.606   7.634  14.446  3.0700 -0.3735 -2.4610
   56DOPE  C216 7168  -0.563   7.740  14.635 -0.2208 -0.5054  0.0483
   56DOPE  H16R 7169  -0.672   7.728  14.654 -0.4315 -1.6709 -1.6856
   56DOPE  H16S 7170  -0.521   7.839  14.663  2.4815 -0.7346 -2.6687
   56DOPE  C217 7171  -0.479   7.640  14.710 -0.2204  0.1996 -0.2939
   56DOPE  H17R 7172  -0.374   7.675  14.703 -0.6410  1.0941 -4.0387
   56DOPE  H17S 7173  -0.484   7.540  14.663  0.6916  0.3303 -0.6893
   56DOPE  C218 7174  -0.524   7.630  14.858 -0.5257 -0.3355  0.3353
   56DOPE  H18R 7175  -0.502   7.726  14.910  2.5607 -0.3551 -0.7171
   56DOPE  H18S 7176  -0.472   7.547  14.911  1.9482  0.0062 -1.3680
   56DOPE  H18T 7177  -0.634   7.622  14.868 -0.5220  1.2323  1.9329
   56DOPE   C33 7178   0.263   6.853  13.395  0.5942  0.0069 -0.3148
   56DOPE   H3X 7179   0.257   6.963  13.382  0.3047  0.1431  0.8590
   56DOPE   H3Y 7180   0.372   6.835  13.406  0.6257 -0.3273 -1.1351
   56DOPE   C34 7181   0.189   6.813  13.525 -0.1317  0.1980 -0.0821
   56DOPE   H4X 7182   0.200   6.894  13.601  1.5596 -0.3297  0.3043
   56DOPE   H4Y 7183   0.081   6.814  13.501  0.1029 -2.3914 -1.6431
   56DOPE   C35 7184   0.226   6.681  13.599  0.7414  0.4996  0.4719
   56DOPE   H5X 7185   0.326   6.687  13.646  0.4040  0.9113  1.1558
   56DOPE   H5Y 7186   0.235   6.604  13.520 -0.6418 -0.6794  1.3921
   56DOPE   C36 7187   0.130   6.630  13.707  0.1902  0.8264 -0.2775
   56DOPE   H6X 7188   0.138   6.520  13.705 -1.2699  0.6995 -0.1549
   56DOPE   H6Y 7189   0.020   6.644  13.693 -0.7377 -1.0981  3.7047
   56DOPE   C37 7190   0.167   6.676  13.845  0.3074 -0.2347  0.1783
   56DOPE   H7X 7191   0.275   6.660  13.862  0.1894 -0.2077  1.0256
   56DOPE   H7Y 7192   0.152   6.786  13.850  2.9052  0.3593 -2.4252
   56DOPE   C38 7193   0.090   6.607  13.962 -0.2128 -0.0795  0.3347
   56DOPE   H8X 7194   0.163   6.624  14.045  0.0375  2.4178 -0.3166
   56DOPE   H8Y 7195   0.093   6.501  13.928  1.1682 -0.5009  1.6376
   56DOPE   C39 7196  -0.043   6.674  13.983 -0.2402 -0.2589  0.5286
   56DOPE   H9X 7197  -0.093   6.705  13.891  0.5187  1.3973  0.6244
   56DOPE  C310 7198  -0.098   6.702  14.097 -0.3886 -0.1282  0.5723
   56DOPE  H10X 7199  -0.191   6.761  14.093 -0.1142  0.2551 -0.5246
   56DOPE  C311 7200  -0.049   6.670  14.233 -0.8756  0.0995  0.0182
   56DOPE  H11X 7201   0.033   6.594  14.227 -0.5146  0.5178 -0.4484
   56DOPE  H11Y 7202  -0.014   6.756  14.294 -1.4557 -0.4266  1.1289
   56DOPE  C312 7203  -0.157   6.594  14.315  0.2331  0.6409  0.1099
   56DOPE  H12X 7204  -0.172   6.489  14.282 -0.3644  0.4449  0.9472
   56DOPE  H12Y 7205  -0.257   6.640  14.303  0.6330  1.3803 -0.4102
   56DOPE  C313 7206  -0.135   6.571  14.467  0.5498 -0.4677  0.0158
   56DOPE  H13X 7207  -0.182   6.658  14.517  0.2330 -0.4229 -0.3519
   56DOPE  H13Y 7208  -0.205   6.496  14.510 -0.1872 -0.8723 -1.7893
   56DOPE  C314 7209   0.010   6.569  14.511  0.2386 -0.1588  0.0414
   56DOPE  H14X 7210   0.077   6.643  14.461  2.1953 -1.9005 -0.0922
   56DOPE  H14Y 7211   0.056   6.469  14.491  0.5527 -0.4444  2.0225
   56DOPE  C315 7212   0.028   6.595  14.665  0.4191 -0.1005 -0.6651
   56DOPE  H15X 7213  -0.033   6.531  14.731  2.8697  0.6178  2.5708
   56DOPE  H15Y 7214  -0.007   6.698  14.689 -1.0046 -1.0858  1.7982
   56DOPE  C316 7215   0.175   6.583  14.706 -0.1890  0.3913 -0.1668
   56DOPE  H16X 7216   0.245   6.635  14.638  0.3266 -0.0791 -0.0002
   56DOPE  H16Y 7217   0.192   6.473  14.704 -0.6921  0.3102 -0.2142
   56DOPE  C317 7218   0.205   6.628  14.858  0.9554  0.1239  0.2650
   56DOPE  H17X 7219   0.311   6.601  14.880  0.2509 -2.4910  0.9081
   56DOPE  H17Y 7220   0.176   6.733  14.877 -0.7240 -0.5130  1.5439
   56DOPE  C318 7221   0.118   6.550  14.962 -0.1884  0.0303  0.1105
   56DOPE  H18X 7222   0.011   6.579  14.957  0.2971  1.9171  0.0297
   56DOPE  H18Y 7223   0.128   6.444  14.932 -0.0214  0.7654 -2.7270
   56DOPE  H18Z 7224   0.148   6.563  15.068  1.8228  1.1397 -0.5397
   57DOPE     N 7225   0.042   2.106  12.746 -0.1869 -0.8096 -0.1288
   57DOPE   HN1 7226   0.004   2.011  12.732 -1.8468 -0.0705 -0.9222
   57DOPE   HN2 7227  -0.021   2.153  12.814  0.2754  0.2453 -0.4035
   57DOPE   HN3 7228   0.024   2.157  12.657 -2.5770 -0.5395  0.4464
   57DOPE   C12 7229   0.182   2.105  12.795  0.2646  0.3591  0.2845
   57DOPE  H12A 7230   0.224   2.012  12.752 -1.6696 -0.7977  0.7519
   57DOPE  H12B 7231   0.176   2.091  12.905  0.1487 -1.9137  0.0348
   57DOPE   C11 7232   0.267   2.224  12.755  0.3199 -0.0615  0.3476
   57DOPE  H11A 7233   0.291   2.213  12.647  1.9695 -1.9465  0.8446
   57DOPE  H11B 7234   0.365   2.214  12.805  1.2939 -1.6113 -1.7071
   57DOPE     P 7235   0.279   2.475  12.793 -0.0663 -0.0363 -0.2715
   57DOPE   O13 7236   0.239   2.569  12.689 -0.0041 -1.0514  0.5263
   57DOPE   O14 7237   0.422   2.435  12.803  0.3777  0.3759 -0.1068
   57DOPE   O11 7238   0.231   2.525  12.931 -0.2465  0.6248 -0.8346
   57DOPE   O12 7239   0.194   2.345  12.771  0.4615 -0.0543 -0.4146
   57DOPE    C1 7240   0.175   2.434  13.031  0.1832 -0.0348  0.4040
   57DOPE    HA 7241   0.116   2.346  12.997 -0.9722  0.8989 -0.0531
   57DOPE    HB 7242   0.105   2.498  13.089 -0.9812 -0.9156  0.0110
   57DOPE    C2 7243   0.285   2.375  13.126 -0.2280  0.1941  0.1985
   57DOPE    HS 7244   0.355   2.461  13.135 -1.2486  1.1582 -0.5819
   57DOPE   O21 7245   0.353   2.258  13.061  0.6191  0.1278  0.0886
   57DOPE   C21 7246   0.477   2.244  13.089 -0.5037  0.2098 -0.0097
   57DOPE   O22 7247   0.550   2.328  13.142 -0.3757 -0.5156  0.2810
   57DOPE   C22 7248   0.535   2.108  13.048  1.2609 -0.3107  0.0990
   57DOPE   H2R 7249   0.581   2.125  12.948  0.4519  1.0928 -0.0731
   57DOPE   H2S 7250   0.456   2.031  13.046 -0.5899  1.4951  0.2901
   57DOPE    C3 7251   0.236   2.336  13.270 -0.3635 -0.2077 -0.5415
   57DOPE    HX 7252   0.183   2.239  13.257 -1.2315  0.2343 -0.3576
   57DOPE    HY 7253   0.171   2.411  13.319  0.2251  0.3704 -0.6409
   57DOPE   O31 7254   0.349   2.293  13.355 -0.4198  0.0869  0.0280
   57DOPE   C31 7255   0.369   2.360  13.464 -0.1551  0.1791 -0.1855
   57DOPE   O32 7256   0.296   2.450  13.496  0.1433 -0.0643 -0.3151
   57DOPE   C32 7257   0.490   2.311  13.543 -0.4673 -0.3084  0.5335
   57DOPE   H2X 7258   0.474   2.210  13.586 -0.0602 -0.7473 -0.3197
   57DOPE   H2Y 7259   0.564   2.287  13.464 -1.8894  0.8552 -1.2246
   57DOPE   C23 7260   0.634   2.054  13.142 -0.4463 -0.1607  0.1160
   57DOPE   H3R 7261   0.709   2.134  13.161 -1.4296  1.8813 -3.6175
   57DOPE   H3S 7262   0.690   1.970  13.094 -2.3962 -1.9297  0.8240
   57DOPE   C24 7263   0.594   2.003  13.285 -0.3062  0.2291  0.2332
   57DOPE   H4R 7264   0.524   1.916  13.276 -1.7542  1.4270 -0.4936
   57DOPE   H4S 7265   0.536   2.084  13.333  2.0936  1.7384  0.7557
   57DOPE   C25 7266   0.717   1.949  13.366 -0.1148 -0.1111  0.3328
   57DOPE   H5R 7267   0.782   1.880  13.307 -0.4783  1.7093 -2.3872
   57DOPE   H5S 7268   0.681   1.884  13.448  1.2794 -1.7690 -0.3102
   57DOPE   C26 7269   0.800   2.062  13.428 -0.0334  0.0894  0.4107
   57DOPE   H6R 7270   0.729   2.123  13.487  0.6184 -0.5810  1.9461
   57DOPE   H6S 7271   0.832   2.126  13.343  2.5560 -2.1188 -0.4251
   57DOPE   C27 7272   0.927   2.014  13.503  1.0600  0.6897  0.1390
   57DOPE   H7R 7273   0.997   1.980  13.424  0.1093  0.8715 -0.8122
   57DOPE   H7S 7274   0.900   1.939  13.580  0.8323 -0.0899 -0.6777
   57DOPE   C28 7275   0.983   2.137  13.569 -0.0437 -0.0551 -0.1648
   57DOPE   H8R 7276   0.911   2.175  13.645  0.0555  1.8611 -0.9761
   57DOPE   H8S 7277   0.985   2.222  13.498 -1.2924  0.6757  0.6390
   57DOPE   C29 7278   1.118   2.109  13.621  0.2149  0.3948 -0.1594
   57DOPE   H9R 7279   1.197   2.152  13.558 -0.8743  0.9174 -1.1973
   57DOPE  C210 7280   1.163   2.054  13.738  0.6515 -0.4611  0.5480
   57DOPE  H10R 7281   1.271   2.058  13.754  0.7946  1.1594 -0.5820
   57DOPE  C211 7282   1.085   2.004  13.852 -0.4521  0.0805 -0.0129
   57DOPE  H11R 7283   0.975   2.011  13.835 -0.9564 -2.2234  1.6655
   57DOPE  H11S 7284   1.106   2.062  13.944 -0.0038 -0.7077  0.3990
   57DOPE  C212 7285   1.128   1.853  13.893 -0.4840 -0.5339 -0.0481
   57DOPE  H12R 7286   1.238   1.847  13.907 -0.2110  0.0673 -1.6581
   57DOPE  H12S 7287   1.097   1.797  13.802 -1.5281 -1.5289  0.8934
   57DOPE  C213 7288   1.034   1.812  14.008 -0.9458 -0.1770 -0.0607
   57DOPE  H13R 7289   0.931   1.798  13.969  0.2071 -3.2010 -2.4385
   57DOPE  H13S 7290   1.044   1.898  14.079  0.6940  0.4726 -1.0145
   57DOPE  C214 7291   1.082   1.677  14.074 -0.0179  0.4297 -0.2126
   57DOPE  H14R 7292   1.190   1.675  14.098 -0.2731 -1.9675  1.0388
   57DOPE  H14S 7293   1.060   1.591  14.007 -0.1554  0.0468  0.3204
   57DOPE  C215 7294   1.012   1.650  14.211  0.4261  0.5909 -0.6449
   57DOPE  H15R 7295   0.905   1.636  14.187  0.4826 -0.9230 -0.1040
   57DOPE  H15S 7296   1.000   1.735  14.282 -0.1654 -0.1257  0.1415
   57DOPE  C216 7297   1.057   1.524  14.289  0.2867 -0.0519  0.5278
   57DOPE  H16R 7298   1.163   1.531  14.321  0.7566 -0.1322 -0.9293
   57DOPE  H16S 7299   1.068   1.442  14.215  0.4693  0.5170 -0.0882
   57DOPE  C217 7300   0.972   1.484  14.404 -0.2198 -0.0639  0.4196
   57DOPE  H17R 7301   0.866   1.483  14.372  0.2684  0.0179 -1.2806
   57DOPE  H17S 7302   0.982   1.558  14.487 -1.3436 -0.4423  0.9050
   57DOPE  C218 7303   1.001   1.343  14.462  0.0278  0.3783 -0.2885
   57DOPE  H18R 7304   0.926   1.336  14.543  2.8562 -3.1036  2.4145
   57DOPE  H18S 7305   1.104   1.344  14.503 -0.0930  0.1040  0.0265
   57DOPE  H18T 7306   0.992   1.264  14.384  1.0091 -0.8500  0.7794
   57DOPE   C33 7307   0.545   2.416  13.645 -0.5583  0.6430 -0.3029
   57DOPE   H3X 7308   0.465   2.447  13.716  1.2268  0.3508  1.9602
   57DOPE   H3Y 7309   0.567   2.509  13.588 -0.4149  0.4385 -0.5821
   57DOPE   C34 7310   0.677   2.376  13.715  0.3419  0.4159  0.9811
   57DOPE   H4X 7311   0.663   2.287  13.779 -1.5546  0.3445  0.5215
   57DOPE   H4Y 7312   0.754   2.339  13.643 -0.2842 -0.8276  0.9164
   57DOPE   C35 7313   0.739   2.492  13.801 -0.1478  0.5681  0.6027
   57DOPE   H5X 7314   0.666   2.525  13.879 -3.0872 -0.1921 -1.6420
   57DOPE   H5Y 7315   0.758   2.588  13.748 -2.3777  0.6785 -0.0910
   57DOPE   C36 7316   0.857   2.435  13.881  0.5404 -0.7502  0.4414
   57DOPE   H6X 7317   0.902   2.522  13.934  1.6622 -1.3451  0.4952
   57DOPE   H6Y 7318   0.932   2.394  13.810  0.0980  1.7756 -1.6519
   57DOPE   C37 7319   0.815   2.342  13.996 -0.0083 -0.3541 -0.0079
   57DOPE   H7X 7320   0.738   2.398  14.053  0.9490  0.8545  0.1402
   57DOPE   H7Y 7321   0.771   2.248  13.957  1.3663 -0.9575 -0.1597
   57DOPE   C38 7322   0.929   2.330  14.090  0.5169  0.8063 -0.0799
   57DOPE   H8X 7323   0.934   2.430  14.138  2.6244  0.6288  0.1486
   57DOPE   H8Y 7324   1.021   2.302  14.035  0.7527 -0.8805  1.1357
   57DOPE   C39 7325   0.907   2.212  14.181 -0.9041 -0.9701 -0.1506
   57DOPE   H9X 7326   0.935   2.116  14.135 -0.9556 -0.7070 -0.7408
   57DOPE  C310 7327   0.865   2.205  14.307  0.0192  0.0033 -0.2012
   57DOPE  H10X 7328   0.872   2.110  14.361  0.8910  0.8083  1.1755
   57DOPE  C311 7329   0.810   2.308  14.403  0.0558  0.0839  0.1430
   57DOPE  H11X 7330   0.881   2.323  14.488 -0.1902 -0.4664  0.4496
   57DOPE  H11Y 7331   0.807   2.404  14.347 -0.7804  0.0498  0.1121
   57DOPE  C312 7332   0.685   2.272  14.471  0.4223  1.0087 -0.2082
   57DOPE  H12X 7333   0.702   2.201  14.555 -0.9457  2.3610  1.3041
   57DOPE  H12Y 7334   0.604   2.228  14.408  1.4728 -0.7910 -0.3690
   57DOPE  C313 7335   0.633   2.388  14.550 -0.4722  0.1785 -0.2625
   57DOPE  H13X 7336   0.706   2.417  14.628 -0.3257  1.1982 -0.7465
   57DOPE  H13Y 7337   0.613   2.479  14.488 -3.3195 -0.0890  0.1503
   57DOPE  C314 7338   0.509   2.354  14.635  0.2846  0.2015  0.5781
   57DOPE  H14X 7339   0.432   2.325  14.561  0.1625  0.3632  0.6401
   57DOPE  H14Y 7340   0.470   2.444  14.687 -0.8507  0.5458 -0.7822
   57DOPE  C315 7341   0.518   2.237  14.739 -0.2192 -0.2136  0.3349
   57DOPE  H15X 7342   0.561   2.142  14.700 -0.6331 -0.3067  0.1067
   57DOPE  H15Y 7343   0.413   2.225  14.771 -1.0018 -0.5563 -2.1708
   57DOPE  C316 7344   0.612   2.268  14.850 -0.1450  0.6835 -0.4886
   57DOPE  H16X 7345   0.553   2.336  14.916 -1.8012 -0.3912 -0.8081
   57DOPE  H16Y 7346   0.696   2.332  14.815 -1.6148  2.7417 -0.4691
   57DOPE  C317 7347   0.647   2.147  14.926 -0.8115  0.3744  0.1477
   57DOPE  H17X 7348   0.557   2.089  14.959 -0.6462  0.3712  0.5996
   57DOPE  H17Y 7349   0.712   2.082  14.864 -1.0652  0.0480  0.2169
   57DOPE  C318 7350   0.733   2.175  15.045 -1.2187  0.4041  0.3552
   57DOPE  H18X 7351   0.806   2.254  15.019 -0.7718  0.6651  2.2435
   57DOPE  H18Y 7352   0.667   2.216  15.125  0.9838  1.7021  1.6055
   57DOPE  H18Z 7353   0.780   2.079  15.075 -1.1541  0.6461  1.0607
   58DOPE     N 7354   7.169   5.819  12.856 -0.0516  0.4067  0.5469
   58DOPE   HN1 7355   7.135   5.797  12.952 -3.3556 -0.2895 -0.6759
   58DOPE   HN2 7356   7.098   5.779  12.792 -0.4078  0.9225  0.6107
   58DOPE   HN3 7357   7.267   5.785  12.851 -0.2508 -0.0609 -0.2240
   58DOPE   C12 7358   7.173   5.967  12.854 -0.1972  0.1350 -0.2829
   58DOPE  H12A 7359   7.277   5.994  12.881 -0.7024  0.1204  1.8710
   58DOPE  H12B 7360   7.104   6.008  12.930  0.4934 -0.5264  0.7403
   58DOPE   C11 7361   7.136   6.030  12.720  0.2378 -0.0175 -0.1722
   58DOPE  H11A 7362   7.201   6.000  12.634 -0.3913  0.0677 -0.6887
   58DOPE  H11B 7363   7.141   6.139  12.739  0.4448  0.2301 -1.5335
   58DOPE     P 7364   6.931   6.025  12.560  0.1400  0.4051  0.0943
   58DOPE   O13 7365   6.921   5.905  12.473 -0.2138 -0.2234 -0.1479
   58DOPE   O14 7366   6.976   6.152  12.501 -0.3975  0.2575  0.1278
   58DOPE   O11 7367   6.791   6.056  12.621 -0.1368  0.0457 -0.3379
   58DOPE   O12 7368   7.003   5.990  12.693 -0.1643  0.1972 -0.5273
   58DOPE    C1 7369   6.742   5.989  12.745 -0.4978  0.4849 -0.3877
   58DOPE    HA 7370   6.774   5.883  12.735  0.6082  0.8417 -0.8431
   58DOPE    HB 7371   6.632   6.003  12.755 -0.1809  1.8563  1.9212
   58DOPE    C2 7372   6.794   6.052  12.888  0.8460 -0.0952 -0.5095
   58DOPE    HS 7373   6.899   6.020  12.905  0.9637  0.0340 -0.9678
   58DOPE   O21 7374   6.703   5.992  12.982  0.4644  0.4501  0.0053
   58DOPE   C21 7375   6.729   5.864  13.016  0.7755  0.4408  0.2723
   58DOPE   O22 7376   6.821   5.801  12.966  0.1264  0.4061 -0.1317
   58DOPE   C22 7377   6.640   5.835  13.133  0.4317  0.3832  0.1661
   58DOPE   H2R 7378   6.572   5.752  13.102 -0.7262  0.7130  1.6892
   58DOPE   H2S 7379   6.568   5.915  13.157 -2.5162 -2.0765  0.1796
   58DOPE    C3 7380   6.778   6.200  12.880  0.3119 -0.2797 -0.4005
   58DOPE    HX 7381   6.673   6.226  12.853  0.2273  0.0425  0.2239
   58DOPE    HY 7382   6.836   6.237  12.793 -0.5692 -2.1771 -1.8709
   58DOPE   O31 7383   6.824   6.261  13.002 -0.3071  0.0017  0.2685
   58DOPE   C31 7384   6.829   6.393  13.009  0.5997  0.8349  0.1096
   58DOPE   O32 7385   6.811   6.467  12.914 -0.0331 -0.5163  0.0242
   58DOPE   C32 7386   6.853   6.423  13.157  0.0856  0.0512  0.1149
   58DOPE   H2X 7387   6.778   6.357  13.206  1.7714 -1.8286  0.2954
   58DOPE   H2Y 7388   6.957   6.389  13.176  0.3475  1.1100  0.6422
   58DOPE   C23 7389   6.712   5.807  13.274 -0.0600 -0.0069  0.9987
   58DOPE   H3R 7390   6.802   5.744  13.257 -0.0044  0.5874 -1.2994
   58DOPE   H3S 7391   6.639   5.766  13.347 -2.6499  0.4327 -1.1645
   58DOPE   C24 7392   6.760   5.943  13.328  0.1873 -0.3046 -0.6224
   58DOPE   H4R 7393   6.680   6.020  13.329  0.6416  0.3414 -3.4077
   58DOPE   H4S 7394   6.844   5.981  13.265  1.2511 -0.4948  0.6487
   58DOPE   C25 7395   6.801   5.944  13.474 -0.5971  0.1498 -0.0297
   58DOPE   H5R 7396   6.719   5.903  13.536 -2.0664  1.5214 -0.9813
   58DOPE   H5S 7397   6.816   6.048  13.508 -2.6918  1.0213 -1.5415
   58DOPE   C26 7398   6.940   5.867  13.485  0.2609 -0.4508  0.0003
   58DOPE   H6R 7399   7.007   5.946  13.444 -0.9249  1.2036  1.1174
   58DOPE   H6S 7400   6.943   5.775  13.422  0.2716 -1.9623  2.0818
   58DOPE   C27 7401   6.983   5.837  13.632  0.2215  0.4819 -0.5453
   58DOPE   H7R 7402   6.909   5.780  13.692  2.5024 -2.8139 -0.6389
   58DOPE   H7S 7403   6.998   5.932  13.689  0.8429  1.3550 -2.0710
   58DOPE   C28 7404   7.111   5.760  13.646 -0.0668  0.5236  0.4017
   58DOPE   H8R 7405   7.139   5.712  13.550  0.8334  1.6639  0.0642
   58DOPE   H8S 7406   7.090   5.680  13.719 -3.2048  1.0376  0.2060
   58DOPE   C29 7407   7.231   5.842  13.683  0.2485 -0.5432 -0.0204
   58DOPE   H9R 7408   7.278   5.898  13.601  2.1722 -3.3090 -0.9166
   58DOPE  C210 7409   7.282   5.847  13.810 -0.7714  0.8369  0.2408
   58DOPE  H10R 7410   7.356   5.926  13.830 -0.6823  0.7449  0.2695
   58DOPE  C211 7411   7.246   5.771  13.931 -0.0638 -0.1610  1.5498
   58DOPE  H11R 7412   7.309   5.680  13.938 -1.1941 -0.9955  1.0555
   58DOPE  H11S 7413   7.141   5.741  13.911 -0.4352  2.2841 -0.7210
   58DOPE  C212 7414   7.264   5.857  14.055 -0.2661 -1.1006  0.6774
   58DOPE  H12R 7415   7.370   5.877  14.081 -0.4599  1.7107 -0.3676
   58DOPE  H12S 7416   7.210   5.801  14.135 -3.3640  0.5989 -0.0725
   58DOPE  C213 7417   7.203   6.000  14.060  0.3495 -0.5074 -0.5167
   58DOPE  H13R 7418   7.107   5.997  14.005  0.9569  0.5665 -1.7184
   58DOPE  H13S 7419   7.273   6.068  14.006  2.9543 -1.2737  1.6196
   58DOPE  C214 7420   7.176   6.056  14.199  0.5430  0.3427  0.6978
   58DOPE  H14R 7421   7.269   6.039  14.258  1.7180  0.7548 -0.9634
   58DOPE  H14S 7422   7.090   5.992  14.226 -0.3574  1.4599  0.5722
   58DOPE  C215 7423   7.144   6.208  14.188  0.2538 -0.6773  0.5018
   58DOPE  H15R 7424   7.232   6.268  14.156 -0.2183 -0.0508  0.3505
   58DOPE  H15S 7425   7.112   6.239  14.290 -2.1424  1.9386 -0.8838
   58DOPE  C216 7426   7.027   6.240  14.095  0.0747 -0.2993  0.0367
   58DOPE  H16R 7427   6.935   6.184  14.120 -0.2399  0.7960  1.4692
   58DOPE  H16S 7428   7.057   6.215  13.991 -0.8891  1.2034 -0.6169
   58DOPE  C217 7429   6.997   6.388  14.095  1.2667 -0.0290  0.0555
   58DOPE  H17R 7430   7.053   6.458  14.029 -1.8373  0.9193 -1.7511
   58DOPE  H17S 7431   6.988   6.422  14.200 -3.6016  1.6319 -0.6359
   58DOPE  C218 7432   6.853   6.400  14.037 -0.5465 -0.7353  0.0813
   58DOPE  H18R 7433   6.860   6.365  13.932  3.3045  2.5838 -1.0360
   58DOPE  H18S 7434   6.811   6.503  14.040 -1.6101 -1.1640  2.2669
   58DOPE  H18T 7435   6.778   6.340  14.093 -0.4434  0.8588  2.0734
   58DOPE   C33 7436   6.838   6.572  13.198  0.1101  0.1671 -0.1560
   58DOPE   H3X 7437   6.741   6.604  13.155 -1.1811 -0.3352  2.2008
   58DOPE   H3Y 7438   6.923   6.633  13.161 -0.3695  1.8693  1.3926
   58DOPE   C34 7439   6.810   6.579  13.352 -0.6918 -0.1141  1.1048
   58DOPE   H4X 7440   6.714   6.532  13.384 -0.6983 -0.0963  1.1103
   58DOPE   H4Y 7441   6.897   6.528  13.398  0.7593 -1.2902 -2.5675
   58DOPE   C35 7442   6.798   6.726  13.401 -0.1303 -0.1480 -0.8011
   58DOPE   H5X 7443   6.700   6.764  13.366 -1.6137 -2.0968  0.9799
   58DOPE   H5Y 7444   6.869   6.784  13.338 -1.4071  1.0163 -1.1880
   58DOPE   C36 7445   6.827   6.756  13.555  0.4764 -0.1150  0.6706
   58DOPE   H6X 7446   6.753   6.688  13.603  0.3232 -1.7374 -1.6907
   58DOPE   H6Y 7447   6.812   6.863  13.583  0.4996 -0.3422  1.5989
   58DOPE   C37 7448   6.972   6.724  13.600 -0.2888  0.4129 -0.2224
   58DOPE   H7X 7449   6.981   6.617  13.571  0.7909  0.3457  0.3430
   58DOPE   H7Y 7450   7.052   6.780  13.547  0.7309  0.8895  1.7569
   58DOPE   C38 7451   6.989   6.718  13.750 -0.1546 -0.8048 -0.5252
   58DOPE   H8X 7452   7.060   6.642  13.787 -0.6439 -1.0368 -0.0435
   58DOPE   H8Y 7453   6.894   6.685  13.798 -0.2053  0.1810  0.0967
   58DOPE   C39 7454   7.022   6.854  13.815 -0.6060  0.0124  0.4347
   58DOPE   H9X 7455   6.957   6.939  13.788  1.2243  1.0411 -0.9878
   58DOPE  C310 7456   7.107   6.871  13.924 -0.0280 -0.0179  0.0665
   58DOPE  H10X 7457   7.120   6.973  13.963 -3.4290  0.6359 -0.1703
   58DOPE  C311 7458   7.191   6.759  13.991  0.5956 -0.1539  0.0555
   58DOPE  H11X 7459   7.207   6.673  13.923  0.6592  0.8783 -1.2761
   58DOPE  H11Y 7460   7.295   6.798  13.981 -0.4062  2.1634 -2.4016
   58DOPE  C312 7461   7.164   6.713  14.131 -0.1124  0.1145 -0.4145
   58DOPE  H12X 7462   7.247   6.641  14.148 -0.6072 -0.6459 -1.1113
   58DOPE  H12Y 7463   7.067   6.659  14.125  0.4612 -0.8099 -2.3105
   58DOPE  C313 7464   7.159   6.826  14.239 -0.2260  0.0423 -0.0158
   58DOPE  H13X 7465   7.254   6.882  14.246 -0.3151 -0.0398  2.7794
   58DOPE  H13Y 7466   7.081   6.899  14.209 -1.7234 -0.2653  2.8180
   58DOPE  C314 7467   7.128   6.764  14.384 -0.8251 -0.2476  0.0144
   58DOPE  H14X 7468   7.226   6.722  14.415  0.2001  1.0957 -1.2698
   58DOPE  H14Y 7469   7.052   6.683  14.374 -0.8148 -0.6147  2.3469
   58DOPE  C315 7470   7.070   6.868  14.482 -0.3258 -0.3201  0.0009
   58DOPE  H15X 7471   7.045   6.818  14.578  0.1987 -0.9597 -0.1910
   58DOPE  H15Y 7472   6.977   6.913  14.440  1.0487  1.0150 -1.7215
   58DOPE  C316 7473   7.170   6.985  14.515  0.4751 -0.4238  0.8457
   58DOPE  H16X 7474   7.188   7.037  14.418 -0.8396  0.1292  0.8713
   58DOPE  H16Y 7475   7.261   6.934  14.550  1.7392 -0.3681 -2.0531
   58DOPE  C317 7476   7.118   7.073  14.617  0.4838  0.0854 -0.5128
   58DOPE  H17X 7477   7.010   7.087  14.594  0.0187 -1.4562  0.5406
   58DOPE  H17Y 7478   7.118   7.013  14.710 -0.1776 -0.0887 -0.6197
   58DOPE  C318 7479   7.180   7.209  14.635  0.3183  0.9535  0.6113
   58DOPE  H18X 7480   7.111   7.280  14.685 -2.1750 -1.6450  1.1120
   58DOPE  H18Y 7481   7.260   7.203  14.712  0.4131 -1.1810  0.4036
   58DOPE  H18Z 7482   7.220   7.259  14.544 -0.6935  1.1879  0.2867
   59DOPE     N 7483   7.305   1.953  12.588  0.3938  0.3689  0.5365
   59DOPE   HN1 7484   7.355   2.031  12.635  1.2699 -1.4340  2.7532
   59DOPE   HN2 7485   7.378   1.887  12.554  1.2994  0.6351  1.8768
   59DOPE   HN3 7486   7.241   1.971  12.508  0.0605 -1.0894  0.4487
   59DOPE   C12 7487   7.231   1.878  12.691  0.5093 -0.4692  0.4170
   59DOPE  H12A 7488   7.158   1.821  12.629  0.9368  2.0870 -2.6993
   59DOPE  H12B 7489   7.184   1.963  12.744  0.1958  1.2205 -2.3522
   59DOPE   C11 7490   7.310   1.791  12.790  0.3830  0.3014 -0.0169
   59DOPE  H11A 7491   7.246   1.723  12.849  0.0033 -0.4170 -1.2293
   59DOPE  H11B 7492   7.352   1.860  12.868  1.1612 -0.3868  0.1898
   59DOPE     P 7493   7.559   1.735  12.759  0.0238  0.2054 -0.3085
   59DOPE   O13 7494   7.602   1.863  12.699  0.0137  0.7538  0.0556
   59DOPE   O14 7495   7.643   1.628  12.711  0.2214  0.2794 -0.1895
   59DOPE   O11 7496   7.578   1.747  12.917  0.8453  0.0268  0.2874
   59DOPE   O12 7497   7.403   1.704  12.731 -0.0083 -0.2156 -0.5947
   59DOPE    C1 7498   7.622   1.633  12.988 -0.6384 -0.4232  0.3170
   59DOPE    HA 7499   7.686   1.667  13.072 -0.4120 -0.7036  0.2568
   59DOPE    HB 7500   7.686   1.567  12.925  0.0820  1.2049 -0.7306
   59DOPE    C2 7501   7.504   1.565  13.070 -0.9395 -0.1327  0.1731
   59DOPE    HS 7502   7.445   1.530  12.982 -1.8098 -2.0202  1.4464
   59DOPE   O21 7503   7.436   1.657  13.154  0.2624 -0.2020 -0.5468
   59DOPE   C21 7504   7.304   1.651  13.166 -0.0484  0.0029  0.1050
   59DOPE   O22 7505   7.235   1.565  13.108  0.1725 -0.3471  0.0070
   59DOPE   C22 7506   7.247   1.772  13.237 -0.0704  0.8033 -0.3581
   59DOPE   H2R 7507   7.191   1.827  13.159  1.8093 -0.5969 -2.8609
   59DOPE   H2S 7508   7.334   1.835  13.268  0.1524  0.2402  0.1725
   59DOPE    C3 7509   7.545   1.442  13.156 -0.1095  0.2624  0.0364
   59DOPE    HX 7510   7.454   1.383  13.183  1.0928 -1.4513  0.5113
   59DOPE    HY 7511   7.583   1.469  13.256 -1.6570  2.0666  0.2039
   59DOPE   O31 7512   7.638   1.353  13.094  0.4989  0.1915  0.2034
   59DOPE   C31 7513   7.585   1.259  13.008  0.1002 -0.0156 -0.1638
   59DOPE   O32 7514   7.467   1.252  12.971 -0.7885 -0.5568 -0.4158
   59DOPE   C32 7515   7.694   1.173  12.941  0.2415  0.0941  0.3320
   59DOPE   H2X 7516   7.643   1.090  12.887 -0.0256 -0.4684  1.4181
   59DOPE   H2Y 7517   7.739   1.234  12.860  0.5704 -0.3097  0.2092
   59DOPE   C23 7518   7.171   1.747  13.364  0.1909  0.1993  0.0825
   59DOPE   H3R 7519   7.159   1.844  13.416  0.2437  0.6188 -0.6810
   59DOPE   H3S 7520   7.235   1.684  13.429  0.1653  1.1849  1.0969
   59DOPE   C24 7521   7.035   1.676  13.336  0.2838 -0.0845 -0.0799
   59DOPE   H4R 7522   7.050   1.575  13.292  3.1867  0.2283 -0.0172
   59DOPE   H4S 7523   6.974   1.739  13.268 -1.1448 -1.4010 -0.0718
   59DOPE   C25 7524   6.952   1.645  13.460  0.1593 -0.2891 -0.2145
   59DOPE   H5R 7525   6.848   1.619  13.431 -1.0238  3.0807  0.5546
   59DOPE   H5S 7526   6.948   1.734  13.527  2.2468  0.0682 -0.4747
   59DOPE   C26 7527   7.014   1.534  13.540 -0.1890 -0.5151  0.0694
   59DOPE   H6R 7528   6.951   1.525  13.631 -0.5663 -1.3955 -0.2681
   59DOPE   H6S 7529   7.119   1.551  13.572 -0.6741 -0.5742  1.7865
   59DOPE   C27 7530   7.013   1.393  13.466 -0.5944 -0.4415 -0.2207
   59DOPE   H7R 7531   7.081   1.391  13.378 -0.0006 -1.5523  0.2441
   59DOPE   H7S 7532   6.909   1.387  13.428 -0.8257  0.9227  0.1550
   59DOPE   C28 7533   7.042   1.277  13.566 -0.3348 -0.2907  0.8991
   59DOPE   H8R 7534   7.036   1.177  13.517 -0.5103 -0.1007  0.5212
   59DOPE   H8S 7535   6.968   1.276  13.649 -1.0862 -3.9369  0.3772
   59DOPE   C29 7536   7.187   1.290  13.609 -0.5339  0.1396  0.0662
   59DOPE   H9R 7537   7.267   1.275  13.534  0.5730 -0.1879  1.2894
   59DOPE  C210 7538   7.224   1.311  13.737  0.1790  0.2146  0.3967
   59DOPE  H10R 7539   7.334   1.309  13.745  0.3062  0.1044 -1.0452
   59DOPE  C211 7540   7.130   1.322  13.853 -0.5399  0.4416  1.2190
   59DOPE  H11R 7541   7.126   1.219  13.895 -0.2415  0.0733  0.3640
   59DOPE  H11S 7542   7.026   1.341  13.820 -0.3326 -1.5314 -0.8021
   59DOPE  C212 7543   7.180   1.419  13.961  0.3136 -0.7229  0.5043
   59DOPE  H12R 7544   7.110   1.388  14.042  1.9117 -1.8390  1.5309
   59DOPE  H12S 7545   7.157   1.525  13.940 -0.2130 -0.3839  2.5257
   59DOPE  C213 7546   7.323   1.396  14.006 -0.4008 -0.0396  0.0843
   59DOPE  H13R 7547   7.398   1.418  13.927  1.1622  1.0633  1.7973
   59DOPE  H13S 7548   7.336   1.286  14.015 -1.4140 -0.0776  1.3208
   59DOPE  C214 7549   7.367   1.478  14.135 -0.7806  0.2242 -0.0526
   59DOPE  H14R 7550   7.336   1.584  14.127 -4.4107 -0.4322  2.6195
   59DOPE  H14S 7551   7.477   1.479  14.151 -0.6092  0.3779 -1.1760
   59DOPE  C215 7552   7.305   1.429  14.270  0.0780  0.5105  0.0657
   59DOPE  H15R 7553   7.358   1.335  14.297 -1.2898  0.3016  2.2225
   59DOPE  H15S 7554   7.197   1.410  14.251  0.2037 -2.4249  1.8156
   59DOPE  C216 7555   7.320   1.531  14.386 -0.2296  0.5061 -0.1385
   59DOPE  H16R 7556   7.258   1.501  14.473  1.0311  1.4730  1.1495
   59DOPE  H16S 7557   7.282   1.630  14.353 -0.0603  0.0428 -1.8326
   59DOPE  C217 7558   7.464   1.544  14.421  0.6179 -0.2606 -0.7137
   59DOPE  H17R 7559   7.513   1.593  14.334 -0.6169  0.8293 -0.8202
   59DOPE  H17S 7560   7.515   1.452  14.456  1.4737  0.3702 -0.2545
   59DOPE  C218 7561   7.469   1.647  14.534  0.2126 -0.0203 -0.0409
   59DOPE  H18R 7562   7.420   1.742  14.503 -0.9423  0.5709  3.1133
   59DOPE  H18S 7563   7.571   1.670  14.571  0.1293  0.3190 -0.0088
   59DOPE  H18T 7564   7.413   1.603  14.620 -0.9229  0.3783 -0.5443
   59DOPE   C33 7565   7.785   1.114  13.054 -0.0598 -0.8754  0.5868
   59DOPE   H3X 7566   7.825   1.201  13.110 -0.7281 -0.2988  0.1921
   59DOPE   H3Y 7567   7.869   1.055  13.011 -0.6082  0.2632 -2.3284
   59DOPE   C34 7568   7.708   1.023  13.149 -0.3333 -0.2428 -0.0786
   59DOPE   H4X 7569   7.656   1.094  13.217  2.0943  0.3542  1.2814
   59DOPE   H4Y 7570   7.642   0.963  13.082  2.3429 -0.6823 -2.4996
   59DOPE   C35 7571   7.802   0.945  13.244  0.0126 -0.6601  0.6231
   59DOPE   H5X 7572   7.876   0.880  13.192 -1.1592 -1.0130 -0.6520
   59DOPE   H5Y 7573   7.734   0.876  13.298 -0.0520  0.3038  1.8172
   59DOPE   C36 7574   7.871   1.039  13.346 -0.3430  0.5791  0.0425
   59DOPE   H6X 7575   7.801   1.117  13.383  0.0436  0.9518  0.0020
   59DOPE   H6Y 7576   7.941   1.100  13.286 -0.3281  0.3446 -0.1787
   59DOPE   C37 7577   7.933   0.955  13.456 -0.5577 -1.1073 -0.1159
   59DOPE   H7X 7578   7.853   0.912  13.521  0.6655 -0.7039  1.7145
   59DOPE   H7Y 7579   8.000   0.874  13.421  1.1983 -0.1601  0.9164
   59DOPE   C38 7580   8.013   1.044  13.554  0.1519  0.6908  0.1861
   59DOPE   H8X 7581   7.947   1.101  13.623  0.7137  0.6843  0.7383
   59DOPE   H8Y 7582   8.080   1.114  13.500  2.1597 -0.4197  1.0965
   59DOPE   C39 7583   8.118   0.977  13.638  0.5413  0.3358  0.0634
   59DOPE   H9X 7584   8.174   0.901  13.583 -0.9613 -0.6870 -0.1163
   59DOPE  C310 7585   8.150   0.998  13.769 -0.2449  0.9792  0.3050
   59DOPE  H10X 7586   8.226   0.937  13.820  1.7406  3.3793  0.4057
   59DOPE  C311 7587   8.071   1.095  13.855 -0.2271 -0.4009 -0.3913
   59DOPE  H11X 7588   8.094   1.196  13.813 -1.6635  0.4042  0.6566
   59DOPE  H11Y 7589   7.962   1.075  13.859 -0.0240 -1.3153  1.2094
   59DOPE  C312 7590   8.124   1.109  13.996  0.1808  0.5572 -0.0454
   59DOPE  H12X 7591   8.122   1.012  14.050  1.4546  0.5882  0.0743
   59DOPE  H12Y 7592   8.060   1.174  14.061  0.0578  0.4381 -0.0466
   59DOPE  C313 7593   8.265   1.164  14.005  0.1031  0.0444 -0.7300
   59DOPE  H13X 7594   8.298   1.142  14.108 -2.4428  2.2781  0.7177
   59DOPE  H13Y 7595   8.347   1.115  13.950  1.3512  0.4421  0.7108
   59DOPE  C314 7596   8.270   1.315  13.981  0.2870  0.2406  0.0623
   59DOPE  H14X 7597   8.180   1.358  14.029  0.8716 -0.2397  1.6606
   59DOPE  H14Y 7598   8.255   1.331  13.872  1.9761  0.6994 -0.1351
   59DOPE  C315 7599   8.403   1.394  14.010  0.1742  1.0282 -0.2396
   59DOPE  H15X 7600   8.427   1.378  14.117 -1.9189  1.0862  0.2881
   59DOPE  H15Y 7601   8.390   1.504  14.002 -0.6022  1.1213  1.7319
   59DOPE  C316 7602   8.528   1.360  13.914 -0.0337 -0.3210  0.6224
   59DOPE  H16X 7603   8.551   1.253  13.935  1.3916 -0.4745 -1.3799
   59DOPE  H16Y 7604   8.612   1.429  13.938  0.3590 -0.1560 -1.0689
   59DOPE  C317 7605   8.523   1.377  13.763  0.1396 -0.7116  0.3795
   59DOPE  H17X 7606   8.613   1.331  13.719  0.8375  1.7952 -1.0530
   59DOPE  H17Y 7607   8.431   1.324  13.729 -0.9419  0.1998  1.7554
   59DOPE  C318 7608   8.515   1.519  13.723  0.0952 -1.1244  0.3400
   59DOPE  H18X 7609   8.540   1.529  13.616  0.2910 -0.4994  0.4373
   59DOPE  H18Y 7610   8.412   1.558  13.737  0.5478 -0.5408  2.4803
   59DOPE  H18Z 7611   8.581   1.593  13.774  1.2033 -1.1393 -1.0298
   60DOPE     N 7612   7.058   7.580  12.917  0.5831  0.4149  0.3053
   60DOPE   HN1 7613   6.956   7.557  12.912  0.3198  1.2954  1.3837
   60DOPE   HN2 7614   7.100   7.504  12.975  1.2221 -0.2272 -0.9511
   60DOPE   HN3 7615   7.058   7.674  12.959  1.2110  0.6182 -0.1311
   60DOPE   C12 7616   7.102   7.575  12.779  0.8297 -0.1584 -0.2490
   60DOPE  H12A 7617   7.193   7.512  12.773  0.3576 -0.8517 -0.2190
   60DOPE  H12B 7618   7.124   7.681  12.753  2.2804 -0.1790  0.8005
   60DOPE   C11 7619   6.993   7.514  12.692  0.1032 -0.3960  0.6367
   60DOPE  H11A 7620   7.035   7.527  12.590  0.2132  3.0228  0.9779
   60DOPE  H11B 7621   6.903   7.577  12.711  0.7222  0.3991  1.0027
   60DOPE     P 7622   7.010   7.252  12.676 -0.1468 -0.6975 -0.0986
   60DOPE   O13 7623   7.157   7.260  12.688  0.8351  0.4745  0.6894
   60DOPE   O14 7624   6.948   7.228  12.544  0.0354  0.1694 -0.1360
   60DOPE   O11 7625   6.952   7.146  12.773  0.0915 -0.0308 -0.3284
   60DOPE   O12 7626   6.950   7.383  12.730 -0.5451  0.4428  1.0609
   60DOPE    C1 7627   6.823   7.154  12.832 -0.2517 -0.0080  0.3108
   60DOPE    HA 7628   6.776   7.054  12.847 -1.9057  0.7211  0.1428
   60DOPE    HB 7629   6.745   7.191  12.762  0.0616  1.4256  0.7031
   60DOPE    C2 7630   6.818   7.227  12.964 -0.6565  0.1749  0.0366
   60DOPE    HS 7631   6.836   7.336  12.958  1.9105 -0.1507  0.4393
   60DOPE   O21 7632   6.915   7.164  13.059  0.6292  0.2508  0.2679
   60DOPE   C21 7633   7.030   7.234  13.071 -0.2671 -0.2178 -0.2124
   60DOPE   O22 7634   7.056   7.341  13.014 -0.0377 -0.0679 -0.4623
   60DOPE   C22 7635   7.126   7.159  13.155 -0.4948  0.4423  0.3167
   60DOPE   H2R 7636   7.229   7.193  13.130 -0.1046 -1.0540 -0.2042
   60DOPE   H2S 7637   7.115   7.049  13.149  0.1490  0.4106 -0.4831
   60DOPE    C3 7638   6.669   7.226  13.020 -0.2585 -0.1999  0.0098
   60DOPE    HX 7639   6.609   7.296  12.958  0.6695  2.8400  2.2927
   60DOPE    HY 7640   6.672   7.277  13.119  1.2592 -0.0719 -0.0909
   60DOPE   O31 7641   6.615   7.096  13.030  0.5111  0.1478 -0.2593
   60DOPE   C31 7642   6.532   7.079  13.139 -0.8969 -0.1150 -0.0699
   60DOPE   O32 7643   6.478   7.173  13.198 -0.3118 -0.1968 -0.0674
   60DOPE   C32 7644   6.547   6.929  13.189 -0.1381  0.2049 -0.2938
   60DOPE   H2X 7645   6.625   6.883  13.125 -1.1460  0.7605 -2.0002
   60DOPE   H2Y 7646   6.578   6.927  13.296 -1.1468 -0.4065 -0.0042
   60DOPE   C23 7647   7.094   7.176  13.305  0.6690  0.0212 -0.0259
   60DOPE   H3R 7648   7.083   7.286  13.315 -0.9709 -0.2488  1.6460
   60DOPE   H3S 7649   7.172   7.135  13.372  0.2650 -0.0698  0.4000
   60DOPE   C24 7650   6.959   7.100  13.342  0.5468 -0.1362  0.4674
   60DOPE   H4R 7651   6.973   6.990  13.350  0.0755 -0.1742  0.8311
   60DOPE   H4S 7652   6.878   7.127  13.270  1.2619  0.4561 -0.1334
   60DOPE   C25 7653   6.900   7.125  13.486  0.1023  0.0367  0.6137
   60DOPE   H5R 7654   6.983   7.111  13.558  0.1421 -1.6028  0.2842
   60DOPE   H5S 7655   6.815   7.055  13.503 -0.5205  0.7355  0.4393
   60DOPE   C26 7656   6.849   7.270  13.503 -0.0918 -0.1284 -0.0085
   60DOPE   H6R 7657   6.771   7.284  13.425  0.7975 -0.1522 -0.9349
   60DOPE   H6S 7658   6.938   7.332  13.480 -0.2215 -0.3817 -1.3084
   60DOPE   C27 7659   6.795   7.309  13.642  0.0075 -0.3567  0.0639
   60DOPE   H7R 7660   6.790   7.420  13.645 -0.7948 -0.3949  0.7855
   60DOPE   H7S 7661   6.868   7.274  13.719 -0.0768 -0.3451  0.1492
   60DOPE   C28 7662   6.656   7.249  13.673  0.0216 -0.7318  0.0048
   60DOPE   H8R 7663   6.661   7.138  13.677 -1.9871 -0.8247  1.1855
   60DOPE   H8S 7664   6.581   7.280  13.597  1.2494 -0.2693 -1.0412
   60DOPE   C29 7665   6.614   7.301  13.811 -0.1789  0.3025  0.0928
   60DOPE   H9R 7666   6.563   7.398  13.807  0.7006  0.7685  0.0669
   60DOPE  C210 7667   6.646   7.244  13.927  0.5811  0.1586  0.6712
   60DOPE  H10R 7668   6.617   7.302  14.016  2.6622  0.9683  0.8848
   60DOPE  C211 7669   6.732   7.128  13.947 -0.0906  0.3976  0.0950
   60DOPE  H11R 7670   6.823   7.172  13.991  0.8902 -0.2492 -1.2033
   60DOPE  H11S 7671   6.767   7.074  13.856  1.4044  1.8103 -0.1980
   60DOPE  C212 7672   6.683   7.017  14.045  0.2814 -0.2340 -0.9636
   60DOPE  H12R 7673   6.598   6.964  13.997  0.0769 -0.1349 -0.7159
   60DOPE  H12S 7674   6.648   7.059  14.142 -0.5084 -0.7578 -1.0140
   60DOPE  C213 7675   6.787   6.920  14.070  0.3728 -0.1418 -0.2754
   60DOPE  H13R 7676   6.886   6.969  14.079  0.1614  0.6538 -2.0410
   60DOPE  H13S 7677   6.800   6.846  13.988 -0.8103 -0.0773 -0.5329
   60DOPE  C214 7678   6.758   6.836  14.196  0.8776 -0.5385  0.0157
   60DOPE  H14R 7679   6.771   6.904  14.283 -1.8299  1.7905 -1.2538
   60DOPE  H14S 7680   6.839   6.760  14.204  3.0475  1.2965 -2.4831
   60DOPE  C215 7681   6.619   6.776  14.194  0.2890 -0.4762  0.3340
   60DOPE  H15R 7682   6.589   6.747  14.091  2.4558 -3.2362  0.3711
   60DOPE  H15S 7683   6.537   6.841  14.233  0.5404  2.0529 -2.8661
   60DOPE  C216 7684   6.616   6.645  14.266 -0.6691  0.1449  0.6106
   60DOPE  H16R 7685   6.644   6.663  14.372 -0.5005  0.4771  0.5115
   60DOPE  H16S 7686   6.700   6.588  14.221  0.8948  0.6808  2.7000
   60DOPE  C217 7687   6.488   6.556  14.255  0.0006 -0.2264  0.4834
   60DOPE  H17R 7688   6.401   6.617  14.223 -0.3124 -0.7593  0.2902
   60DOPE  H17S 7689   6.467   6.525  14.360  0.1844  0.3978  0.7083
   60DOPE  C218 7690   6.496   6.452  14.139 -0.0718  0.3530 -0.0325
   60DOPE  H18R 7691   6.397   6.412  14.111 -0.4704 -0.6344  2.5907
   60DOPE  H18S 7692   6.557   6.364  14.170  1.2069  1.2739  0.1807
   60DOPE  H18T 7693   6.533   6.497  14.044 -0.9519  0.4706 -0.3206
   60DOPE   C33 7694   6.424   6.844  13.168 -0.0463  0.7190  0.6916
   60DOPE   H3X 7695   6.455   6.740  13.192  1.4819  1.0050  0.0745
   60DOPE   H3Y 7696   6.396   6.839  13.060 -1.6908 -1.7582  1.1615
   60DOPE   C34 7697   6.304   6.894  13.242  1.0917 -0.4359 -0.2626
   60DOPE   H4X 7698   6.334   6.911  13.348  0.0097  0.2372 -0.0536
   60DOPE   H4Y 7699   6.275   6.990  13.194  1.5620  0.4246  1.1009
   60DOPE   C35 7700   6.192   6.797  13.236 -0.2581 -0.0749 -0.5317
   60DOPE   H5X 7701   6.229   6.699  13.271  0.8246  0.8357  0.9966
   60DOPE   H5Y 7702   6.152   6.798  13.132 -1.4900 -0.5834 -0.0813
   60DOPE   C36 7703   6.077   6.835  13.329 -0.0856  0.2796  0.2836
   60DOPE   H6X 7704   6.012   6.907  13.274 -0.2783 -1.0257 -1.2680
   60DOPE   H6Y 7705   6.102   6.892  13.421 -0.8693  0.4018  0.4290
   60DOPE   C37 7706   5.975   6.722  13.347 -0.4681 -0.0645 -0.4372
   60DOPE   H7X 7707   5.878   6.757  13.389 -0.3119 -2.0050  1.7375
   60DOPE   H7Y 7708   5.964   6.674  13.248 -3.3173 -0.4249 -0.0332
   60DOPE   C38 7709   6.028   6.609  13.442  0.4150  0.2884 -0.0296
   60DOPE   H8X 7710   6.136   6.587  13.425  1.2838  1.9987  2.7009
   60DOPE   H8Y 7711   5.959   6.524  13.421 -0.7883  1.4185 -0.7705
   60DOPE   C39 7712   6.020   6.657  13.587  0.7794  0.1267  0.0280
   60DOPE   H9X 7713   6.056   6.759  13.609 -0.6860  0.5948  0.3856
   60DOPE  C310 7714   5.975   6.585  13.687  0.2651  0.7203 -0.8992
   60DOPE  H10X 7715   5.973   6.631  13.787  1.1783 -1.0053 -0.0622
   60DOPE  C311 7716   5.921   6.439  13.688  0.0220 -0.4908  0.7548
   60DOPE  H11X 7717   5.842   6.412  13.761 -0.8463 -1.8269 -0.6002
   60DOPE  H11Y 7718   5.875   6.414  13.589  0.0953  1.2655  0.2542
   60DOPE  C312 7719   6.039   6.345  13.700  0.3377 -0.3216  0.2037
   60DOPE  H12X 7720   6.091   6.337  13.798  0.2733 -0.5099  0.2234
   60DOPE  H12Y 7721   6.117   6.376  13.626  1.2982 -1.9466  0.4776
   60DOPE  C313 7722   5.994   6.202  13.659  0.1384  0.6509 -0.5113
   60DOPE  H13X 7723   5.926   6.161  13.737  1.3629 -2.1445 -0.8149
   60DOPE  H13Y 7724   5.949   6.202  13.558 -0.8458 -1.3726 -0.1226
   60DOPE  C314 7725   6.108   6.095  13.658  0.4099  0.2654  0.0163
   60DOPE  H14X 7726   6.207   6.132  13.621  0.4086 -1.0529 -1.4182
   60DOPE  H14Y 7727   6.091   6.017  13.581 -1.3536 -0.4312  1.0798
   60DOPE  C315 7728   6.129   6.026  13.795  0.3893  0.8082  0.9567
   60DOPE  H15X 7729   6.195   5.940  13.773 -0.5808  0.8417 -2.7493
   60DOPE  H15Y 7730   6.033   5.978  13.824  0.2406  1.7559  2.1147
   60DOPE  C316 7731   6.190   6.120  13.903 -0.5762 -0.4196  0.4921
   60DOPE  H16X 7732   6.102   6.165  13.953 -2.7807 -3.0722 -0.7264
   60DOPE  H16Y 7733   6.253   6.197  13.854  0.8215 -1.8336 -0.0196
   60DOPE  C317 7734   6.265   6.045  14.009  0.1790  0.0250 -0.1566
   60DOPE  H17X 7735   6.187   5.978  14.050 -2.7517  2.6566 -1.0512
   60DOPE  H17Y 7736   6.344   5.983  13.960 -1.0756 -0.0042 -2.2593
   60DOPE  C318 7737   6.319   6.133  14.120 -0.4961  0.1777  0.0596
   60DOPE  H18X 7738   6.340   6.068  14.208 -0.8434 -0.3431 -0.2325
   60DOPE  H18Y 7739   6.404   6.193  14.082 -0.1784  0.0910  0.6176
   60DOPE  H18Z 7740   6.247   6.214  14.143 -0.5928  0.3790 -0.9179
   6123SM     N 7741   3.432   4.599  17.585  0.2523  0.3175 -0.5600
   6123SM   C15 7742   3.493   4.467  17.592 -0.1041  0.1382 -0.9365
   6123SM  H15A 7743   3.520   4.448  17.695 -0.0526 -4.0246 -1.5357
   6123SM  H15B 7744   3.578   4.465  17.526  0.8417  4.4015 -0.1530
   6123SM  H15C 7745   3.427   4.386  17.564 -1.1922  0.4117  0.6794
   6123SM   C14 7746   3.320   4.593  17.680  0.2470 -0.0561 -0.2757
   6123SM  H14A 7747   3.276   4.691  17.685  0.0912 -0.0803 -0.9602
   6123SM  H14B 7748   3.373   4.565  17.770 -0.4690 -3.2076 -0.7247
   6123SM  H14C 7749   3.259   4.510  17.647  2.3401 -0.8935 -2.3492
   6123SM   C13 7750   3.539   4.698  17.631 -0.7767  0.6815  0.1135
   6123SM  H13A 7751   3.496   4.797  17.637  1.2807  1.6669 -0.3750
   6123SM  H13B 7752   3.627   4.691  17.568 -0.0191  0.8780  1.1278
   6123SM  H13C 7753   3.573   4.677  17.731 -0.9414 -1.5491 -0.2476
   6123SM   C12 7754   3.378   4.627  17.446 -0.0838  0.6703  0.8677
   6123SM  H12A 7755   3.302   4.704  17.445 -1.2734 -0.4701  0.0774
   6123SM  H12B 7756   3.316   4.544  17.416  1.1473 -0.0140  0.1401
   6123SM   C11 7757   3.481   4.640  17.328 -0.3260  0.1605  0.0340
   6123SM  H11A 7758   3.547   4.729  17.330  0.3892 -0.3328 -0.6045
   6123SM  H11B 7759   3.427   4.643  17.231 -1.2139  3.9585  0.5066
   6123SM     P 7760   3.704   4.512  17.258 -0.3067  0.2036  0.1889
   6123SM   O13 7761   3.800   4.594  17.336  0.6469  0.0257  0.1606
   6123SM   O14 7762   3.733   4.368  17.229 -0.2450 -0.4294 -0.2406
   6123SM   O11 7763   3.687   4.574  17.107 -0.1184  0.4878 -0.7906
   6123SM   O12 7764   3.561   4.519  17.324  0.0853 -0.1391  0.0009
   6123SM   C1S 7765   3.581   4.504  17.030 -0.1369 -0.1738 -0.7205
   6123SM   H1S 7766   3.482   4.505  17.081  0.5625 -2.1405  0.7882
   6123SM   H1T 7767   3.615   4.399  17.022  0.3075 -0.4451  2.8334
   6123SM    NF 7768   3.437   4.516  16.821 -0.4922  0.8132  0.1616
   6123SM   HNF 7769   3.444   4.446  16.750  0.8970  0.6304  0.4556
   6123SM   C2S 7770   3.563   4.565  16.886  0.3941 -0.1128  0.2773
   6123SM   H2S 7771   3.561   4.676  16.899  1.5226 -0.1922  1.3182
   6123SM   C3S 7772   3.696   4.536  16.806  0.0101 -0.5043 -0.0593
   6123SM   H3S 7773   3.717   4.427  16.809 -1.0706 -0.7095  0.1768
   6123SM    O3 7774   3.810   4.602  16.867 -0.2002  0.1205 -0.0513
   6123SM   HO3 7775   3.779   4.585  16.957  0.5477 -0.6263  0.0800
   6123SM   C4S 7776   3.677   4.583  16.659 -0.4012  0.9676 -0.0185
   6123SM   H4S 7777   3.629   4.502  16.603  0.6372 -0.7604  1.4637
   6123SM   C5S 7778   3.698   4.707  16.612 -0.2386  0.7373 -0.3866
   6123SM   H5S 7779   3.732   4.785  16.681  0.2740  1.1075 -1.0508
   6123SM   C6S 7780   3.673   4.744  16.464  0.4473  0.6567 -0.4100
   6123SM   H6S 7781   3.712   4.660  16.401 -0.3450  0.3490 -0.4981
   6123SM   H6T 7782   3.737   4.832  16.439  1.9859 -0.8773 -2.2237
   6123SM   C7S 7783   3.532   4.796  16.437 -0.4292  0.3350  0.1033
   6123SM   H7S 7784   3.522   4.882  16.508  0.0659  1.0940 -0.7330
   6123SM   H7T 7785   3.457   4.714  16.446  1.9960 -2.0553 -0.0516
   6123SM   C8S 7786   3.511   4.865  16.303 -0.0453 -0.6551 -0.0378
   6123SM   H8S 7787   3.576   4.954  16.293  2.3755 -2.0842  1.9599
   6123SM   H8T 7788   3.406   4.900  16.305 -0.9030 -3.0713  0.6586
   6123SM   C9S 7789   3.512   4.772  16.186 -0.0911  0.4604 -0.3989
   6123SM   H9S 7790   3.426   4.704  16.202  2.6354 -2.9508  1.1021
   6123SM   H9T 7791   3.614   4.729  16.170  0.3074  1.7621 -1.5863
   6123SM  C10S 7792   3.484   4.840  16.049 -0.0327  0.7059  0.3014
   6123SM  H10S 7793   3.569   4.908  16.026 -0.4214  1.0329 -0.2066
   6123SM  H10T 7794   3.386   4.892  16.053 -0.7544 -0.6870  1.3462
   6123SM  C11S 7795   3.487   4.732  15.934 -0.1728 -0.1439  0.0909
   6123SM  H11S 7796   3.420   4.650  15.966  1.5550 -1.3660  0.6965
   6123SM  H11T 7797   3.587   4.683  15.926  0.8167  1.8300 -0.3400
   6123SM  C12S 7798   3.453   4.802  15.800  0.0645 -0.1056  0.6112
   6123SM  H12S 7799   3.363   4.867  15.810 -0.5942 -0.6336 -1.3312
   6123SM  H12T 7800   3.429   4.724  15.724  0.8369 -0.7568  1.0186
   6123SM  C13S 7801   3.564   4.893  15.748 -0.7621  0.3807  0.1434
   6123SM  H13S 7802   3.655   4.862  15.804 -0.8629 -0.8382 -0.3220
   6123SM  H13T 7803   3.537   4.995  15.782 -1.4341  0.0905  0.4873
   6123SM  C14S 7804   3.590   4.873  15.606  0.0084  0.1761  0.4019
   6123SM  H14S 7805   3.602   4.764  15.587 -2.4332  0.3857 -3.6703
   6123SM  H14T 7806   3.691   4.915  15.587 -0.2859  0.0118 -1.9139
   6123SM  C15S 7807   3.480   4.916  15.512 -0.2476 -0.6200  0.4350
   6123SM  H15S 7808   3.465   5.019  15.552  0.6540 -0.4670  0.3866
   6123SM  H15T 7809   3.389   4.854  15.531  0.4539 -1.8948 -0.2086
   6123SM  C16S 7810   3.514   4.911  15.361 -0.0002 -0.5184  0.0854
   6123SM  H16S 7811   3.602   4.975  15.340 -1.6121  1.8670  0.2655
   6123SM  H16T 7812   3.434   4.961  15.303  0.2616 -0.4639 -0.2340
   6123SM  C17S 7813   3.540   4.777  15.285 -0.6964 -0.5989 -0.2745
   6123SM  H17S 7814   3.449   4.714  15.293 -0.9588 -0.4651 -1.8242
   6123SM  H17T 7815   3.628   4.723  15.327 -0.3193  0.9944  1.0486
   6123SM  C18S 7816   3.558   4.799  15.135  0.4039 -0.9937  0.0605
   6123SM  H18S 7817   3.571   4.707  15.074  0.5123  0.2327 -1.8379
   6123SM  H18T 7818   3.651   4.857  15.118 -0.3776  0.3650  0.3407
   6123SM  H18U 7819   3.477   4.863  15.094 -0.2572 -0.2032  2.4327
   6123SM   C1F 7820   3.319   4.538  16.875 -0.1503 -0.3040 -0.3875
   6123SM    OF 7821   3.303   4.627  16.957  0.0265  0.0079  0.3659
   6123SM   C2F 7822   3.208   4.453  16.842  0.1881  0.6556  0.1093
   6123SM   H2F 7823   3.189   4.387  16.929 -1.4182  0.3832 -0.4166
   6123SM   H2G 7824   3.233   4.386  16.756 -0.7820 -0.2841  0.5503
   6123SM   C3F 7825   3.084   4.527  16.805  0.1035 -0.4181 -0.2120
   6123SM   H3F 7826   3.062   4.613  16.872  0.8433 -0.7430  0.4530
   6123SM   H3G 7827   2.999   4.456  16.816 -0.5581  0.5997  1.8007
   6123SM   C4F 7828   3.089   4.591  16.659  0.0911 -0.1133 -0.2739
   6123SM   H4F 7829   2.985   4.611  16.624 -0.6497  1.2403  2.3745
   6123SM   H4G 7830   3.153   4.519  16.604  1.0637  0.1502  0.4870
   6123SM   C5F 7831   3.144   4.734  16.667  0.3511 -0.4759 -0.0634
   6123SM   H5F 7832   3.242   4.735  16.720 -1.6623 -1.9739  4.0445
   6123SM   H5G 7833   3.076   4.800  16.724 -0.2950 -0.2195 -1.0930
   6123SM   C6F 7834   3.157   4.816  16.534  0.1999  0.5950 -0.3981
   6123SM   H6F 7835   3.202   4.751  16.457 -0.8246  0.7177 -1.1162
   6123SM   H6G 7836   3.213   4.909  16.560 -1.1375  1.1297  0.7056
   6123SM   C7F 7837   3.031   4.867  16.484 -0.1541 -0.0036  0.4331
   6123SM   H7F 7838   2.989   4.940  16.557 -0.8582 -1.2492  1.3212
   6123SM   H7G 7839   2.966   4.778  16.501 -0.9005  0.9060  2.8254
   6123SM   C8F 7840   3.030   4.928  16.338  0.2051 -0.4204  0.0070
   6123SM   H8F 7841   3.088   5.022  16.347 -0.2955 -0.1582  0.6957
   6123SM   H8G 7842   2.924   4.959  16.322 -0.0309 -0.4949  1.2502
   6123SM   C9F 7843   3.079   4.837  16.230 -0.4553  0.0998 -0.0327
   6123SM   H9F 7844   3.040   4.737  16.259  0.1475 -0.1574 -0.0896
   6123SM   H9G 7845   3.189   4.829  16.226 -0.4943 -0.7638  0.3947
   6123SM  C10F 7846   3.033   4.866  16.090  0.3008 -0.3307  0.9852
   6123SM  H10F 7847   3.072   4.964  16.054  2.3296 -1.7972 -0.9945
   6123SM  H10G 7848   2.923   4.875  16.079  0.4355 -1.8057 -3.0366
   6123SM  C11F 7849   3.068   4.767  15.976 -0.1779 -0.5221 -0.6923
   6123SM  H11F 7850   3.026   4.669  16.007 -0.0184  0.2761  2.3661
   6123SM  H11G 7851   3.177   4.755  15.959 -0.2050 -4.0174  0.8356
   6123SM  C12F 7852   3.027   4.830  15.843  0.3680 -0.3148  0.0352
   6123SM  H12F 7853   3.070   4.929  15.816 -0.5500  0.1304  0.1829
   6123SM  H12G 7854   2.916   4.832  15.843  0.3161 -1.6958 -0.8893
   6123SM  C13F 7855   3.062   4.739  15.721 -0.8262  0.5204 -0.0658
   6123SM  H13F 7856   3.031   4.636  15.748 -0.3568  0.1927 -0.7509
   6123SM  H13G 7857   3.172   4.728  15.716 -0.2383  3.3029  3.0010
   6123SM  C14F 7858   3.021   4.796  15.586 -0.1079  0.3216  0.2003
   6123SM  H14F 7859   3.058   4.901  15.585 -1.2047  0.7284  0.7449
   6123SM  H14G 7860   2.910   4.805  15.591 -0.1956 -0.7363  0.3617
   6123SM  C15F 7861   3.060   4.710  15.459 -0.4051  0.2386  0.3083
   6123SM  H15F 7862   3.033   4.603  15.472  0.8474 -0.1318 -0.0099
   6123SM  H15G 7863   3.171   4.713  15.451 -0.4432 -0.1227 -0.4124
   6123SM  C16F 7864   3.008   4.764  15.324  0.3783  0.0012 -0.6524
   6123SM  H16F 7865   3.034   4.872  15.314 -2.1286  0.7439 -0.0377
   6123SM  H16G 7866   2.897   4.774  15.320  0.3993  0.4563 -0.1817
   6123SM  C17F 7867   3.046   4.681  15.200  0.6966 -0.0390  0.5107
   6123SM  H17F 7868   2.982   4.720  15.118 -1.2458 -0.4493  1.7862
   6123SM  H17G 7869   3.022   4.573  15.212 -0.8108  0.0402 -1.3443
   6123SM  C18F 7870   3.196   4.689  15.171 -0.1316 -0.0160  0.4481
   6123SM  H18F 7871   3.259   4.647  15.252  0.7613  1.1111  0.3666
   6123SM  H18G 7872   3.216   4.798  15.171 -0.5102  0.0628 -0.3267
   6123SM  C19F 7873   3.243   4.663  15.028  0.6910  0.1035  0.5214
   6123SM  H19F 7874   3.355   4.663  15.029  0.8065  2.1622 -1.8040
   6123SM  H19G 7875   3.205   4.738  14.956 -1.5155  0.1183  1.6297
   6123SM  C20F 7876   3.208   4.524  14.976 -0.3533  0.0580  0.0829
   6123SM  H20F 7877   3.252   4.511  14.875  1.1571 -1.4090  0.8908
   6123SM  H20G 7878   3.098   4.522  14.959 -0.4319 -0.2202  0.6192
   6123SM  C21F 7879   3.249   4.404  15.068 -0.2452  0.4538  0.7511
   6123SM  H21F 7880   3.221   4.403  15.175 -0.3994 -1.4895  0.7204
   6123SM  H21G 7881   3.359   4.391  15.066 -0.4456 -1.6201  0.7735
   6123SM  C22F 7882   3.197   4.272  15.009  0.3847 -0.1678  0.1185
   6123SM  H22F 7883   3.241   4.261  14.907  0.7158 -0.5569  0.3027
   6123SM  H22G 7884   3.086   4.268  15.011  0.4102 -3.9881  0.0212
   6123SM  C23F 7885   3.252   4.146  15.081  0.0150 -0.4329 -0.3119
   6123SM  H23F 7886   3.357   4.151  15.118 -0.2952 -1.5938  0.7993
   6123SM  H23G 7887   3.267   4.058  15.015  1.3702  0.1083 -0.7635
   6123SM  H23H 7888   3.177   4.135  15.162  0.1729  2.4871  0.3192
   6223SM     N 7889   3.300   3.543  17.184  0.4026  0.7000  1.1117
   6223SM   C15 7890   3.307   3.557  17.332 -0.7517 -0.4239  0.6609
   6223SM  H15A 7891   3.287   3.658  17.364 -1.0454 -0.4100  0.4333
   6223SM  H15B 7892   3.406   3.534  17.369  0.4588 -0.1956 -2.2092
   6223SM  H15C 7893   3.226   3.500  17.375  0.9930 -1.6528  2.5805
   6223SM   C14 7894   3.318   3.396  17.147 -0.3388  0.0903 -0.3607
   6223SM  H14A 7895   3.340   3.386  17.042 -0.2715  2.1772 -0.5706
   6223SM  H14B 7896   3.226   3.348  17.175 -0.2437  0.8060  1.3354
   6223SM  H14C 7897   3.389   3.337  17.203 -0.6667  0.8757  0.9116
   6223SM   C13 7898   3.158   3.571  17.141 -0.0363  0.0206  0.8569
   6223SM  H13A 7899   3.126   3.666  17.182 -2.8293  0.3900 -1.7976
   6223SM  H13B 7900   3.086   3.495  17.166  0.7139 -0.6335  1.0436
   6223SM  H13C 7901   3.152   3.605  17.038  0.5787 -0.9320  0.5007
   6223SM   C12 7902   3.410   3.619  17.113  0.2214 -0.6159 -0.0774
   6223SM  H12A 7903   3.503   3.619  17.168 -0.0859  1.4211  0.5377
   6223SM  H12B 7904   3.382   3.723  17.130 -0.0422 -0.2319 -2.4925
   6223SM   C11 7905   3.439   3.602  16.969 -0.4024 -0.2699  0.2639
   6223SM  H11A 7906   3.459   3.493  16.955 -2.2771 -0.5302 -0.7392
   6223SM  H11B 7907   3.535   3.653  16.946 -0.6888 -0.3486 -1.2070
   6223SM     P 7908   3.318   3.785  16.830  0.5589  0.0144  0.5452
   6223SM   O13 7909   3.176   3.834  16.836  0.2629 -0.1219  0.4176
   6223SM   O14 7910   3.426   3.875  16.885  0.1673  0.1669  0.3851
   6223SM   O11 7911   3.350   3.751  16.682 -0.8334 -0.3189  0.1200
   6223SM   O12 7912   3.329   3.638  16.889  0.3068 -0.1427 -0.2418
   6223SM   C1S 7913   3.372   3.863  16.587  0.6687  0.6692 -0.0317
   6223SM   H1S 7914   3.387   3.964  16.631  0.8497  1.3560 -1.6191
   6223SM   H1T 7915   3.293   3.870  16.509  1.6789  1.7091 -0.9808
   6223SM    NF 7916   3.544   3.945  16.411 -1.1821 -0.6978 -0.1290
   6223SM   HNF 7917   3.502   3.960  16.322  0.9651  0.3140 -1.0389
   6223SM   C2S 7918   3.496   3.829  16.488 -0.3013  0.0497 -0.1617
   6223SM   H2S 7919   3.579   3.808  16.558 -0.1009 -2.8937 -1.1556
   6223SM   C3S 7920   3.484   3.694  16.409 -0.3961 -0.5184  0.2527
   6223SM   H3S 7921   3.406   3.695  16.329 -0.7678  0.6796  0.6026
   6223SM    O3 7922   3.442   3.592  16.492 -0.2112 -0.4351 -0.1543
   6223SM   HO3 7923   3.400   3.644  16.562  1.4581 -1.7700  1.9556
   6223SM   C4S 7924   3.613   3.643  16.357  0.0596 -0.0595 -0.3534
   6223SM   H4S 7925   3.663   3.571  16.422 -0.7821  0.5683  1.0411
   6223SM   C5S 7926   3.673   3.657  16.244  0.3605 -0.3767  0.2484
   6223SM   H5S 7927   3.622   3.722  16.171  0.6752 -0.6196 -0.1890
   6223SM   C6S 7928   3.790   3.571  16.194 -0.6789 -0.1956 -0.5954
   6223SM   H6S 7929   3.746   3.545  16.095 -0.4564 -2.5255 -0.1441
   6223SM   H6T 7930   3.820   3.479  16.249 -0.7110 -0.7041 -1.4153
   6223SM   C7S 7931   3.922   3.645  16.169 -0.0296 -0.0646  0.0502
   6223SM   H7S 7932   3.985   3.658  16.259 -0.9258  1.4894  0.4980
   6223SM   H7T 7933   3.906   3.755  16.155  2.1727  0.3412  0.2325
   6223SM   C8S 7934   3.995   3.584  16.048  0.2397 -0.3349 -0.0651
   6223SM   H8S 7935   3.945   3.614  15.954 -0.6090 -1.1898  0.0988
   6223SM   H8T 7936   3.988   3.474  16.057  0.8906 -0.3908 -0.1539
   6223SM   C9S 7937   4.148   3.621  16.031  0.4529 -0.2229  0.6785
   6223SM   H9S 7938   4.200   3.608  16.128  1.9205  1.3314  0.1500
   6223SM   H9T 7939   4.144   3.726  15.995 -0.8113 -0.8756 -1.2507
   6223SM  C10S 7940   4.215   3.536  15.915 -0.0616  0.3777  0.2770
   6223SM  H10S 7941   4.139   3.520  15.835 -1.6254 -0.4602  1.8634
   6223SM  H10T 7942   4.239   3.440  15.967 -1.5612 -0.1931 -0.0384
   6223SM  C11S 7943   4.361   3.579  15.874 -0.1571  0.4033  0.4072
   6223SM  H11S 7944   4.443   3.572  15.949  0.2854 -0.6783 -0.1444
   6223SM  H11T 7945   4.353   3.686  15.847 -1.0807 -0.2013 -1.9282
   6223SM  C12S 7946   4.404   3.502  15.742  0.1752 -0.3536 -0.9542
   6223SM  H12S 7947   4.332   3.541  15.667 -0.1479  1.0283  0.0442
   6223SM  H12T 7948   4.378   3.395  15.757  1.6918 -0.5089  1.0591
   6223SM  C13S 7949   4.552   3.526  15.696 -0.2178  0.6069 -0.0730
   6223SM  H13S 7950   4.610   3.463  15.767 -0.5131  1.5900  1.0851
   6223SM  H13T 7951   4.561   3.635  15.712  1.4426  0.7405 -1.6617
   6223SM  C14S 7952   4.592   3.492  15.554  0.1932 -0.1083  0.0509
   6223SM  H14S 7953   4.569   3.385  15.534  0.8332  0.0311 -1.6326
   6223SM  H14T 7954   4.703   3.498  15.542  0.7157 -3.6716  1.6291
   6223SM  C15S 7955   4.526   3.574  15.446  0.0949  0.4616  0.0410
   6223SM  H15S 7956   4.551   3.679  15.472  0.0067  1.0078 -1.9249
   6223SM  H15T 7957   4.415   3.573  15.449 -0.0526  0.5594 -2.7458
   6223SM  C16S 7958   4.576   3.531  15.303 -0.1222  0.0556  0.2064
   6223SM  H16S 7959   4.687   3.538  15.297 -0.1574  1.0365  0.5524
   6223SM  H16T 7960   4.537   3.605  15.230  3.2766  2.5236  0.6458
   6223SM  C17S 7961   4.536   3.396  15.271  0.1945  0.3837 -0.1750
   6223SM  H17S 7962   4.427   3.385  15.286  0.2995  0.0372  0.3551
   6223SM  H17T 7963   4.574   3.322  15.344 -1.0486 -0.0594  0.0441
   6223SM  C18S 7964   4.587   3.354  15.130 -0.1382 -0.5167 -0.5203
   6223SM  H18S 7965   4.535   3.425  15.062  0.5764  2.4540  1.8215
   6223SM  H18T 7966   4.569   3.245  15.112  0.7415 -0.4469 -1.9403
   6223SM  H18U 7967   4.697   3.364  15.138  0.0666 -2.1015 -1.0071
   6223SM   C1F 7968   3.605   4.053  16.463  0.6463 -0.9527  1.0269
   6223SM    OF 7969   3.609   4.066  16.584 -0.5759 -0.1535 -0.4155
   6223SM   C2F 7970   3.638   4.171  16.368  0.0469  0.0551  0.5320
   6223SM   H2F 7971   3.538   4.220  16.359  0.2016  0.5685  1.4340
   6223SM   H2G 7972   3.673   4.139  16.268 -1.8789  2.3429 -0.9875
   6223SM   C3F 7973   3.754   4.265  16.417 -0.0631  0.9909  0.1532
   6223SM   H3F 7974   3.839   4.195  16.429 -1.0831 -0.3283 -0.0766
   6223SM   H3G 7975   3.727   4.314  16.513 -1.6049  1.1756 -0.3344
   6223SM   C4F 7976   3.767   4.377  16.318 -0.7700 -0.1727 -0.6728
   6223SM   H4F 7977   3.686   4.453  16.320  0.1274  0.8037 -0.7190
   6223SM   H4G 7978   3.763   4.326  16.219 -1.2658  0.5647 -1.0421
   6223SM   C5F 7979   3.910   4.445  16.337  0.0233 -0.2088 -0.3965
   6223SM   H5F 7980   3.984   4.363  16.349 -1.8857 -1.6701  2.3095
   6223SM   H5G 7981   3.908   4.509  16.427 -2.3453 -1.8915  0.8347
   6223SM   C6F 7982   3.941   4.538  16.220 -0.0095  0.4324 -0.0352
   6223SM   H6F 7983   4.048   4.561  16.239 -0.6674  2.6219  1.3090
   6223SM   H6G 7984   3.886   4.634  16.228 -1.5884 -0.4543  0.2104
   6223SM   C7F 7985   3.917   4.477  16.083 -0.1190  0.5398  0.2733
   6223SM   H7F 7986   3.811   4.452  16.060 -0.0208  0.4004 -0.0440
   6223SM   H7G 7987   3.986   4.391  16.073  1.4937  1.7630  0.5551
   6223SM   C8F 7988   3.957   4.572  15.968 -0.1491  0.0220 -0.1805
   6223SM   H8F 7989   4.055   4.620  15.988 -0.4928  0.3681  0.7400
   6223SM   H8G 7990   3.883   4.653  15.953 -1.9829 -1.5593 -0.2326
   6223SM   C9F 7991   3.953   4.489  15.840  0.0373 -0.5487  0.3249
   6223SM   H9F 7992   3.847   4.465  15.815  0.3810 -1.3587 -0.4208
   6223SM   H9G 7993   3.993   4.386  15.852  0.6646 -0.6816 -2.4235
   6223SM  C10F 7994   4.027   4.555  15.725 -0.5887 -0.0592 -0.2734
   6223SM  H10F 7995   4.029   4.489  15.636  1.2638 -1.2019  0.5739
   6223SM  H10G 7996   4.130   4.563  15.765 -0.4503 -1.3873 -0.3148
   6223SM  C11F 7997   3.972   4.693  15.684  0.0508  0.0464 -0.6696
   6223SM  H11F 7998   3.979   4.757  15.774  0.2313 -0.6911 -0.1465
   6223SM  H11G 7999   3.866   4.668  15.663 -0.1667 -2.0403  2.2802
   6223SM  C12F 8000   4.050   4.752  15.559  0.4352  0.7721  0.3731
   6223SM  H12F 8001   4.150   4.759  15.607 -0.1433  1.3339  1.5349
   6223SM  H12G 8002   4.018   4.858  15.545 -2.1492 -0.1953 -1.9253
   6223SM  C13F 8003   4.037   4.685  15.420 -0.2992 -0.1818  0.0881
   6223SM  H13F 8004   3.936   4.700  15.377  0.2917  3.3379 -0.3493
   6223SM  H13G 8005   4.053   4.576  15.429 -1.4997 -0.5034 -1.3513
   6223SM  C14F 8006   4.145   4.743  15.329 -0.2343 -0.1283 -0.7127
   6223SM  H14F 8007   4.245   4.725  15.375  0.5606  0.2388 -2.2304
   6223SM  H14G 8008   4.127   4.852  15.325  1.4195  0.1920 -0.1804
   6223SM  C15F 8009   4.145   4.674  15.194  0.2055  1.1517  0.1542
   6223SM  H15F 8010   4.055   4.708  15.139  0.5090 -0.5394 -1.4961
   6223SM  H15G 8011   4.139   4.563  15.202 -1.5394  1.0233 -2.0872
   6223SM  C16F 8012   4.267   4.724  15.118  0.3780 -0.3178 -0.2435
   6223SM  H16F 8013   4.360   4.686  15.165  0.3313  3.2467  3.2084
   6223SM  H16G 8014   4.252   4.832  15.134 -1.1530 -0.6108  0.4590
   6223SM  C17F 8015   4.271   4.690  14.970  0.3302 -0.0192  0.0953
   6223SM  H17F 8016   4.205   4.760  14.914  1.3976  0.1272 -1.0187
   6223SM  H17G 8017   4.233   4.586  14.954  0.8143 -1.0224  4.3262
   6223SM  C18F 8018   4.415   4.684  14.915 -0.2639  0.3485  0.1601
   6223SM  H18F 8019   4.468   4.604  14.971 -1.8928  0.0634  1.3892
   6223SM  H18G 8020   4.461   4.785  14.923 -1.1601  0.8481 -0.7736
   6223SM  C19F 8021   4.430   4.640  14.768  0.4679  0.6466 -0.4565
   6223SM  H19F 8022   4.408   4.735  14.714 -0.0716  0.5380 -0.4251
   6223SM  H19G 8023   4.350   4.567  14.745  0.1824  0.8536 -0.1192
   6223SM  C20F 8024   4.575   4.590  14.727 -0.3169  0.4290 -0.0025
   6223SM  H20F 8025   4.615   4.512  14.795  1.3375 -0.5795 -2.0270
   6223SM  H20G 8026   4.648   4.673  14.716  1.0869 -0.9250 -1.1291
   6223SM  C21F 8027   4.557   4.514  14.592 -0.2124  0.9758 -1.0600
   6223SM  H21F 8028   4.467   4.452  14.614  0.6025  1.0150  3.1081
   6223SM  H21G 8029   4.654   4.461  14.580 -0.6235  0.2173 -1.0878
   6223SM  C22F 8030   4.528   4.606  14.474  0.7136  0.6057  0.7042
   6223SM  H22F 8031   4.607   4.685  14.474 -0.2238  1.5644  1.1459
   6223SM  H22G 8032   4.435   4.664  14.492 -0.0308 -0.4140  0.2747
   6223SM  C23F 8033   4.534   4.541  14.341  0.7281 -0.6455 -0.5143
   6223SM  H23F 8034   4.547   4.624  14.269 -2.9788 -1.3736 -2.2482
   6223SM  H23G 8035   4.445   4.480  14.316 -0.0664 -0.0784  0.8418
   6223SM  H23H 8036   4.619   4.469  14.332  2.5234  1.1665  0.9458
   6323SM     N 8037   3.601   5.005  17.021  0.1991 -0.8692 -0.5290
   6323SM   C15 8038   3.536   5.003  16.886  0.4450 -0.3039 -0.2571
   6323SM  H15A 8039   3.506   4.904  16.854  1.8409 -0.2926 -1.7318
   6323SM  H15B 8040   3.611   5.040  16.817 -0.0676 -0.1255 -0.7197
   6323SM  H15C 8041   3.442   5.054  16.896  0.8167  0.6077 -1.2953
   6323SM   C14 8042   3.514   4.923  17.114 -0.1862 -0.1551 -0.2257
   6323SM  H14A 8043   3.424   4.976  17.140  1.0166  0.8091  2.2700
   6323SM  H14B 8044   3.566   4.924  17.208  1.4518  1.1148 -1.0970
   6323SM  H14C 8045   3.501   4.830  17.059 -0.8575  1.7034 -3.4971
   6323SM   C13 8046   3.737   4.933  17.011  0.5295 -0.3069  0.0944
   6323SM  H13A 8047   3.719   4.831  16.982 -1.8988  0.1106 -0.0013
   6323SM  H13B 8048   3.803   4.949  17.096  2.5350 -0.3828 -1.3648
   6323SM  H13C 8049   3.792   4.980  16.931 -1.1869  2.3900  0.3831
   6323SM   C12 8050   3.632   5.149  17.069  0.9167 -0.4872  0.5236
   6323SM  H12A 8051   3.695   5.202  16.999  1.8883 -0.1556  1.6262
   6323SM  H12B 8052   3.688   5.145  17.161  0.7841 -2.2899  0.5725
   6323SM   C11 8053   3.515   5.241  17.096  0.1470  0.2255  0.0197
   6323SM  H11A 8054   3.441   5.198  17.167  0.2610 -0.7490 -0.4473
   6323SM  H11B 8055   3.462   5.249  16.999 -0.5745  1.3200  0.4836
   6323SM     P 8056   3.629   5.478  17.071  0.0641  0.1245 -0.1992
   6323SM   O13 8057   3.712   5.559  17.167  0.2567 -0.6762  0.6141
   6323SM   O14 8058   3.699   5.405  16.959  0.3841 -0.2356  0.5694
   6323SM   O11 8059   3.506   5.545  17.001 -0.3365 -0.0770  0.1796
   6323SM   O12 8060   3.553   5.372  17.146  0.8525 -0.8101  0.3486
   6323SM   C1S 8061   3.524   5.606  16.867  0.0589  0.4600 -0.4199
   6323SM   H1S 8062   3.632   5.627  16.854  0.5054 -1.8207 -0.9094
   6323SM   H1T 8063   3.472   5.704  16.860  1.3414  1.1990 -0.0173
   6323SM    NF 8064   3.532   5.607  16.621  0.2332 -0.3366  0.3288
   6323SM   HNF 8065   3.451   5.652  16.584 -0.0041 -0.4707  0.6759
   6323SM   C2S 8066   3.497   5.517  16.738 -0.7977 -0.0095  0.3576
   6323SM   H2S 8067   3.567   5.431  16.735  0.1024  0.6726  1.3173
   6323SM   C3S 8068   3.351   5.465  16.734  0.1032  0.2592  0.4521
   6323SM   H3S 8069   3.282   5.551  16.742 -2.9072 -1.9246 -0.4136
   6323SM    O3 8070   3.317   5.382  16.843 -0.1064  0.3219 -0.3604
   6323SM   HO3 8071   3.388   5.395  16.906 -2.0647 -1.6325  2.4401
   6323SM   C4S 8072   3.329   5.387  16.607 -0.0127  0.0753 -0.2775
   6323SM   H4S 8073   3.283   5.447  16.528  1.4813 -0.4743 -1.6031
   6323SM   C5S 8074   3.352   5.256  16.582  0.5795 -0.4408 -0.3617
   6323SM   H5S 8075   3.400   5.194  16.659  1.5078 -0.8806 -1.2688
   6323SM   C6S 8076   3.336   5.175  16.454  0.2562 -0.4869  0.1336
   6323SM   H6S 8077   3.239   5.121  16.460  0.7994 -1.4494  0.7043
   6323SM   H6T 8078   3.420   5.102  16.444  1.8221  0.9575  1.9338
   6323SM   C7S 8079   3.332   5.264  16.330 -0.1751  0.1106 -0.2502
   6323SM   H7S 8080   3.425   5.324  16.323 -1.4050  2.0540 -0.7147
   6323SM   H7T 8081   3.245   5.333  16.331 -0.3812  0.0280  3.7800
   6323SM   C8S 8082   3.312   5.194  16.200  0.7163 -0.1643  0.6552
   6323SM   H8S 8083   3.230   5.121  16.215  0.4986  0.1301  0.8996
   6323SM   H8T 8084   3.408   5.139  16.194 -0.1111 -1.5615 -0.2359
   6323SM   C9S 8085   3.295   5.277  16.072 -0.2608  0.0308 -0.5404
   6323SM   H9S 8086   3.391   5.326  16.044  0.2974 -0.2625  0.7906
   6323SM   H9T 8087   3.229   5.362  16.100  1.3684  0.6545  1.6289
   6323SM  C10S 8088   3.233   5.202  15.955 -0.4208  0.2492 -0.3712
   6323SM  H10S 8089   3.128   5.176  15.979 -0.3732  0.1413 -0.2803
   6323SM  H10T 8090   3.294   5.110  15.944  0.7382  0.5713  2.6384
   6323SM  C11S 8091   3.253   5.279  15.824  0.3816 -0.4324 -0.2740
   6323SM  H11S 8092   3.356   5.322  15.818  0.7210 -1.0947  0.6448
   6323SM  H11T 8093   3.181   5.364  15.819  0.8829  0.1485  1.6743
   6323SM  C12S 8094   3.215   5.193  15.697 -0.2044  0.8108 -0.2258
   6323SM  H12S 8095   3.116   5.149  15.722 -0.2242  0.4013 -0.9795
   6323SM  H12T 8096   3.289   5.112  15.679 -0.2788  0.5620  0.5403
   6323SM  C13S 8097   3.196   5.276  15.582 -0.1638 -0.3443  1.0849
   6323SM  H13S 8098   3.283   5.338  15.553  0.8154 -2.1164  0.0543
   6323SM  H13T 8099   3.115   5.348  15.608  1.3831  0.9928  2.4618
   6323SM  C14S 8100   3.157   5.197  15.455 -0.1470 -0.2613  0.2873
   6323SM  H14S 8101   3.064   5.137  15.472 -0.7254  1.4339  4.3430
   6323SM  H14T 8102   3.241   5.133  15.423 -0.0035 -1.2271  2.4435
   6323SM  C15S 8103   3.124   5.288  15.330  0.4747  0.1337  0.0870
   6323SM  H15S 8104   3.204   5.364  15.316 -1.2405  2.1947  0.9739
   6323SM  H15T 8105   3.035   5.345  15.363 -0.6408 -1.9306  0.7885
   6323SM  C16S 8106   3.094   5.208  15.199  1.0682 -0.0861  0.4292
   6323SM  H16S 8107   3.046   5.275  15.124  0.7479 -2.1599 -1.3239
   6323SM  H16T 8108   3.015   5.134  15.225  1.3962 -1.0839 -1.2687
   6323SM  C17S 8109   3.213   5.128  15.134  0.7210 -0.6098 -0.1464
   6323SM  H17S 8110   3.273   5.069  15.207  2.4846  1.2001 -0.0444
   6323SM  H17T 8111   3.295   5.196  15.103 -0.6164  0.1641 -2.2013
   6323SM  C18S 8112   3.174   5.049  15.013 -0.2378  0.4631  0.0669
   6323SM  H18S 8113   3.105   4.969  15.047  2.0979 -1.4113  0.6185
   6323SM  H18T 8114   3.269   5.007  14.973  0.7709  0.4704  2.3303
   6323SM  H18U 8115   3.119   5.112  14.939 -0.6146 -1.3332 -1.2751
   6323SM   C1F 8116   3.658   5.639  16.591 -0.6508 -0.4701  0.5915
   6323SM    OF 8117   3.750   5.571  16.632  0.1394  0.0274 -0.1442
   6323SM   C2F 8118   3.670   5.750  16.484  0.1111 -0.1612 -0.4952
   6323SM   H2F 8119   3.624   5.839  16.531  0.9520 -0.3159  0.6694
   6323SM   H2G 8120   3.602   5.728  16.399 -0.0730 -1.0708 -0.1222
   6323SM   C3F 8121   3.813   5.789  16.439 -0.1391 -0.0892  0.2725
   6323SM   H3F 8122   3.869   5.699  16.404  1.1027  0.9010 -0.4158
   6323SM   H3G 8123   3.870   5.834  16.523  1.3973 -1.6555  0.1473
   6323SM   C4F 8124   3.812   5.891  16.322  0.3519 -0.1106  0.4050
   6323SM   H4F 8125   3.915   5.915  16.289  0.8810 -3.1552 -0.4666
   6323SM   H4G 8126   3.761   5.977  16.372  1.6697 -1.3713  4.2932
   6323SM   C5F 8127   3.743   5.851  16.195  0.2412 -0.7845  0.2935
   6323SM   H5F 8128   3.705   5.942  16.145 -1.1019 -2.4057 -1.8099
   6323SM   H5G 8129   3.656   5.786  16.217 -0.2029 -0.5230 -0.6360
   6323SM   C6F 8130   3.832   5.788  16.092 -0.6092  0.2827  0.4572
   6323SM   H6F 8131   3.864   5.691  16.137  0.2227  1.3351  2.2360
   6323SM   H6G 8132   3.927   5.846  16.082 -0.3859 -0.0303  0.7296
   6323SM   C7F 8133   3.754   5.768  15.960  0.1150  0.0597  0.0607
   6323SM   H7F 8134   3.675   5.845  15.953 -2.9939 -2.9227 -0.2492
   6323SM   H7G 8135   3.686   5.680  15.962  1.4856 -1.0813 -1.0053
   6323SM   C8F 8136   3.840   5.772  15.832 -0.9839  0.4119  0.3174
   6323SM   H8F 8137   3.898   5.678  15.834 -2.0918 -0.2943 -0.1389
   6323SM   H8G 8138   3.918   5.851  15.844  0.5650 -1.2749  2.1378
   6323SM   C9F 8139   3.772   5.778  15.698 -0.1060 -1.0569  0.0357
   6323SM   H9F 8140   3.709   5.869  15.698 -0.6783 -1.4391 -0.9485
   6323SM   H9G 8141   3.707   5.688  15.694 -1.0783 -0.6152  3.1232
   6323SM  C10F 8142   3.868   5.781  15.581 -0.2453  0.5051 -0.5314
   6323SM  H10F 8143   3.930   5.690  15.586 -0.8654  0.1164  0.5721
   6323SM  H10G 8144   3.935   5.869  15.586  0.3580 -0.0343  2.1291
   6323SM  C11F 8145   3.786   5.780  15.456  0.8158  0.3373 -0.0615
   6323SM  H11F 8146   3.719   5.867  15.440  1.6832  0.6398 -2.5121
   6323SM  H11G 8147   3.725   5.687  15.461  0.9364  0.3244  2.8961
   6323SM  C12F 8148   3.877   5.750  15.337  0.4593 -0.4185 -0.8392
   6323SM  H12F 8149   3.939   5.660  15.354 -0.3544 -0.6099  1.3371
   6323SM  H12G 8150   3.948   5.835  15.345  1.5046 -1.4865  3.8423
   6323SM  C13F 8151   3.806   5.735  15.201 -0.2449 -0.5789  0.0867
   6323SM  H13F 8152   3.733   5.817  15.186  0.6750  0.3405  0.6038
   6323SM  H13G 8153   3.747   5.641  15.194 -2.2834  0.6531 -0.0251
   6323SM  C14F 8154   3.890   5.736  15.068 -0.5695 -0.1001  0.7320
   6323SM  H14F 8155   3.928   5.839  15.048 -1.2224  0.4894  2.3536
   6323SM  H14G 8156   3.827   5.706  14.982  0.6085 -1.4639  0.3241
   6323SM  C15F 8157   4.021   5.659  15.083 -0.4941 -0.0876 -0.4209
   6323SM  H15F 8158   3.995   5.567  15.140 -0.9526  0.3029  0.0012
   6323SM  H15G 8159   4.092   5.725  15.137 -0.3625  1.3613 -2.2740
   6323SM  C16F 8160   4.093   5.632  14.949 -0.1540 -0.7059  0.3034
   6323SM  H16F 8161   4.103   5.726  14.891  1.2717 -0.3643  1.0440
   6323SM  H16G 8162   4.041   5.555  14.888  1.1267 -0.4911 -1.1161
   6323SM  C17F 8163   4.232   5.560  14.958  0.6756 -0.1518 -0.1686
   6323SM  H17F 8164   4.288   5.579  14.864 -0.7986  0.3720 -0.9801
   6323SM  H17G 8165   4.217   5.450  14.970  2.0117 -0.7573 -2.9870
   6323SM  C18F 8166   4.316   5.622  15.062 -0.1390  0.1323 -0.6196
   6323SM  H18F 8167   4.254   5.613  15.153  1.7744 -1.9172  0.5681
   6323SM  H18G 8168   4.329   5.728  15.032  1.0364  0.4178  0.7898
   6323SM  C19F 8169   4.456   5.562  15.083  0.0799 -0.5499 -0.1866
   6323SM  H19F 8170   4.510   5.569  14.986  0.3237  2.2056  0.0774
   6323SM  H19G 8171   4.452   5.459  15.126 -0.6200  0.3718  2.1126
   6323SM  C20F 8172   4.550   5.658  15.168 -0.1063 -0.1401  0.0340
   6323SM  H20F 8173   4.548   5.757  15.118 -0.7596  1.6797  3.3775
   6323SM  H20G 8174   4.653   5.619  15.167  0.2798  0.7061  1.9046
   6323SM  C21F 8175   4.504   5.691  15.314 -0.0897 -0.0659  0.1388
   6323SM  H21F 8176   4.466   5.594  15.353 -1.0359  0.4957  0.6347
   6323SM  H21G 8177   4.418   5.761  15.321  0.0710 -0.0508  3.4375
   6323SM  C22F 8178   4.620   5.737  15.406  0.3403  0.4868 -0.6145
   6323SM  H22F 8179   4.703   5.669  15.375  0.2509 -0.2004  0.5918
   6323SM  H22G 8180   4.611   5.722  15.515  6.2526 -0.8864  0.0095
   6323SM  C23F 8181   4.687   5.872  15.383  0.7091  0.2655 -0.5031
   6323SM  H23F 8182   4.766   5.888  15.306  1.4082  0.9294  0.3193
   6323SM  H23G 8183   4.736   5.890  15.482  0.7895  0.0310 -0.4997
   6323SM  H23H 8184   4.612   5.952  15.368  0.1725 -0.6336 -3.1136
   6423SM     N 8185   5.788   4.133  17.105  0.3414  0.2711  0.3489
   6423SM   C15 8186   5.838   4.020  17.018 -0.4516 -0.3613  0.5235
   6423SM  H15A 8187   5.946   4.016  17.012 -0.3011 -1.8976  3.0091
   6423SM  H15B 8188   5.803   4.026  16.916 -1.3081 -2.1845  0.6837
   6423SM  H15C 8189   5.799   3.927  17.056  0.0025 -0.2999  1.1535
   6423SM   C14 8190   5.839   4.092  17.242  0.0219  0.3317  0.7537
   6423SM  H14A 8191   5.841   3.985  17.246  1.5993  0.2531 -0.9923
   6423SM  H14B 8192   5.783   4.140  17.321  1.3562  0.7087  1.5110
   6423SM  H14C 8193   5.946   4.105  17.238  0.1987 -1.2035 -1.3191
   6423SM   C13 8194   5.858   4.262  17.066 -0.2278  0.2226  0.4537
   6423SM  H13A 8195   5.829   4.290  16.966 -0.9689 -0.3199  0.5027
   6423SM  H13B 8196   5.965   4.253  17.066 -0.3194 -1.0874  0.5795
   6423SM  H13C 8197   5.839   4.342  17.135  1.6895  0.1622  1.1147
   6423SM   C12 8198   5.640   4.151  17.113 -0.3293  0.4559 -0.4109
   6423SM  H12A 8199   5.609   4.231  17.178 -0.8710  1.3590 -1.7254
   6423SM  H12B 8200   5.593   4.063  17.153  2.2369 -0.5425  0.5959
   6423SM   C11 8201   5.560   4.193  16.987 -0.8548  0.8859 -0.5519
   6423SM  H11A 8202   5.529   4.099  16.936  2.3098  0.7877 -2.5961
   6423SM  H11B 8203   5.635   4.258  16.936  1.1846  0.2542  1.4760
   6423SM     P 8204   5.303   4.217  17.052 -0.0962 -0.2286  0.0305
   6423SM   O13 8205   5.334   4.089  17.120  0.3604  0.1863  0.1147
   6423SM   O14 8206   5.223   4.324  17.118  0.0388  0.5112  0.4201
   6423SM   O11 8207   5.237   4.189  16.918  0.3407 -0.2804  0.3510
   6423SM   O12 8208   5.453   4.276  17.027  0.5107 -0.0547  0.2705
   6423SM   C1S 8209   5.273   4.258  16.795 -0.0093  0.1329 -1.1073
   6423SM   H1S 8210   5.349   4.336  16.819 -1.0464  1.0442 -0.7008
   6423SM   H1T 8211   5.190   4.317  16.752  2.7465  2.7852 -3.2146
   6423SM    NF 8212   5.385   4.239  16.573 -0.3305 -0.1282  0.1995
   6423SM   HNF 8213   5.317   4.234  16.500 -0.8673  0.5552  0.6306
   6423SM   C2S 8214   5.345   4.163  16.697  0.1447 -0.0141 -0.5305
   6423SM   H2S 8215   5.439   4.128  16.744  0.1525  1.3094  0.5329
   6423SM   C3S 8216   5.255   4.034  16.673  0.3848 -0.3483  0.9283
   6423SM   H3S 8217   5.155   4.076  16.648  0.1955 -1.2595  0.0561
   6423SM    O3 8218   5.235   3.949  16.786 -0.0852  0.8940  0.6565
   6423SM   HO3 8219   5.243   4.013  16.856 -0.0393 -0.9801  2.4553
   6423SM   C4S 8220   5.314   3.947  16.556  0.5466  0.3728 -0.3156
   6423SM   H4S 8221   5.422   3.959  16.545  0.2571  1.4217 -2.6086
   6423SM   C5S 8222   5.245   3.886  16.460 -0.1202 -0.6980  0.6182
   6423SM   H5S 8223   5.136   3.893  16.470 -0.1219  0.9790 -0.1549
   6423SM   C6S 8224   5.306   3.805  16.350 -0.1227 -0.1495  0.2520
   6423SM   H6S 8225   5.246   3.840  16.263 -2.7371  0.2406  2.1213
   6423SM   H6T 8226   5.284   3.696  16.354 -3.5384  0.4611  1.0656
   6423SM   C7S 8227   5.454   3.816  16.322 -0.6125 -0.6104 -0.4401
   6423SM   H7S 8228   5.517   3.755  16.390  1.9595  1.0041 -1.2215
   6423SM   H7T 8229   5.482   3.922  16.334 -2.4879 -0.2049  0.7946
   6423SM   C8S 8230   5.490   3.783  16.182 -0.5017  0.8202  0.0930
   6423SM   H8S 8231   5.429   3.841  16.109 -2.3977 -1.4285 -0.2429
   6423SM   H8T 8232   5.439   3.687  16.161 -1.5261  0.8807  2.0309
   6423SM   C9S 8233   5.637   3.792  16.139 -1.0594 -0.2845  0.2294
   6423SM   H9S 8234   5.691   3.883  16.173  2.2672 -0.9780 -2.6346
   6423SM   H9T 8235   5.642   3.813  16.030  2.2842  0.9820  0.5060
   6423SM  C10S 8236   5.713   3.666  16.162  0.3549 -0.8857 -0.1658
   6423SM  H10S 8237   5.653   3.582  16.120 -0.8467 -0.3058  0.3541
   6423SM  H10T 8238   5.735   3.653  16.270 -0.1618 -0.9799 -0.0728
   6423SM  C11S 8239   5.849   3.655  16.086 -0.4811  0.6622 -0.7573
   6423SM  H11S 8240   5.903   3.563  16.118  1.9131  2.2335 -0.0579
   6423SM  H11T 8241   5.914   3.741  16.112  0.6977  0.3288 -2.4003
   6423SM  C12S 8242   5.833   3.645  15.937  0.1968 -0.2278  0.2948
   6423SM  H12S 8243   5.808   3.739  15.885 -0.1995 -0.7462 -0.4734
   6423SM  H12T 8244   5.768   3.565  15.894  0.3129  0.7199 -1.7639
   6423SM  C13S 8245   5.981   3.619  15.879  1.5584 -0.5656  0.3174
   6423SM  H13S 8246   6.028   3.521  15.902  2.5443 -0.1057  0.3555
   6423SM  H13T 8247   6.042   3.701  15.922  2.3116  0.2413 -2.0865
   6423SM  C14S 8248   5.963   3.617  15.727  0.3127 -1.0583 -0.3332
   6423SM  H14S 8249   5.923   3.716  15.696 -2.0671 -2.0587 -0.6855
   6423SM  H14T 8250   5.877   3.551  15.702 -1.0898  0.6768 -0.2415
   6423SM  C15S 8251   6.090   3.585  15.654  0.3057  0.5282  0.5322
   6423SM  H15S 8252   6.109   3.478  15.678  0.6000 -0.0520 -1.9573
   6423SM  H15T 8253   6.177   3.642  15.692  0.6776  0.4970 -0.2500
   6423SM  C16S 8254   6.088   3.604  15.505 -0.7743 -0.1395 -0.5904
   6423SM  H16S 8255   6.085   3.714  15.489  3.9204  0.8955  3.2798
   6423SM  H16T 8256   5.995   3.559  15.464  0.1285 -2.1437 -0.5558
   6423SM  C17S 8257   6.222   3.557  15.432  0.3524 -0.1477 -0.5381
   6423SM  H17S 8258   6.221   3.589  15.326 -1.1698  0.5584 -0.3275
   6423SM  H17T 8259   6.230   3.447  15.436  2.0199 -0.1170 -1.8295
   6423SM  C18S 8260   6.342   3.621  15.491 -0.6192  0.2248 -0.2324
   6423SM  H18S 8261   6.382   3.583  15.587  0.5069 -0.5486 -0.9987
   6423SM  H18T 8262   6.334   3.732  15.498  1.8239  0.5592 -1.6836
   6423SM  H18U 8263   6.427   3.614  15.420 -0.2119  1.3414  0.1286
   6423SM   C1F 8264   5.479   4.330  16.567 -0.1573 -0.4788  0.0540
   6423SM    OF 8265   5.555   4.349  16.662  0.1217 -0.4017  0.0410
   6423SM   C2F 8266   5.497   4.400  16.439  0.4200 -0.2755 -0.2360
   6423SM   H2F 8267   5.589   4.462  16.444 -0.6293  1.2612  0.7982
   6423SM   H2G 8268   5.413   4.469  16.412 -0.1927 -1.1029 -0.4924
   6423SM   C3F 8269   5.511   4.294  16.321 -0.5066  0.2218 -0.4177
   6423SM   H3F 8270   5.407   4.268  16.294 -1.1059  1.5176  0.5244
   6423SM   H3G 8271   5.565   4.201  16.348 -0.0338  0.5015 -0.3701
   6423SM   C4F 8272   5.578   4.344  16.192  0.0340  0.2560 -0.2419
   6423SM   H4F 8273   5.685   4.368  16.208 -0.0043 -0.5386  1.3991
   6423SM   H4G 8274   5.524   4.435  16.158 -2.6816 -0.7900  1.0324
   6423SM   C5F 8275   5.578   4.244  16.080  0.6125 -0.0942  0.0264
   6423SM   H5F 8276   5.472   4.214  16.069  0.6152 -0.2533  0.4041
   6423SM   H5G 8277   5.637   4.156  16.113  1.1890 -0.3252 -1.5690
   6423SM   C6F 8278   5.647   4.277  15.948 -0.6258 -1.0461  0.4644
   6423SM   H6F 8279   5.741   4.329  15.974 -1.1994 -0.7456  2.0891
   6423SM   H6G 8280   5.597   4.365  15.902 -0.2213 -0.6583  0.7666
   6423SM   C7F 8281   5.659   4.150  15.864  0.3216 -0.2115 -0.2923
   6423SM   H7F 8282   5.726   4.077  15.915 -0.2227 -0.9163 -0.5673
   6423SM   H7G 8283   5.708   4.187  15.772  0.1793  2.4368  0.5884
   6423SM   C8F 8284   5.519   4.093  15.832  0.3995  0.5257  0.6700
   6423SM   H8F 8285   5.439   4.168  15.814  0.4766  0.3212 -0.6301
   6423SM   H8G 8286   5.498   4.018  15.912  2.1022 -1.8761 -1.0004
   6423SM   C9F 8287   5.524   4.006  15.704  0.2482  0.0615  0.2436
   6423SM   H9F 8288   5.556   4.069  15.618  0.2142 -0.3999 -0.1093
   6423SM   H9G 8289   5.421   3.969  15.689  1.5700 -3.4713 -1.3764
   6423SM  C10F 8290   5.608   3.878  15.712  0.0396 -0.3659 -0.1125
   6423SM  H10F 8291   5.575   3.802  15.786 -1.5997 -0.7080 -1.1551
   6423SM  H10G 8292   5.709   3.906  15.750 -0.5654  0.8042  0.7003
   6423SM  C11F 8293   5.617   3.792  15.584  0.1285 -0.3607 -0.3605
   6423SM  H11F 8294   5.523   3.760  15.533  1.3351 -1.8358 -1.7844
   6423SM  H11G 8295   5.655   3.700  15.634  1.8102  0.6480  0.3324
   6423SM  C12F 8296   5.725   3.824  15.484  0.0243 -0.4788  0.1389
   6423SM  H12F 8297   5.819   3.839  15.541  0.3093 -1.2119 -0.1204
   6423SM  H12G 8298   5.694   3.916  15.430  1.1952  0.1162  0.4485
   6423SM  C13F 8299   5.755   3.718  15.380 -0.3589 -0.1430 -0.3230
   6423SM  H13F 8300   5.790   3.622  15.423  0.8029 -0.0114 -0.9154
   6423SM  H13G 8301   5.846   3.748  15.323 -1.3898  1.7970 -1.0193
   6423SM  C14F 8302   5.646   3.659  15.291 -0.0330 -0.2027  0.7208
   6423SM  H14F 8303   5.607   3.743  15.229 -1.5224 -0.3825  1.3873
   6423SM  H14G 8304   5.554   3.625  15.342 -1.7237 -0.1474 -2.0689
   6423SM  C15F 8305   5.686   3.552  15.189 -0.2671 -0.3972  0.0212
   6423SM  H15F 8306   5.601   3.532  15.121 -1.8126 -0.1809  1.8139
   6423SM  H15G 8307   5.702   3.457  15.244  0.8868 -0.4548 -0.3778
   6423SM  C16F 8308   5.806   3.593  15.111 -0.0281  0.5171  0.5053
   6423SM  H16F 8309   5.900   3.566  15.163  0.5556 -1.6122 -1.4505
   6423SM  H16G 8310   5.812   3.703  15.100  0.6291  0.2305 -3.4224
   6423SM  C17F 8311   5.825   3.525  14.970 -0.5307  0.1156 -0.0925
   6423SM  H17F 8312   5.872   3.599  14.902 -0.6482  0.2950  0.0199
   6423SM  H17G 8313   5.727   3.497  14.926 -1.3121  0.6740  1.2405
   6423SM  C18F 8314   5.921   3.403  14.983  0.2582  0.1403 -0.2317
   6423SM  H18F 8315   5.856   3.328  15.034 -1.9073  0.7946 -1.8979
   6423SM  H18G 8316   6.002   3.432  15.053 -0.1586  0.2077  0.2287
   6423SM  C19F 8317   5.984   3.354  14.853  0.2592  0.0144  0.3218
   6423SM  H19F 8318   6.080   3.305  14.879 -0.1366 -0.2954  1.2421
   6423SM  H19G 8319   5.999   3.433  14.776 -0.6294 -1.4576 -1.4241
   6423SM  C20F 8320   5.904   3.251  14.781 -0.2702 -0.1005  0.2210
   6423SM  H20F 8321   5.797   3.283  14.784 -0.0905  0.6579 -0.7326
   6423SM  H20G 8322   5.910   3.152  14.829 -0.3754  0.0369  0.5189
   6423SM  C21F 8323   5.951   3.223  14.637  0.4964 -0.2115  0.2636
   6423SM  H21F 8324   5.925   3.321  14.591 -0.8010 -0.0399  1.2931
   6423SM  H21G 8325   5.895   3.138  14.593  2.2683 -0.5033 -1.5528
   6423SM  C22F 8326   6.101   3.202  14.609  0.1030 -0.4070 -0.7485
   6423SM  H22F 8327   6.141   3.128  14.683 -0.6592 -1.4512 -1.3502
   6423SM  H22G 8328   6.152   3.297  14.636 -2.1741  0.7262 -0.2246
   6423SM  C23F 8329   6.136   3.155  14.472 -0.1840  0.6365 -0.1224
   6423SM  H23F 8330   6.086   3.063  14.435 -0.2245  1.6277 -2.7399
   6423SM  H23G 8331   6.238   3.112  14.478  0.3007  1.8685  1.1266
   6423SM  H23H 8332   6.129   3.234  14.394 -0.3290 -0.4077 -1.1993
   6523SM     N 8333   5.009   5.003  17.068 -0.5872  0.0859 -0.5916
   6523SM   C15 8334   5.093   4.949  17.174  0.1828  0.4020  0.6065
   6523SM  H15A 8335   5.059   4.983  17.271 -2.5705  2.3301 -0.9015
   6523SM  H15B 8336   5.197   4.978  17.169  1.0768 -2.4821  0.8972
   6523SM  H15C 8337   5.087   4.841  17.167  2.5898  0.3145 -2.1988
   6523SM   C14 8338   4.869   4.965  17.089  0.8291 -0.1610 -0.1851
   6523SM  H14A 8339   4.809   5.007  17.009 -1.1686 -3.4026 -0.5654
   6523SM  H14B 8340   4.827   5.003  17.181 -0.8592  1.1930 -1.4236
   6523SM  H14C 8341   4.862   4.858  17.087 -0.8882 -0.0754 -0.2632
   6523SM   C13 8342   5.021   5.153  17.073 -0.0547  0.3968 -0.1200
   6523SM  H13A 8343   5.118   5.183  17.039  0.2836 -0.6679 -0.1247
   6523SM  H13B 8344   5.015   5.195  17.173  1.5703  2.4349 -0.7989
   6523SM  H13C 8345   4.942   5.200  17.015  1.4051  0.3874 -2.1978
   6523SM   C12 8346   5.052   4.952  16.933 -0.6084 -0.3035  0.2769
   6523SM  H12A 8347   4.990   4.985  16.851  2.0805  1.5391 -1.1266
   6523SM  H12B 8348   5.051   4.844  16.939 -0.8546 -0.2962  0.3924
   6523SM   C11 8349   5.195   4.994  16.884 -0.0052  0.0972  0.2182
   6523SM  H11A 8350   5.210   5.103  16.871  0.5383 -0.0214 -0.1977
   6523SM  H11B 8351   5.206   4.945  16.785 -3.1227  1.7837 -1.0958
   6523SM     P 8352   5.420   5.015  17.035  0.0327  0.2034 -0.9617
   6523SM   O13 8353   5.374   5.124  17.126  0.3948  0.3555  0.1190
   6523SM   O14 8354   5.507   4.912  17.096 -0.4322  0.6344 -0.3306
   6523SM   O11 8355   5.495   5.072  16.905  0.1789  0.2927 -1.2206
   6523SM   O12 8356   5.301   4.940  16.976 -0.0214 -0.1583  0.4186
   6523SM   C1S 8357   5.532   4.987  16.795  0.0407 -0.0328  0.3507
   6523SM   H1S 8358   5.491   4.884  16.807  1.7137 -0.8276 -0.5166
   6523SM   H1T 8359   5.642   4.978  16.791 -0.1521 -2.1537 -2.4152
   6523SM    NF 8360   5.560   4.961  16.549  0.5894 -0.2267  0.4078
   6523SM   HNF 8361   5.632   5.008  16.499 -0.0247 -1.1889 -1.5030
   6523SM   C2S 8362   5.495   5.043  16.654  0.2500 -0.7048  0.5216
   6523SM   H2S 8363   5.386   5.035  16.633  0.7590 -1.6287 -2.1110
   6523SM   C3S 8364   5.516   5.198  16.639  0.4108  0.1738 -0.2335
   6523SM   H3S 8365   5.625   5.218  16.649  0.8008 -2.0982  0.9124
   6523SM    O3 8366   5.461   5.282  16.738  0.5503  0.1986  0.0686
   6523SM   HO3 8367   5.414   5.220  16.795 -1.3551  1.0507 -0.4921
   6523SM   C4S 8368   5.472   5.242  16.496  0.3473 -0.2332 -0.2720
   6523SM   H4S 8369   5.553   5.261  16.425 -0.5279 -1.7845 -1.7531
   6523SM   C5S 8370   5.348   5.269  16.455  0.1014  0.9745  0.0465
   6523SM   H5S 8371   5.267   5.241  16.524 -0.3519  1.4872 -0.2713
   6523SM   C6S 8372   5.310   5.331  16.318  0.1207 -0.3453 -0.4659
   6523SM   H6S 8373   5.218   5.393  16.323  0.6171  0.4991 -1.3123
   6523SM   H6T 8374   5.287   5.251  16.244 -0.1253 -0.7871  0.0818
   6523SM   C7S 8375   5.423   5.419  16.262  0.5743 -0.6367  0.4133
   6523SM   H7S 8376   5.518   5.367  16.234  0.0462 -1.2836 -0.2424
   6523SM   H7T 8377   5.457   5.486  16.344  0.3850 -0.5705  0.4375
   6523SM   C8S 8378   5.377   5.508  16.138  0.5109  0.6374 -0.3639
   6523SM   H8S 8379   5.281   5.552  16.173  0.6841  1.8289 -1.3428
   6523SM   H8T 8380   5.347   5.421  16.075  1.8761  0.5139 -0.8709
   6523SM   C9S 8381   5.481   5.603  16.088  0.1564 -0.2164  0.8938
   6523SM   H9S 8382   5.580   5.553  16.079 -1.1580 -3.4064  2.5783
   6523SM   H9T 8383   5.502   5.679  16.167  0.7445  1.5391 -0.8751
   6523SM  C10S 8384   5.458   5.652  15.942  0.5320 -0.1306  0.1663
   6523SM  H10S 8385   5.426   5.569  15.876 -2.0500  1.9466 -1.3934
   6523SM  H10T 8386   5.555   5.697  15.910 -0.4253  0.8677 -1.4585
   6523SM  C11S 8387   5.337   5.751  15.923 -0.5374 -0.4670 -0.2557
   6523SM  H11S 8388   5.364   5.836  15.989  0.0554 -2.9678  3.0039
   6523SM  H11T 8389   5.243   5.706  15.961  0.5467 -1.5589  1.2654
   6523SM  C12S 8390   5.323   5.803  15.781  0.2094  0.3195 -0.1373
   6523SM  H12S 8391   5.310   5.721  15.707 -0.3783  0.3439 -0.0664
   6523SM  H12T 8392   5.415   5.861  15.758 -1.2885  2.6704 -0.6360
   6523SM  C13S 8393   5.203   5.894  15.766  0.0563  0.1309  0.2133
   6523SM  H13S 8394   5.197   5.974  15.843  1.5563  0.1002  0.3820
   6523SM  H13T 8395   5.120   5.822  15.780  1.1265 -1.1786 -0.0646
   6523SM  C14S 8396   5.191   5.966  15.636 -0.0587  0.5459  0.1720
   6523SM  H14S 8397   5.201   5.894  15.552 -2.4416  1.0339 -0.6112
   6523SM  H14T 8398   5.280   6.032  15.628 -2.2533  3.5457 -2.1225
   6523SM  C15S 8399   5.060   6.035  15.617 -0.3085 -0.1640  0.3927
   6523SM  H15S 8400   5.035   6.099  15.704 -2.0045  0.8138 -0.7635
   6523SM  H15T 8401   4.982   5.956  15.613 -1.0994  0.6041  0.2756
   6523SM  C16S 8402   5.056   6.134  15.495  0.4351 -0.0061 -0.1091
   6523SM  H16S 8403   4.978   6.212  15.511 -1.6034 -2.1466  0.8370
   6523SM  H16T 8404   5.034   6.075  15.404 -0.2011  0.9638 -0.6008
   6523SM  C17S 8405   5.185   6.219  15.470 -0.2159 -0.2826  0.3107
   6523SM  H17S 8406   5.269   6.150  15.446 -0.3598  0.1174 -1.5109
   6523SM  H17T 8407   5.192   6.274  15.566 -3.2866  1.6250 -0.4248
   6523SM  C18S 8408   5.172   6.331  15.366  0.4295  0.1982 -0.3848
   6523SM  H18S 8409   5.125   6.278  15.280 -1.9158  1.6203 -0.0683
   6523SM  H18T 8410   5.264   6.388  15.345  0.0214  1.2560  0.6084
   6523SM  H18U 8411   5.099   6.406  15.403  0.0385 -0.9026  1.1891
   6523SM   C1F 8412   5.545   4.832  16.538  0.1866  0.2185 -0.2946
   6523SM    OF 8413   5.465   4.773  16.607  0.0666  0.6182 -0.9204
   6523SM   C2F 8414   5.620   4.753  16.431 -0.0545 -0.1409  0.9289
   6523SM   H2F 8415   5.671   4.667  16.479  2.1257  0.5694  0.0098
   6523SM   H2G 8416   5.700   4.817  16.388  1.1532  1.1236  4.6417
   6523SM   C3F 8417   5.525   4.712  16.317 -0.3740 -0.3273  0.0723
   6523SM   H3F 8418   5.439   4.651  16.352 -0.0401 -1.3617 -0.8561
   6523SM   H3G 8419   5.581   4.643  16.249  1.0796 -1.1685  2.0090
   6523SM   C4F 8420   5.471   4.833  16.244  0.2727  0.6882 -0.4641
   6523SM   H4F 8421   5.550   4.903  16.209  2.6346 -2.6862 -2.5331
   6523SM   H4G 8422   5.410   4.895  16.313 -1.4403 -2.6658  1.3016
   6523SM   C5F 8423   5.382   4.789  16.131 -0.2845  0.2763 -0.2928
   6523SM   H5F 8424   5.303   4.721  16.169 -1.6855  2.0930  0.2260
   6523SM   H5G 8425   5.451   4.737  16.061  1.2981 -0.2748  1.5946
   6523SM   C6F 8426   5.315   4.915  16.069 -0.5815 -0.2008 -0.5791
   6523SM   H6F 8427   5.293   4.985  16.152  4.1287  1.1793 -0.1871
   6523SM   H6G 8428   5.228   4.880  16.010 -1.7978 -1.5297  1.8838
   6523SM   C7F 8429   5.400   5.011  15.976  0.1928 -0.4001  0.0860
   6523SM   H7F 8430   5.447   4.960  15.889 -0.4434  1.1320 -1.2027
   6523SM   H7G 8431   5.486   5.040  16.040 -0.7732  1.4262  0.6284
   6523SM   C8F 8432   5.331   5.137  15.923  0.4044  0.3895  0.4685
   6523SM   H8F 8433   5.404   5.220  15.937  2.3751 -0.7798 -2.0195
   6523SM   H8G 8434   5.246   5.157  15.992  0.5091  0.5416  0.5550
   6523SM   C9F 8435   5.299   5.154  15.779 -0.3667  0.3220 -0.1379
   6523SM   H9F 8436   5.392   5.143  15.720  0.0042  1.7189  0.1644
   6523SM   H9G 8437   5.269   5.260  15.765 -1.5673 -0.0350 -0.4616
   6523SM  C10F 8438   5.196   5.052  15.725 -0.4338  0.3372  0.2758
   6523SM  H10F 8439   5.117   5.045  15.803 -0.6976 -2.0087 -0.1387
   6523SM  H10G 8440   5.240   4.952  15.708 -2.1484 -0.1793 -1.4370
   6523SM  C11F 8441   5.141   5.109  15.588 -0.2102  0.1357 -0.2121
   6523SM  H11F 8442   5.102   5.211  15.607  1.1839  0.2332  2.6423
   6523SM  H11G 8443   5.052   5.050  15.557 -0.8465 -0.0866  1.8419
   6523SM  C12F 8444   5.238   5.109  15.468  0.0481  0.3312 -0.8030
   6523SM  H12F 8445   5.272   5.003  15.468 -1.5495 -0.2255  0.0404
   6523SM  H12G 8446   5.334   5.159  15.494  0.6476 -0.0416 -2.2232
   6523SM  C13F 8447   5.178   5.144  15.331  0.6590 -0.3550  0.1305
   6523SM  H13F 8448   5.131   5.245  15.332 -1.2339 -1.1937 -0.2112
   6523SM  H13G 8449   5.096   5.072  15.310 -0.5380  0.8283  0.5699
   6523SM  C14F 8450   5.288   5.128  15.229 -0.4077  0.0944  0.2885
   6523SM  H14F 8451   5.327   5.024  15.229  0.7270  0.4998 -0.3437
   6523SM  H14G 8452   5.367   5.205  15.244 -1.3155  1.0766  0.1625
   6523SM  C15F 8453   5.262   5.155  15.077  0.4235 -0.4630 -0.8530
   6523SM  H15F 8454   5.245   5.264  15.069 -1.8269 -0.7861 -0.9592
   6523SM  H15G 8455   5.170   5.099  15.051  0.1567  0.9022 -3.0775
   6523SM  C16F 8456   5.378   5.129  14.992  0.2206 -0.3650  0.1412
   6523SM  H16F 8457   5.380   5.017  14.992 -0.5675 -0.3799 -0.1755
   6523SM  H16G 8458   5.476   5.155  15.037  0.0255 -0.9238  0.9329
   6523SM  C17F 8459   5.375   5.181  14.847 -0.0080 -0.3694 -0.2781
   6523SM  H17F 8460   5.291   5.142  14.786  2.1321  0.4958 -4.0547
   6523SM  H17G 8461   5.472   5.154  14.801 -0.6775  1.5781 -3.1017
   6523SM  C18F 8462   5.358   5.333  14.839  0.7367  0.2208  0.3523
   6523SM  H18F 8463   5.406   5.386  14.924 -1.7088  0.8358  1.4611
   6523SM  H18G 8464   5.249   5.356  14.843  0.6142  0.0279 -1.2950
   6523SM  C19F 8465   5.431   5.393  14.715  0.5710 -0.5904 -1.2265
   6523SM  H19F 8466   5.538   5.363  14.718  0.4333 -1.1139  2.3601
   6523SM  H19G 8467   5.425   5.504  14.718 -0.9011 -0.6663  1.6618
   6523SM  C20F 8468   5.352   5.342  14.591 -0.3829  0.2799 -0.1121
   6523SM  H20F 8469   5.244   5.367  14.602 -0.3813 -0.1329  1.0103
   6523SM  H20G 8470   5.370   5.232  14.586  0.6006  0.3607  1.0321
   6523SM  C21F 8471   5.404   5.417  14.467  0.0897 -0.6295  0.9611
   6523SM  H21F 8472   5.513   5.399  14.452 -0.0206  0.1268 -1.1660
   6523SM  H21G 8473   5.402   5.526  14.488  0.2181 -0.5105  0.3768
   6523SM  C22F 8474   5.321   5.399  14.341 -0.2871  0.1995 -0.0873
   6523SM  H22F 8475   5.228   5.457  14.360 -0.1310  0.8238 -1.1142
   6523SM  H22G 8476   5.299   5.291  14.333  0.6978 -0.0313  0.3118
   6523SM  C23F 8477   5.380   5.440  14.204  0.5904  0.0579  0.4438
   6523SM  H23F 8478   5.306   5.421  14.124 -0.3507 -1.5190  1.6558
   6523SM  H23G 8479   5.471   5.381  14.182  1.3326  1.4443 -0.3958
   6523SM  H23H 8480   5.413   5.547  14.199 -3.3791  1.4556  0.9168
   6623SM     N 8481   4.359   2.182  17.124 -0.5046 -0.4042  0.3161
   6623SM   C15 8482   4.412   2.313  17.165 -0.0679 -0.2882 -0.3265
   6623SM  H15A 8483   4.365   2.403  17.129  1.7671  1.2153  0.8646
   6623SM  H15B 8484   4.513   2.325  17.129  0.4517  2.0906  1.6855
   6623SM  H15C 8485   4.416   2.328  17.271 -0.2433 -0.3146 -0.3156
   6623SM   C14 8486   4.435   2.078  17.197 -0.1655  0.0422  0.3502
   6623SM  H14A 8487   4.395   1.980  17.174  1.3566 -0.4182 -0.4666
   6623SM  H14B 8488   4.434   2.093  17.304  0.0287  0.9228  0.2379
   6623SM  H14C 8489   4.536   2.084  17.160  0.2585 -1.9049  1.1179
   6623SM   C13 8490   4.216   2.166  17.149  0.0136 -0.4827  0.3326
   6623SM  H13A 8491   4.168   2.235  17.082  0.1196 -0.7521 -0.0224
   6623SM  H13B 8492   4.190   2.186  17.252 -1.0578 -0.2555  0.0268
   6623SM  H13C 8493   4.179   2.069  17.119  0.7066 -0.9988  1.1143
   6623SM   C12 8494   4.397   2.166  16.975 -0.0511  0.3269 -0.3204
   6623SM  H12A 8495   4.365   2.065  16.953 -1.0917 -0.5035  3.9845
   6623SM  H12B 8496   4.504   2.166  16.962 -0.1010  1.9879 -0.9192
   6623SM   C11 8497   4.329   2.266  16.877  0.7650 -0.5267 -0.9918
   6623SM  H11A 8498   4.385   2.262  16.781 -0.0122 -0.3276 -1.4588
   6623SM  H11B 8499   4.342   2.368  16.919  1.5976  0.1646 -2.8271
   6623SM     P 8500   4.141   2.118  16.777  0.3542 -0.1719  0.5224
   6623SM   O13 8501   4.237   2.013  16.807 -0.0453 -0.0891 -0.1074
   6623SM   O14 8502   4.004   2.092  16.817  0.7441 -0.1213 -0.2285
   6623SM   O11 8503   4.144   2.157  16.620 -0.2921  0.0561 -0.3292
   6623SM   O12 8504   4.191   2.254  16.854 -0.1533  0.1053 -0.4099
   6623SM   C1S 8505   4.079   2.286  16.600  0.8064 -0.5355 -0.4995
   6623SM   H1S 8506   4.142   2.363  16.650  0.3972 -0.7309  0.3481
   6623SM   H1T 8507   3.971   2.286  16.627  0.3934 -0.2166 -2.0944
   6623SM    NF 8508   4.046   2.460  16.430  0.4178  0.7461 -0.0111
   6623SM   HNF 8509   3.950   2.476  16.409  0.1903  3.1701  2.3714
   6623SM   C2S 8510   4.083   2.321  16.453  0.0733 -0.0304  0.6397
   6623SM   H2S 8511   4.185   2.317  16.408 -1.2345 -1.2332 -2.5297
   6623SM   C3S 8512   3.992   2.214  16.375 -0.6515 -0.2714 -0.4091
   6623SM   H3S 8513   3.884   2.208  16.398 -1.0436 -0.0998 -2.0693
   6623SM    O3 8514   4.019   2.080  16.398 -0.2656  0.1903 -0.5723
   6623SM   HO3 8515   4.082   2.081  16.469 -0.9024  0.4339 -0.0017
   6623SM   C4S 8516   3.982   2.250  16.226 -0.4680 -0.1078 -0.1224
   6623SM   H4S 8517   3.906   2.325  16.196  0.2337  0.0595 -1.5987
   6623SM   C5S 8518   4.067   2.207  16.128  0.1013  0.0700  0.6722
   6623SM   H5S 8519   4.149   2.140  16.154 -1.4106 -1.5554  1.4366
   6623SM   C6S 8520   4.063   2.265  15.986 -0.6435  0.2643  0.8439
   6623SM   H6S 8521   4.003   2.221  15.904  0.0169 -0.0771  0.5340
   6623SM   H6T 8522   4.162   2.240  15.941 -0.7739 -1.2244  1.3466
   6623SM   C7S 8523   4.048   2.418  15.998 -0.0310 -0.1049 -0.2024
   6623SM   H7S 8524   4.133   2.463  16.053 -0.1069  0.7413 -0.7673
   6623SM   H7T 8525   3.953   2.453  16.044  1.2149  0.8477  1.7942
   6623SM   C8S 8526   4.063   2.493  15.866 -0.1201 -0.5491 -0.1784
   6623SM   H8S 8527   4.002   2.438  15.791 -0.7031  0.6724 -0.6328
   6623SM   H8T 8528   4.169   2.505  15.834  0.2228 -0.1948  1.0340
   6623SM   C9S 8529   4.018   2.639  15.885  0.6281 -0.7296  0.0103
   6623SM   H9S 8530   4.074   2.687  15.968  1.5873 -2.1593  0.2107
   6623SM   H9T 8531   3.907   2.639  15.895  0.7366 -0.5829  1.4033
   6623SM  C10S 8532   4.053   2.735  15.767  0.1083 -0.1408 -0.9484
   6623SM  H10S 8533   4.052   2.679  15.672  0.8149 -1.2171 -0.3457
   6623SM  H10T 8534   4.159   2.763  15.788 -0.8418  1.5053  2.5143
   6623SM  C11S 8535   3.969   2.867  15.758 -0.9772  0.4742 -0.1203
   6623SM  H11S 8536   3.997   2.936  15.840 -0.3992 -0.9355  0.8991
   6623SM  H11T 8537   3.864   2.831  15.771 -0.8375 -0.0190 -0.3459
   6623SM  C12S 8538   3.967   2.931  15.621 -0.6739 -0.2492  0.7477
   6623SM  H12S 8539   3.940   2.858  15.542 -0.1481  1.1776 -0.7937
   6623SM  H12T 8540   4.070   2.969  15.603 -0.4036 -1.3714 -0.2168
   6623SM  C13S 8541   3.863   3.042  15.608  0.2574 -0.2125 -0.3787
   6623SM  H13S 8542   3.759   3.002  15.597  0.0846 -0.5180  1.9989
   6623SM  H13T 8543   3.862   3.100  15.513  0.3604 -1.4113 -1.1370
   6623SM  C14S 8544   3.861   3.149  15.721  0.3296  0.3605 -0.6014
   6623SM  H14S 8545   3.968   3.177  15.734 -0.0175  1.6612 -0.4125
   6623SM  H14T 8546   3.820   3.096  15.809 -1.3551  0.0474 -1.5203
   6623SM  C15S 8547   3.773   3.271  15.675  0.2796 -0.2620  0.4381
   6623SM  H15S 8548   3.688   3.232  15.615  0.3080  1.2578 -0.6385
   6623SM  H15T 8549   3.821   3.329  15.594 -4.2859 -1.3782 -3.4669
   6623SM  C16S 8550   3.728   3.364  15.785  0.2444 -0.0405 -0.3893
   6623SM  H16S 8551   3.808   3.395  15.855 -0.0189 -1.1444  0.4248
   6623SM  H16T 8552   3.668   3.296  15.850 -1.9171  1.6838 -0.4855
   6623SM  C17S 8553   3.645   3.481  15.733 -0.3848  0.2594  0.2632
   6623SM  H17S 8554   3.570   3.506  15.811  0.0464  2.0196  0.1559
   6623SM  H17T 8555   3.586   3.444  15.646  0.2368 -1.0971  0.4018
   6623SM  C18S 8556   3.723   3.606  15.706 -0.0613  0.6304 -0.7409
   6623SM  H18S 8557   3.780   3.626  15.800 -1.1959 -1.0144  0.3492
   6623SM  H18T 8558   3.655   3.689  15.675  0.1432  1.3911  0.7570
   6623SM  H18U 8559   3.790   3.581  15.621 -0.8879  0.3724 -1.3221
   6623SM   C1F 8560   4.125   2.566  16.448  0.4460  0.1318 -0.2875
   6623SM    OF 8561   4.240   2.558  16.486  0.3029  0.0599  0.0379
   6623SM   C2F 8562   4.061   2.697  16.440 -0.0772 -1.5068 -0.1886
   6623SM   H2F 8563   4.113   2.774  16.501 -1.5077 -0.2811 -0.4607
   6623SM   H2G 8564   3.956   2.694  16.476 -0.5618 -0.5402 -1.4487
   6623SM   C3F 8565   4.070   2.753  16.296  0.3524  0.2863  0.2229
   6623SM   H3F 8566   3.990   2.709  16.234 -0.0995  1.0058  0.2911
   6623SM   H3G 8567   4.161   2.712  16.248 -0.6378 -1.7132 -0.0068
   6623SM   C4F 8568   4.070   2.908  16.272  0.2483  0.1456 -1.0776
   6623SM   H4F 8569   4.141   2.939  16.351  1.0454 -1.1088 -1.2698
   6623SM   H4G 8570   3.967   2.944  16.292  0.3417  0.1777 -0.6556
   6623SM   C5F 8571   4.119   2.952  16.137  0.0492 -0.4468  0.7625
   6623SM   H5F 8572   4.058   2.884  16.074  0.3916 -3.8337  3.7942
   6623SM   H5G 8573   4.227   2.926  16.140 -0.0126 -0.7941  0.0956
   6623SM   C6F 8574   4.093   3.098  16.093  0.5383  0.2154  0.1689
   6623SM   H6F 8575   4.129   3.102  15.988 -1.6513  1.7123 -0.6096
   6623SM   H6G 8576   4.150   3.173  16.151  0.9234 -0.6831  0.9724
   6623SM   C7F 8577   3.945   3.142  16.101 -0.3117  0.2081  0.0927
   6623SM   H7F 8578   3.877   3.063  16.061 -1.4697  0.7309  0.9388
   6623SM   H7G 8579   3.946   3.229  16.033  2.6925 -0.3638 -0.6959
   6623SM   C8F 8580   3.893   3.189  16.242 -0.4570 -0.1641  0.5423
   6623SM   H8F 8581   3.941   3.289  16.249  1.1796 -0.9407  0.6731
   6623SM   H8G 8582   3.946   3.142  16.328  3.3666 -1.2074 -2.1270
   6623SM   C9F 8583   3.741   3.203  16.254 -0.4536  0.2162 -0.3439
   6623SM   H9F 8584   3.708   3.280  16.181  1.1607  0.2465 -1.0857
   6623SM   H9G 8585   3.714   3.233  16.358 -0.1583 -0.0876 -0.1743
   6623SM  C10F 8586   3.665   3.071  16.226 -0.6836  0.0770 -0.4625
   6623SM  H10F 8587   3.691   2.992  16.298 -1.6560 -0.8902 -1.1372
   6623SM  H10G 8588   3.698   3.033  16.127 -0.7368 -2.1542  0.3301
   6623SM  C11F 8589   3.514   3.086  16.226 -0.2018 -0.6248 -0.3371
   6623SM  H11F 8590   3.485   3.173  16.163  2.2977  1.8543  1.6818
   6623SM  H11G 8591   3.480   3.108  16.329 -0.8743  0.0285 -0.6911
   6623SM  C12F 8592   3.440   2.960  16.186  0.0349 -0.3856  0.4408
   6623SM  H12F 8593   3.473   2.872  16.245  0.8454 -0.4619 -0.1135
   6623SM  H12G 8594   3.463   2.940  16.080 -0.4258 -1.9773  0.6176
   6623SM  C13F 8595   3.284   2.968  16.204  0.3289 -0.4726  0.3906
   6623SM  H13F 8596   3.260   2.990  16.310 -1.3321  4.0000 -0.7107
   6623SM  H13G 8597   3.231   2.876  16.171 -0.0788 -0.3512  0.7107
   6623SM  C14F 8598   3.220   3.090  16.133  0.5741 -0.1514  0.2658
   6623SM  H14F 8599   3.251   3.092  16.027 -0.8900  4.3867 -0.3280
   6623SM  H14G 8600   3.258   3.180  16.187  2.8451 -1.3155  0.7045
   6623SM  C15F 8601   3.066   3.112  16.157 -0.9153 -0.1988 -0.1282
   6623SM  H15F 8602   3.031   3.198  16.096  1.9418  1.2275  0.0390
   6623SM  H15G 8603   3.065   3.141  16.264  1.0687 -0.3168 -0.0316
   6623SM  C16F 8604   2.981   2.988  16.129 -0.0136 -0.2389 -0.0662
   6623SM  H16F 8605   3.012   2.914  16.206  1.1318 -0.0411 -0.3156
   6623SM  H16G 8606   3.014   2.956  16.027  1.2664  0.1430  0.2020
   6623SM  C17F 8607   2.832   3.007  16.116  0.7838 -0.0977 -0.3799
   6623SM  H17F 8608   2.783   2.914  16.081 -0.1985  0.1514  0.2927
   6623SM  H17G 8609   2.815   3.079  16.033  1.4794  1.1535  0.5127
   6623SM  C18F 8610   2.754   3.055  16.237 -0.5448  1.1510  0.0705
   6623SM  H18F 8611   2.646   3.040  16.214  0.2211 -1.7022 -2.3742
   6623SM  H18G 8612   2.776   3.164  16.243 -1.2733  1.2562  1.0132
   6623SM  C19F 8613   2.792   2.994  16.369  0.3188 -0.2403 -0.4373
   6623SM  H19F 8614   2.723   3.032  16.447  0.6299  1.0096 -0.7457
   6623SM  H19G 8615   2.899   3.021  16.382  0.7748 -1.9406 -0.4681
   6623SM  C20F 8616   2.792   2.844  16.364 -0.2463  0.7593 -0.5696
   6623SM  H20F 8617   2.793   2.808  16.468  1.3852 -0.8302 -1.0929
   6623SM  H20G 8618   2.876   2.806  16.302  2.0903  2.9381  1.0517
   6623SM  C21F 8619   2.655   2.787  16.312 -0.4322 -0.4694 -0.9349
   6623SM  H21F 8620   2.647   2.824  16.208 -0.8145  0.4000 -0.6037
   6623SM  H21G 8621   2.575   2.836  16.371  0.1095  1.6723 -1.8941
   6623SM  C22F 8622   2.627   2.637  16.309 -0.1755  0.0590 -0.1803
   6623SM  H22F 8623   2.720   2.593  16.266  0.0662 -0.4020  0.7702
   6623SM  H22G 8624   2.549   2.616  16.234 -1.5154  0.7037  0.9826
   6623SM  C23F 8625   2.601   2.565  16.439 -0.4677 -0.0640 -0.2709
   6623SM  H23F 8626   2.518   2.599  16.504 -0.4219 -1.4256  0.5450
   6623SM  H23G 8627   2.693   2.559  16.501 -0.3572 -2.5832 -0.5661
   6623SM  H23H 8628   2.584   2.459  16.409  1.7280 -0.5173 -0.1110
   6723SM     N 8629   3.301   6.356  17.044 -0.3647  0.0126  0.9455
   6723SM   C15 8630   3.436   6.412  17.060  0.1079  0.5185 -0.3241
   6723SM  H15A 8631   3.424   6.519  17.053 -0.0383  0.4509 -1.2661
   6723SM  H15B 8632   3.500   6.382  16.979  0.6291  0.6419  0.0377
   6723SM  H15C 8633   3.481   6.390  17.155  2.8738  0.2381 -1.6051
   6723SM   C14 8634   3.292   6.214  17.102 -0.2546 -0.3781  0.4091
   6723SM  H14A 8635   3.366   6.145  17.064 -0.3101 -1.2524  1.8352
   6723SM  H14B 8636   3.195   6.177  17.074 -0.4304 -2.5555  3.4172
   6723SM  H14C 8637   3.301   6.217  17.210  0.9799  0.8047  0.3104
   6723SM   C13 8638   3.213   6.439  17.131  0.4735 -0.3845 -0.0494
   6723SM  H13A 8639   3.244   6.432  17.234 -0.6969 -2.4795  0.2203
   6723SM  H13B 8640   3.116   6.394  17.116  0.3059  0.5461 -2.1319
   6723SM  H13C 8641   3.192   6.539  17.097 -0.7336 -0.7162 -0.3380
   6723SM   C12 8642   3.259   6.364  16.900  0.0719  0.3498  0.0608
   6723SM  H12A 8643   3.159   6.329  16.881 -0.2390  2.6051 -3.4061
   6723SM  H12B 8644   3.319   6.295  16.843 -2.9486 -1.5287 -1.0812
   6723SM   C11 8645   3.255   6.504  16.828 -0.3774 -0.8403  0.5991
   6723SM  H11A 8646   3.267   6.501  16.718 -0.9480  2.5100  0.3244
   6723SM  H11B 8647   3.343   6.564  16.860  0.8185 -1.5016 -1.2932
   6723SM     P 8648   3.103   6.717  16.805  0.0125 -0.1942  0.2758
   6723SM   O13 8649   2.975   6.764  16.872 -0.3636 -0.1059 -0.8930
   6723SM   O14 8650   3.230   6.795  16.801 -0.1183  0.0331  0.5635
   6723SM   O11 8651   3.059   6.667  16.662  0.0904 -0.4050  0.5090
   6723SM   O12 8652   3.135   6.575  16.868  0.0393  0.0575 -0.1224
   6723SM   C1S 8653   2.974   6.747  16.578 -0.0255  0.7608 -0.6324
   6723SM   H1S 8654   3.027   6.844  16.565 -0.3044  0.8449 -1.1504
   6723SM   H1T 8655   2.873   6.761  16.621  0.1518  0.2540 -0.0414
   6723SM    NF 8656   2.889   6.767  16.356 -0.1771 -0.0197  0.2762
   6723SM   HNF 8657   2.797   6.742  16.328  0.3250 -0.0919 -1.3723
   6723SM   C2S 8658   2.973   6.677  16.437  0.0226 -0.4125 -0.5959
   6723SM   H2S 8659   3.079   6.685  16.404  1.2982 -2.6575  2.5536
   6723SM   C3S 8660   2.932   6.526  16.439 -0.4554 -0.0197  0.0147
   6723SM   H3S 8661   2.834   6.511  16.490 -1.0274 -0.5108 -1.2026
   6723SM    O3 8662   3.019   6.447  16.523  0.4255  0.1214 -0.1553
   6723SM   HO3 8663   3.040   6.509  16.593 -1.3966  1.5846 -0.8198
   6723SM   C4S 8664   2.932   6.469  16.302  0.6817 -0.1861  0.0899
   6723SM   H4S 8665   2.831   6.441  16.270  1.1050 -2.4642  0.5162
   6723SM   C5S 8666   3.033   6.432  16.225 -0.0094 -0.0363 -0.1910
   6723SM   H5S 8667   3.134   6.443  16.267 -0.4512  0.4065  0.7685
   6723SM   C6S 8668   3.021   6.370  16.085 -0.7380 -0.1301 -1.3338
   6723SM   H6S 8669   2.919   6.339  16.055 -0.3523 -2.3970 -0.5357
   6723SM   H6T 8670   3.084   6.278  16.079  2.5015  1.8828 -0.9260
   6723SM   C7S 8671   3.076   6.471  15.993 -0.6192 -0.0060 -0.1753
   6723SM   H7S 8672   3.186   6.480  16.001 -0.6302 -0.3503  0.4039
   6723SM   H7T 8673   3.035   6.570  16.022  0.1057  0.0638  0.6623
   6723SM   C8S 8674   3.028   6.448  15.847 -0.1768 -0.0441 -0.3591
   6723SM   H8S 8675   3.023   6.548  15.800 -5.0772  1.7436  3.1741
   6723SM   H8T 8676   2.925   6.406  15.840 -0.4603  0.3358  1.1790
   6723SM   C9S 8677   3.122   6.351  15.769 -0.0287  0.3645 -0.0916
   6723SM   H9S 8678   3.116   6.254  15.822 -0.1567  0.9288  0.9596
   6723SM   H9T 8679   3.228   6.385  15.773  1.3931 -3.6663  0.1229
   6723SM  C10S 8680   3.070   6.334  15.625  0.2978 -0.0142 -0.6692
   6723SM  H10S 8681   3.052   6.434  15.580 -2.1215 -0.0129  0.1462
   6723SM  H10T 8682   2.968   6.291  15.634 -0.4178  1.1739 -2.4180
   6723SM  C11S 8683   3.169   6.258  15.539 -0.0668 -0.5373 -0.1808
   6723SM  H11S 8684   3.164   6.150  15.566  1.3175 -1.0649 -1.7763
   6723SM  H11T 8685   3.272   6.294  15.558 -0.7144  0.5388  1.4287
   6723SM  C12S 8686   3.134   6.280  15.395 -0.3643 -0.1923  0.0034
   6723SM  H12S 8687   3.213   6.227  15.338 -2.1084 -1.4704 -1.3161
   6723SM  H12T 8688   3.153   6.386  15.367 -0.6271 -1.2170 -4.8546
   6723SM  C13S 8689   2.999   6.235  15.356  0.3484  0.1445 -0.0521
   6723SM  H13S 8690   2.928   6.288  15.423  1.8229  0.1780  1.5422
   6723SM  H13T 8691   2.998   6.131  15.394 -0.8713 -0.1589 -0.8458
   6723SM  C14S 8692   2.957   6.254  15.210 -0.3707  0.8873 -0.3745
   6723SM  H14S 8693   2.970   6.357  15.169 -0.3094  1.3339  0.7156
   6723SM  H14T 8694   2.847   6.238  15.213 -0.2196 -0.0596  1.9202
   6723SM  C15S 8695   3.012   6.136  15.123  0.2324  0.2797  0.0610
   6723SM  H15S 8696   3.000   6.045  15.186 -1.5664  0.2473 -0.2648
   6723SM  H15T 8697   3.117   6.153  15.091  0.6499 -0.8819  0.7693
   6723SM  C16S 8698   2.940   6.108  14.992 -0.1471  0.3004  0.3431
   6723SM  H16S 8699   2.958   6.186  14.915  0.5730 -1.8725 -1.8132
   6723SM  H16T 8700   2.831   6.103  15.010 -0.3470  1.8828 -0.3245
   6723SM  C17S 8701   2.981   5.973  14.940 -0.4422 -0.2303  0.5788
   6723SM  H17S 8702   2.915   5.899  14.991 -0.4197 -0.8881 -0.3119
   6723SM  H17T 8703   3.084   5.943  14.967 -1.0156 -4.3549 -1.0436
   6723SM  C18S 8704   2.969   5.953  14.788 -0.0823  0.3789 -0.2644
   6723SM  H18S 8705   3.046   6.001  14.725 -0.2845  0.4690 -0.4469
   6723SM  H18T 8706   2.867   5.967  14.746 -1.7503 -2.2257  2.5030
   6723SM  H18U 8707   2.979   5.843  14.778 -1.4723 -0.1968  3.1105
   6723SM   C1F 8708   2.927   6.887  16.314 -0.2280  0.0434 -0.4076
   6723SM    OF 8709   3.045   6.917  16.324 -0.0875  0.3453 -0.6208
   6723SM   C2F 8710   2.841   6.978  16.236  0.1860 -0.0278  0.4257
   6723SM   H2F 8711   2.821   7.079  16.278 -0.0479  1.6039 -3.2337
   6723SM   H2G 8712   2.745   6.923  16.227 -0.5341  1.1754  0.5461
   6723SM   C3F 8713   2.892   7.000  16.089 -0.2940  0.0452  0.5001
   6723SM   H3F 8714   2.942   6.906  16.057  2.5608  1.0700  1.5815
   6723SM   H3G 8715   2.978   7.071  16.097  1.6014 -1.7618 -2.1584
   6723SM   C4F 8716   2.791   7.061  15.999  0.5712  0.2580 -0.0775
   6723SM   H4F 8717   2.733   7.136  16.058  0.4492 -0.6623  0.9906
   6723SM   H4G 8718   2.714   6.982  15.983  0.8613  0.0669 -0.5547
   6723SM   C5F 8719   2.848   7.106  15.863  0.3613 -0.8359  0.4598
   6723SM   H5F 8720   2.868   7.014  15.805 -2.6246 -1.7259  0.6628
   6723SM   H5G 8721   2.946   7.157  15.878 -1.6583  3.5186  0.2511
   6723SM   C6F 8722   2.762   7.199  15.773 -0.2470 -0.6601 -0.1523
   6723SM   H6F 8723   2.745   7.291  15.833 -2.9897 -1.5230  0.5412
   6723SM   H6G 8724   2.661   7.155  15.757 -0.5178  0.1971 -0.9175
   6723SM   C7F 8725   2.827   7.246  15.642 -0.6402  0.0060  0.3827
   6723SM   H7F 8726   2.862   7.153  15.591  1.7393  0.2972  1.3831
   6723SM   H7G 8727   2.916   7.298  15.682 -0.3868 -1.9902  2.6673
   6723SM   C8F 8728   2.735   7.324  15.547  0.0882 -0.6718 -0.4137
   6723SM   H8F 8729   2.699   7.406  15.613  1.6536 -1.3144  1.3212
   6723SM   H8G 8730   2.648   7.266  15.509 -1.2396  1.3539 -0.6529
   6723SM   C9F 8731   2.815   7.387  15.436  0.5430  0.0287 -0.2276
   6723SM   H9F 8732   2.902   7.447  15.471 -0.1411  0.2634  1.1863
   6723SM   H9G 8733   2.749   7.462  15.386 -0.3474 -0.3975  0.2821
   6723SM  C10F 8734   2.856   7.293  15.329 -0.1672 -0.4065 -0.0141
   6723SM  H10F 8735   2.894   7.200  15.377  1.0437  0.1661  0.1606
   6723SM  H10G 8736   2.941   7.336  15.272 -0.6257 -0.5712 -0.8394
   6723SM  C11F 8737   2.746   7.251  15.223  0.6436  1.0422 -0.4489
   6723SM  H11F 8738   2.705   7.348  15.189  0.2363  0.6833 -1.0075
   6723SM  H11G 8739   2.670   7.194  15.280  0.4108  2.4339  0.6779
   6723SM  C12F 8740   2.802   7.171  15.108 -0.2703 -0.1097  0.3792
   6723SM  H12F 8741   2.856   7.084  15.152  0.9032  0.9569  1.1065
   6723SM  H12G 8742   2.881   7.234  15.062  0.1686 -1.9429 -1.5057
   6723SM  C13F 8743   2.706   7.124  15.011  0.0026  0.4105 -0.0498
   6723SM  H13F 8744   2.625   7.067  15.060 -0.6854  1.4563  0.0655
   6723SM  H13G 8745   2.751   7.048  14.943 -1.2850  1.2423 -1.9415
   6723SM  C14F 8746   2.646   7.242  14.928  0.8647  0.0487 -0.1168
   6723SM  H14F 8747   2.732   7.299  14.888 -1.3191  2.7388 -1.2711
   6723SM  H14G 8748   2.592   7.317  14.990  0.1821 -1.3624  1.0626
   6723SM  C15F 8749   2.565   7.191  14.808 -0.7892  0.5770 -0.6939
   6723SM  H15F 8750   2.476   7.135  14.843 -0.4488  0.8051  0.5916
   6723SM  H15G 8751   2.637   7.127  14.752 -0.4087  2.0412 -1.9673
   6723SM  C16F 8752   2.518   7.304  14.718  0.6034  0.1868 -0.3499
   6723SM  H16F 8753   2.602   7.344  14.657  1.8744  0.6826  1.6225
   6723SM  H16G 8754   2.481   7.389  14.778  1.1545 -1.2633  2.1749
   6723SM  C17F 8755   2.408   7.253  14.627 -0.5559 -0.3365 -0.4576
   6723SM  H17F 8756   2.373   7.337  14.564 -0.1759  0.7963  0.8041
   6723SM  H17G 8757   2.322   7.221  14.691  0.2967 -1.7766  0.0057
   6723SM  C18F 8758   2.442   7.142  14.526 -0.1636  0.6087  0.1452
   6723SM  H18F 8759   2.445   7.051  14.590 -0.9422  0.3540 -0.1593
   6723SM  H18G 8760   2.539   7.161  14.477 -0.0486 -0.5612 -0.1036
   6723SM  C19F 8761   2.334   7.106  14.414  0.0208 -0.7013 -0.2669
   6723SM  H19F 8762   2.239   7.075  14.462 -0.5871  1.1340 -0.2055
   6723SM  H19G 8763   2.359   7.009  14.367 -3.0552 -2.1245  0.8245
   6723SM  C20F 8764   2.316   7.213  14.302 -0.3401  0.7392 -0.3112
   6723SM  H20F 8765   2.411   7.244  14.253  0.0593  1.3005  0.8085
   6723SM  H20G 8766   2.276   7.297  14.361 -0.3097 -0.6729  1.8053
   6723SM  C21F 8767   2.227   7.179  14.185  0.0806 -0.2381 -0.5151
   6723SM  H21F 8768   2.213   7.268  14.121  1.0699  0.0983 -0.2792
   6723SM  H21G 8769   2.124   7.146  14.212  0.3286 -2.0532 -1.5950
   6723SM  C22F 8770   2.279   7.069  14.084 -0.1623 -0.0406 -0.2238
   6723SM  H22F 8771   2.276   6.965  14.123  0.9789  0.3181  0.8680
   6723SM  H22G 8772   2.388   7.089  14.078 -0.2228  0.6512  0.7092
   6723SM  C23F 8773   2.227   7.085  13.937  0.2489 -0.1588  0.7222
   6723SM  H23F 8774   2.119   7.062  13.924  0.8986 -2.0238 -2.7468
   6723SM  H23G 8775   2.277   7.001  13.883 -0.9885  0.7022 -1.9403
   6723SM  H23H 8776   2.250   7.180  13.886 -0.4912 -0.3367  0.0388
   6823SM     N 8777   2.151   1.754  17.178 -0.0521  0.4200 -0.1958
   6823SM   C15 8778   2.204   1.613  17.201 -0.0136 -0.4659 -0.2096
   6823SM  H15A 8779   2.283   1.591  17.131  0.6187 -0.3098  0.4411
   6823SM  H15B 8780   2.123   1.542  17.206 -1.7474  1.4143 -0.1690
   6823SM  H15C 8781   2.259   1.614  17.294  1.3608  0.4423 -0.9837
   6823SM   C14 8782   2.069   1.791  17.289  0.0935  0.3366 -0.0448
   6823SM  H14A 8783   1.981   1.729  17.296  2.0639 -2.5607  1.2078
   6823SM  H14B 8784   2.032   1.892  17.283 -1.8654 -0.2298  1.5600
   6823SM  H14C 8785   2.116   1.785  17.386 -2.2468  0.2405  1.1491
   6823SM   C13 8786   2.261   1.856  17.169  0.0871  0.5448 -0.0972
   6823SM  H13A 8787   2.335   1.816  17.101 -0.6668 -1.3040  0.1133
   6823SM  H13B 8788   2.316   1.858  17.262  1.6847 -0.7167 -0.9499
   6823SM  H13C 8789   2.218   1.949  17.136 -0.4935  1.2851  2.5231
   6823SM   C12 8790   2.070   1.772  17.050 -0.6470  0.2010  0.5817
   6823SM  H12A 8791   1.986   1.705  17.047  0.3564 -1.0967  0.3531
   6823SM  H12B 8792   2.139   1.749  16.970  0.4069  0.3588  1.4226
   6823SM   C11 8793   2.012   1.908  17.018  0.1061  0.1593 -0.7831
   6823SM  H11A 8794   1.936   1.938  17.093 -0.8131  0.5084 -1.8287
   6823SM  H11B 8795   1.949   1.897  16.928 -0.1732  1.3984 -0.7516
   6823SM     P 8796   2.070   2.149  16.935 -0.0137 -0.1050  0.3586
   6823SM   O13 8797   1.922   2.175  16.971  0.6064 -0.2515  0.0777
   6823SM   O14 8798   2.168   2.250  16.977 -0.8170  0.4166  0.3371
   6823SM   O11 8799   2.088   2.134  16.780  0.1384 -0.4973 -0.5275
   6823SM   O12 8800   2.110   2.007  16.988  0.1134 -0.5776 -0.1476
   6823SM   C1S 8801   2.201   2.052  16.736  0.0105 -0.0428 -0.4612
   6823SM   H1S 8802   2.185   1.946  16.765 -0.0350  0.1236  0.1443
   6823SM   H1T 8803   2.296   2.079  16.788  1.0295 -3.2439 -0.4720
   6823SM    NF 8804   2.376   2.014  16.561  0.1408  0.3679  0.4849
   6823SM   HNF 8805   2.441   2.088  16.544 -0.5797  0.4754 -2.1732
   6823SM   C2S 8806   2.239   2.049  16.581  0.0837  0.0950 -0.0914
   6823SM   H2S 8807   2.164   1.973  16.551 -0.5515  0.4431  0.5829
   6823SM   C3S 8808   2.193   2.180  16.508  0.2592 -0.1451  0.0832
   6823SM   H3S 8809   2.268   2.257  16.537  1.4544 -1.4325  0.5568
   6823SM    O3 8810   2.060   2.225  16.538  0.4556 -0.2483 -0.1350
   6823SM   HO3 8811   2.047   2.198  16.629 -2.1488 -0.7069 -0.5522
   6823SM   C4S 8812   2.208   2.159  16.355 -0.5928 -0.2627 -0.5866
   6823SM   H4S 8813   2.315   2.160  16.329 -1.1249 -0.7334 -3.0218
   6823SM   C5S 8814   2.121   2.121  16.259  0.1441 -0.0242  1.0093
   6823SM   H5S 8815   2.016   2.099  16.286  0.2886 -0.4998  1.1940
   6823SM   C6S 8816   2.168   2.105  16.116  0.1583 -0.2151  0.8804
   6823SM   H6S 8817   2.112   2.173  16.048  1.4003  0.1540  0.1794
   6823SM   H6T 8818   2.150   2.006  16.070 -1.3869  0.9697 -1.2327
   6823SM   C7S 8819   2.317   2.144  16.090 -0.2851  0.2921  0.0285
   6823SM   H7S 8820   2.393   2.073  16.130 -1.3305 -0.1343  1.3185
   6823SM   H7T 8821   2.329   2.244  16.135 -3.1590  1.2708 -1.1763
   6823SM   C8S 8822   2.336   2.157  15.935 -0.2892 -0.7161 -0.7545
   6823SM   H8S 8823   2.442   2.189  15.921 -0.8209  1.5581  0.0438
   6823SM   H8T 8824   2.287   2.248  15.896  1.0791  0.6823  0.6292
   6823SM   C9S 8825   2.305   2.030  15.854  0.9217  0.2058 -0.1872
   6823SM   H9S 8826   2.206   1.988  15.878  0.6748  0.2926 -1.0076
   6823SM   H9T 8827   2.385   1.954  15.867  1.0657  0.6745  1.9463
   6823SM  C10S 8828   2.312   2.052  15.695 -0.2068 -0.3421  0.3257
   6823SM  H10S 8829   2.405   2.097  15.653  0.0059 -0.3650  0.7748
   6823SM  H10T 8830   2.233   2.128  15.676  0.6274  0.9554  1.8238
   6823SM  C11S 8831   2.272   1.927  15.621 -0.1377 -0.3453 -0.7028
   6823SM  H11S 8832   2.241   1.949  15.517 -1.1967  2.4847  0.1301
   6823SM  H11T 8833   2.182   1.897  15.678  1.0880  0.4313  1.8184
   6823SM  C12S 8834   2.365   1.802  15.624  0.5680 -1.0284 -0.2896
   6823SM  H12S 8835   2.371   1.774  15.732 -0.9517  1.4389  0.5349
   6823SM  H12T 8836   2.461   1.841  15.584  0.1136 -0.6513 -1.0360
   6823SM  C13S 8837   2.328   1.685  15.531 -0.2928 -0.0130 -0.1770
   6823SM  H13S 8838   2.372   1.703  15.431  0.8780 -1.3978  0.0508
   6823SM  H13T 8839   2.218   1.676  15.521 -0.8738  0.8159  3.5906
   6823SM  C14S 8840   2.379   1.545  15.576 -0.1940  0.1724 -0.6278
   6823SM  H14S 8841   2.331   1.509  15.670 -2.5206 -2.7668 -2.7482
   6823SM  H14T 8842   2.489   1.543  15.594 -0.2409  3.6895  0.6785
   6823SM  C15S 8843   2.336   1.435  15.473 -0.7875 -1.0087 -0.3143
   6823SM  H15S 8844   2.374   1.472  15.375 -1.8336 -3.3123 -1.6626
   6823SM  H15T 8845   2.225   1.437  15.476 -0.8002  1.8626  0.8021
   6823SM  C16S 8846   2.384   1.295  15.503  0.2481  1.3672  0.2760
   6823SM  H16S 8847   2.333   1.221  15.438 -1.9143  0.0882  3.1833
   6823SM  H16T 8848   2.363   1.275  15.611 -0.1931 -0.2564 -0.0797
   6823SM  C17S 8849   2.534   1.276  15.474 -0.1709 -0.0945 -0.3058
   6823SM  H17S 8850   2.597   1.324  15.552  0.9748 -0.7542 -0.8092
   6823SM  H17T 8851   2.559   1.337  15.384 -0.0125  0.3793  0.0560
   6823SM  C18S 8852   2.584   1.130  15.467  0.9605  0.6652  0.0731
   6823SM  H18S 8853   2.565   1.077  15.562  1.8634 -1.3540 -0.8232
   6823SM  H18T 8854   2.692   1.121  15.440  1.3229 -1.2972  1.9592
   6823SM  H18U 8855   2.517   1.077  15.397 -0.1721 -2.0808  3.0064
   6823SM   C1F 8856   2.428   1.893  16.595 -0.0811  0.3978 -0.2928
   6823SM    OF 8857   2.356   1.804  16.623  0.2531  0.1502 -0.0830
   6823SM   C2F 8858   2.576   1.877  16.599 -0.1502  0.2921  0.6550
   6823SM   H2F 8859   2.603   1.835  16.699 -1.9844 -0.9604  0.6675
   6823SM   H2G 8860   2.632   1.973  16.594  1.1218 -0.1472  3.9105
   6823SM   C3F 8861   2.632   1.764  16.494  0.3040 -0.9255 -0.3248
   6823SM   H3F 8862   2.590   1.669  16.532  0.4705  0.2713  3.2541
   6823SM   H3G 8863   2.741   1.760  16.516 -0.1569 -0.3740  2.4220
   6823SM   C4F 8864   2.619   1.793  16.350 -0.2478  0.0065  0.6611
   6823SM   H4F 8865   2.669   1.889  16.327 -0.4660  0.2504  1.1849
   6823SM   H4G 8866   2.511   1.806  16.328 -0.0253 -2.6860 -3.1015
   6823SM   C5F 8867   2.665   1.686  16.252  0.2092  0.1582  0.1197
   6823SM   H5F 8868   2.607   1.594  16.274  0.3106  0.0654 -0.0044
   6823SM   H5G 8869   2.772   1.659  16.258 -0.3834 -2.0569  2.8501
   6823SM   C6F 8870   2.636   1.730  16.110  0.0477 -0.1274  0.2898
   6823SM   H6F 8871   2.652   1.838  16.089  0.3404 -0.0854  0.7114
   6823SM   H6G 8872   2.525   1.724  16.112 -0.2060  2.7402 -1.1159
   6823SM   C7F 8873   2.684   1.633  16.003  0.4834  0.9490  0.2051
   6823SM   H7F 8874   2.607   1.642  15.923 -0.2554  0.4370  0.8437
   6823SM   H7G 8875   2.687   1.526  16.034  0.7363  0.9454  0.1725
   6823SM   C8F 8876   2.816   1.672  15.935 -0.2103  0.3939 -0.0271
   6823SM   H8F 8877   2.882   1.678  16.025  0.4707 -0.4359 -0.4501
   6823SM   H8G 8878   2.805   1.775  15.897 -2.0684  0.2937  0.1263
   6823SM   C9F 8879   2.869   1.571  15.834  0.2432 -0.2352 -0.5670
   6823SM   H9F 8880   2.897   1.477  15.887  1.8277  0.1562 -0.6458
   6823SM   H9G 8881   2.969   1.610  15.805  0.2042  0.5600  0.2959
   6823SM  C10F 8882   2.787   1.559  15.712  0.1573 -0.9898 -0.0194
   6823SM  H10F 8883   2.767   1.657  15.664  0.7342 -0.5688  0.5884
   6823SM  H10G 8884   2.686   1.519  15.737 -0.8996  0.4997 -1.6493
   6823SM  C11F 8885   2.848   1.454  15.614  0.2143  0.3512 -0.5062
   6823SM  H11F 8886   2.778   1.427  15.533 -0.3959  0.6623 -0.0966
   6823SM  H11G 8887   2.864   1.368  15.683  0.5637  0.0960 -0.9030
   6823SM  C12F 8888   2.982   1.495  15.551  0.2533  0.6050 -0.0359
   6823SM  H12F 8889   3.003   1.395  15.510  0.1640 -0.5028  2.4097
   6823SM  H12G 8890   3.060   1.523  15.625  0.6049 -0.4830  0.0159
   6823SM  C13F 8891   2.965   1.611  15.446  1.0192 -0.7157 -0.2904
   6823SM  H13F 8892   2.921   1.691  15.510 -0.2076 -1.1508 -0.5659
   6823SM  H13G 8893   2.885   1.578  15.376 -0.1354  2.2820 -0.5330
   6823SM  C14F 8894   3.100   1.658  15.384 -0.0416 -0.3787  0.6452
   6823SM  H14F 8895   3.164   1.643  15.473 -0.2071  0.6121  0.9444
   6823SM  H14G 8896   3.098   1.767  15.365 -0.3923 -0.7031 -1.4625
   6823SM  C15F 8897   3.147   1.578  15.257 -0.2481 -0.4369  0.2923
   6823SM  H15F 8898   3.169   1.473  15.285  0.7876 -0.1806  0.4699
   6823SM  H15G 8899   3.238   1.619  15.207 -1.0742  0.6313 -0.4079
   6823SM  C16F 8900   3.034   1.574  15.144 -0.5095 -0.4152 -0.6126
   6823SM  H16F 8901   3.010   1.682  15.141  2.5821  0.4408  1.1884
   6823SM  H16G 8902   2.954   1.506  15.181  0.2871 -0.3642  1.3736
   6823SM  C17F 8903   3.099   1.525  15.014 -0.3939 -0.1513 -0.4359
   6823SM  H17F 8904   3.154   1.431  15.039  0.2808  0.3915  0.1617
   6823SM  H17G 8905   3.176   1.596  14.980 -1.1330  0.8004 -0.1589
   6823SM  C18F 8906   2.995   1.499  14.909  0.1979  0.4146 -0.2907
   6823SM  H18F 8907   2.976   1.587  14.844  0.6230  0.7548  0.0457
   6823SM  H18G 8908   2.899   1.468  14.956 -0.2154  1.3103 -0.5183
   6823SM  C19F 8909   3.028   1.390  14.809  0.2986 -0.0381 -0.5226
   6823SM  H19F 8910   3.020   1.289  14.855 -0.7472  0.7260  1.0825
   6823SM  H19G 8911   3.136   1.395  14.784  0.5539  1.8029  0.7508
   6823SM  C20F 8912   2.932   1.392  14.689  0.3263  0.0127 -0.2118
   6823SM  H20F 8913   2.962   1.481  14.629 -2.3553  0.9792 -0.2255
   6823SM  H20G 8914   2.835   1.406  14.742  0.0324  0.1191 -0.7738
   6823SM  C21F 8915   2.935   1.265  14.607  0.2319  0.5453  0.3615
   6823SM  H21F 8916   2.956   1.183  14.678 -0.1098  0.0699 -0.0749
   6823SM  H21G 8917   3.013   1.266  14.527 -0.3671 -1.5565 -0.3287
   6823SM  C22F 8918   2.802   1.233  14.535  0.5922 -0.4101  0.1021
   6823SM  H22F 8919   2.768   1.329  14.492  0.3189 -0.3837  0.3742
   6823SM  H22G 8920   2.728   1.214  14.615  0.9320 -1.3006  0.2144
   6823SM  C23F 8921   2.799   1.124  14.428 -0.6587 -0.0217  0.0903
   6823SM  H23F 8922   2.854   1.168  14.342 -1.5115 -0.4593 -0.7074
   6823SM  H23G 8923   2.695   1.106  14.394  0.1171 -1.3437 -1.7634
   6823SM  H23H 8924   2.831   1.025  14.468  2.1749  0.6880 -0.2204
   6923SM     N 8925   4.991   1.915  17.349  0.1904  0.0877 -0.2562
   6923SM   C15 8926   4.846   1.920  17.317  0.1042  0.0326 -0.7994
   6923SM  H15A 8927   4.790   1.970  17.394  0.7149 -0.6038  0.0762
   6923SM  H15B 8928   4.801   1.823  17.331  0.9432 -0.0874  1.3910
   6923SM  H15C 8929   4.832   1.964  17.219  1.7368  2.3452 -0.0630
   6923SM   C14 8930   5.054   2.055  17.327  0.7756  0.2524 -0.1957
   6923SM  H14A 8931   5.002   2.138  17.373  0.7495 -0.0621  0.3574
   6923SM  H14B 8932   5.064   2.074  17.221 -1.4659 -1.3091 -0.7618
   6923SM  H14C 8933   5.152   2.059  17.372  1.3682 -2.8167 -0.9492
   6923SM   C13 8934   5.009   1.887  17.497 -0.0403  0.3172 -0.6414
   6923SM  H13A 8935   4.979   1.964  17.567  1.7966  0.5044 -0.0014
   6923SM  H13B 8936   5.117   1.881  17.509 -0.0291  0.9264 -0.3822
   6923SM  H13C 8937   4.972   1.790  17.523  3.0486 -0.9564 -0.5844
   6923SM   C12 8938   5.065   1.820  17.265 -0.1829 -0.1855  0.0808
   6923SM  H12A 8939   5.060   1.717  17.297 -0.8428  0.6793  3.0742
   6923SM  H12B 8940   5.171   1.829  17.283  0.1421 -1.9182 -0.7872
   6923SM   C11 8941   5.064   1.849  17.111 -0.5220  0.1529  0.0766
   6923SM  H11A 8942   4.961   1.861  17.071 -1.0806 -2.0845  0.7156
   6923SM  H11B 8943   5.087   1.764  17.042 -0.2797  1.0790 -1.0081
   6923SM     P 8944   5.299   1.942  17.031 -0.2299 -0.1536 -0.1633
   6923SM   O13 8945   5.344   2.081  16.988  0.3465  1.1188 -0.1210
   6923SM   O14 8946   5.377   1.895  17.147  0.0835  0.4064 -0.0388
   6923SM   O11 8947   5.306   1.838  16.914 -0.1245 -0.7522 -0.0337
   6923SM   O12 8948   5.148   1.957  17.073  0.2978  0.3826 -0.4660
   6923SM   C1S 8949   5.226   1.842  16.791 -0.3597  0.7506 -0.4257
   6923SM   H1S 8950   5.143   1.915  16.793 -1.7616 -0.7937 -0.4379
   6923SM   H1T 8951   5.168   1.747  16.792 -2.4962  1.9918  0.9218
   6923SM    NF 8952   5.239   1.873  16.550  0.0655 -0.3960  0.1752
   6923SM   HNF 8953   5.208   1.802  16.486  1.3666 -0.1588 -0.7563
   6923SM   C2S 8954   5.320   1.848  16.671  0.1694  0.0761 -0.4745
   6923SM   H2S 8955   5.388   1.931  16.698 -0.2705 -0.1915  1.6768
   6923SM   C3S 8956   5.404   1.715  16.673 -0.0502 -0.2105  0.1841
   6923SM   H3S 8957   5.328   1.636  16.652  0.1771 -0.2235 -0.6254
   6923SM    O3 8958   5.460   1.669  16.802 -0.4129 -0.0207  0.2259
   6923SM   HO3 8959   5.410   1.727  16.860  1.3082  1.5314  0.2480
   6923SM   C4S 8960   5.505   1.722  16.568  0.2918  0.4203 -0.4636
   6923SM   H4S 8961   5.469   1.707  16.465 -0.3578  0.3572 -0.2339
   6923SM   C5S 8962   5.631   1.771  16.588  0.2927 -0.0243  0.3170
   6923SM   H5S 8963   5.674   1.784  16.688  0.7514  1.9492 -0.1023
   6923SM   C6S 8964   5.731   1.800  16.480 -0.1198 -0.4788  0.3635
   6923SM   H6S 8965   5.796   1.711  16.464 -2.1052 -1.7486 -1.1426
   6923SM   H6T 8966   5.777   1.896  16.512  1.2928 -1.0512  0.1279
   6923SM   C7S 8967   5.676   1.834  16.340 -0.5571  0.1905  1.2603
   6923SM   H7S 8968   5.622   1.744  16.303  1.3725  0.4321 -2.5565
   6923SM   H7T 8969   5.766   1.853  16.279 -1.1571  0.8270  0.5501
   6923SM   C8S 8970   5.598   1.965  16.327  0.1188 -0.3760 -0.3934
   6923SM   H8S 8971   5.659   2.039  16.382  1.7981 -1.3548 -0.8695
   6923SM   H8T 8972   5.508   1.948  16.390  0.4573  2.2374  0.9192
   6923SM   C9S 8973   5.576   2.028  16.190  0.1072  0.2997 -0.3311
   6923SM   H9S 8974   5.526   1.952  16.126  0.9590  0.7499 -1.5743
   6923SM   H9T 8975   5.670   2.050  16.134 -0.2746  0.6347 -0.8426
   6923SM  C10S 8976   5.490   2.154  16.197  0.0669  0.3654  0.1592
   6923SM  H10S 8977   5.535   2.228  16.268 -0.8793  1.5348 -0.4199
   6923SM  H10T 8978   5.397   2.123  16.249 -0.7558 -0.6238 -1.8323
   6923SM  C11S 8979   5.465   2.226  16.062 -0.4465  0.7121 -0.0298
   6923SM  H11S 8980   5.357   2.218  16.036 -0.3694 -1.1655  0.1216
   6923SM  H11T 8981   5.529   2.173  15.989  2.0205  2.9732  0.3246
   6923SM  C12S 8982   5.487   2.375  16.057 -0.0241  0.2357 -0.1018
   6923SM  H12S 8983   5.584   2.390  16.110 -0.8115 -1.0122  1.7999
   6923SM  H12T 8984   5.418   2.435  16.120  0.5752  1.0378 -0.1948
   6923SM  C13S 8985   5.505   2.427  15.909 -0.2467  0.1108 -0.3074
   6923SM  H13S 8986   5.482   2.535  15.918 -2.8873 -0.4305  0.4400
   6923SM  H13T 8987   5.429   2.377  15.845  0.2399  1.2537 -1.8218
   6923SM  C14S 8988   5.645   2.397  15.844  0.5891  0.3095 -0.1686
   6923SM  H14S 8989   5.672   2.290  15.855  1.4436  0.6142  0.9303
   6923SM  H14T 8990   5.729   2.448  15.897 -1.2275  1.6909  1.5469
   6923SM  C15S 8991   5.645   2.448  15.700  0.2809 -0.0665  0.5476
   6923SM  H15S 8992   5.747   2.487  15.680  0.4806 -1.4202 -1.3420
   6923SM  H15T 8993   5.571   2.531  15.697 -1.2154 -1.3697 -0.8378
   6923SM  C16S 8994   5.607   2.340  15.589  0.2790  0.3230 -0.7413
   6923SM  H16S 8995   5.512   2.292  15.621 -0.5890  1.8034 -1.0291
   6923SM  H16T 8996   5.682   2.259  15.604  2.4543  2.3822  0.1606
   6923SM  C17S 8997   5.607   2.381  15.440 -0.1888 -0.0666  0.9705
   6923SM  H17S 8998   5.632   2.300  15.369 -1.6666  0.1247  0.1870
   6923SM  H17T 8999   5.686   2.456  15.421 -0.3961 -0.0738 -0.0022
   6923SM  C18S 9000   5.477   2.447  15.397  0.0542  0.2024 -0.7060
   6923SM  H18S 9001   5.469   2.518  15.482  2.0966  0.1752 -0.4508
   6923SM  H18T 9002   5.395   2.372  15.389 -1.3227  1.5540  0.2368
   6923SM  H18U 9003   5.491   2.511  15.307 -1.8669  2.1568  0.2945
   6923SM   C1F 9004   5.185   1.992  16.528  0.2452  0.5258 -0.2671
   6923SM    OF 9005   5.198   2.079  16.611 -0.0299 -0.5824  0.1124
   6923SM   C2F 9006   5.086   2.001  16.413  0.3812  0.6492 -0.3481
   6923SM   H2F 9007   4.985   1.967  16.444  1.4593 -1.5593  0.9919
   6923SM   H2G 9008   5.123   1.934  16.333  2.5006  2.0060 -0.5947
   6923SM   C3F 9009   5.093   2.141  16.357 -0.3627  0.7050  1.3054
   6923SM   H3F 9010   5.198   2.178  16.362 -0.2515  0.5059  0.5812
   6923SM   H3G 9011   5.022   2.200  16.418  1.7014  4.9221  0.0034
   6923SM   C4F 9012   5.043   2.160  16.218 -0.0859  0.8831  0.0021
   6923SM   H4F 9013   4.934   2.143  16.205  0.1940 -0.8508 -0.3392
   6923SM   H4G 9014   5.097   2.073  16.174 -0.1489 -0.0942  1.7574
   6923SM   C5F 9015   5.073   2.290  16.142  0.0966 -0.3220 -0.1576
   6923SM   H5F 9016   5.176   2.326  16.163  0.8803 -2.6545  0.2585
   6923SM   H5G 9017   5.011   2.370  16.188  2.0791  1.7410 -0.9004
   6923SM   C6F 9018   5.048   2.290  15.989 -0.4963 -0.3199 -0.2683
   6923SM   H6F 9019   4.944   2.254  15.978 -0.8566  0.6436 -0.1291
   6923SM   H6G 9020   5.116   2.211  15.951 -0.1039 -0.3848  0.5379
   6923SM   C7F 9021   5.074   2.429  15.929 -0.5199 -0.0272 -0.5233
   6923SM   H7F 9022   5.164   2.468  15.981  2.0308 -1.6456 -3.3821
   6923SM   H7G 9023   4.997   2.505  15.954 -1.6772 -0.9887 -1.0859
   6923SM   C8F 9024   5.123   2.425  15.785  0.0774  0.1344 -0.3944
   6923SM   H8F 9025   5.192   2.338  15.779 -1.1577 -0.9189  0.1838
   6923SM   H8G 9026   5.177   2.520  15.768  1.1743 -0.3792  0.1056
   6923SM   C9F 9027   5.016   2.399  15.687 -0.3813 -0.3014 -0.5899
   6923SM   H9F 9028   4.959   2.492  15.669  1.5033  1.9859  3.9093
   6923SM   H9G 9029   4.939   2.329  15.726 -2.0018  1.5246 -0.3957
   6923SM  C10F 9030   5.075   2.370  15.550 -0.8991  0.1768 -0.2904
   6923SM  H10F 9031   5.081   2.266  15.511  2.6545 -0.0301  0.4483
   6923SM  H10G 9032   5.183   2.397  15.560 -0.8594 -0.6086  1.8930
   6923SM  C11F 9033   5.003   2.442  15.436 -0.0930  0.6895 -0.2993
   6923SM  H11F 9034   5.016   2.552  15.448  1.2196  0.5093  0.0807
   6923SM  H11G 9035   4.898   2.404  15.437  0.7270 -1.7725 -0.4343
   6923SM  C12F 9036   5.050   2.408  15.297 -0.1056  0.1244 -0.3590
   6923SM  H12F 9037   5.019   2.305  15.272  1.5057 -0.1730 -1.2469
   6923SM  H12G 9038   5.159   2.421  15.282 -0.3706 -0.9423 -4.3669
   6923SM  C13F 9039   4.983   2.507  15.198  0.7818 -0.2586  0.5725
   6923SM  H13F 9040   5.036   2.603  15.211  0.7349 -0.3011  1.0995
   6923SM  H13G 9041   4.874   2.527  15.208  0.0758 -1.7499 -2.6434
   6923SM  C14F 9042   5.014   2.461  15.051 -0.0980  0.1381  0.4330
   6923SM  H14F 9043   4.993   2.352  15.040 -0.2199  0.0523  1.4401
   6923SM  H14G 9044   5.122   2.470  15.028 -0.4726 -1.9577 -2.7182
   6923SM  C15F 9045   4.933   2.537  14.945  0.7171  0.6567  0.0873
   6923SM  H15F 9046   4.972   2.641  14.934 -1.6825  1.7354  1.1265
   6923SM  H15G 9047   4.830   2.552  14.983 -0.5130 -0.9171 -2.3283
   6923SM  C16F 9048   4.920   2.471  14.809  0.5020  0.0625 -0.3906
   6923SM  H16F 9049   5.019   2.439  14.770  1.2393  1.2228  0.4761
   6923SM  H16G 9050   4.877   2.547  14.740 -0.5773  0.6787  0.9182
   6923SM  C17F 9051   4.835   2.343  14.814 -0.2148 -0.8595 -0.1199
   6923SM  H17F 9052   4.887   2.281  14.889 -0.6747 -0.9672  0.1125
   6923SM  H17G 9053   4.841   2.288  14.717 -1.0703 -1.7868  0.3380
   6923SM  C18F 9054   4.686   2.368  14.847  0.8009  0.2531 -0.3264
   6923SM  H18F 9055   4.644   2.429  14.765  2.2145 -0.3096 -1.5312
   6923SM  H18G 9056   4.662   2.421  14.941 -1.5485  1.0925 -1.3477
   6923SM  C19F 9057   4.626   2.226  14.848 -0.1031  0.4793 -0.2879
   6923SM  H19F 9058   4.672   2.171  14.932  0.7358  0.6173 -0.6504
   6923SM  H19G 9059   4.658   2.172  14.756 -2.5334 -0.3384 -0.7506
   6923SM  C20F 9060   4.468   2.221  14.857  0.4803 -0.4007 -0.0575
   6923SM  H20F 9061   4.421   2.264  14.767 -0.7584  0.2149  0.8503
   6923SM  H20G 9062   4.440   2.289  14.941  0.0858 -0.6237 -0.0071
   6923SM  C21F 9063   4.410   2.081  14.881  0.1852 -0.1235 -0.0016
   6923SM  H21F 9064   4.436   2.052  14.985 -1.3078 -1.6821 -0.0123
   6923SM  H21G 9065   4.462   2.008  14.815  0.7250  1.7570 -1.7628
   6923SM  C22F 9066   4.265   2.073  14.832  0.2483 -0.5629 -0.7408
   6923SM  H22F 9067   4.234   1.968  14.848 -2.6066 -0.1933 -2.9852
   6923SM  H22G 9068   4.264   2.092  14.722 -1.5731  0.5402 -0.5733
   6923SM  C23F 9069   4.163   2.167  14.897 -1.0041 -0.2287 -0.3379
   6923SM  H23F 9070   4.216   2.263  14.884  4.3875 -2.8529 -0.4244
   6923SM  H23G 9071   4.151   2.141  15.004  2.0630  0.9109  0.3868
   6923SM  H23H 9072   4.068   2.166  14.838  0.8647  1.4305 -3.6608
   7023SM     N 9073   4.163   0.994  16.789  1.0104  0.4885 -0.0279
   7023SM   C15 9074   4.058   1.038  16.695 -0.2681  0.2137 -0.3258
   7023SM  H15A 9075   4.091   1.034  16.592  1.9641  0.5883  0.3151
   7023SM  H15B 9076   4.033   1.140  16.719 -0.1753 -0.0579  0.9627
   7023SM  H15C 9077   3.966   0.983  16.693 -0.6462  0.6871 -4.3874
   7023SM   C14 9078   4.118   1.012  16.927  0.0437 -0.3241  0.0349
   7023SM  H14A 9079   4.119   1.120  16.940  0.7995  0.0090 -2.1918
   7023SM  H14B 9080   4.187   0.975  17.001  0.8432 -1.2475 -1.1296
   7023SM  H14C 9081   4.018   0.973  16.936  0.4771 -2.0765 -1.9810
   7023SM   C13 9082   4.186   0.846  16.760 -0.3472  0.1282  0.1978
   7023SM  H13A 9083   4.103   0.790  16.798  0.0667  0.1234  1.1093
   7023SM  H13B 9084   4.270   0.813  16.819  0.3400 -0.4885 -1.0677
   7023SM  H13C 9085   4.200   0.819  16.656 -3.5360  1.2893 -0.6512
   7023SM   C12 9086   4.297   1.058  16.765  0.7016 -0.1228  0.7009
   7023SM  H12A 9087   4.332   1.013  16.673 -3.5847  0.7228 -1.6111
   7023SM  H12B 9088   4.373   1.027  16.835  0.2601  0.3901  1.4316
   7023SM   C11 9089   4.303   1.205  16.743  1.1404 -1.2121 -0.3637
   7023SM  H11A 9090   4.239   1.243  16.661  3.6490 -1.5708 -2.6264
   7023SM  H11B 9091   4.400   1.227  16.694 -0.2678 -2.5401 -4.1182
   7023SM     P 9092   4.198   1.402  16.883  0.2507 -0.2944 -0.3882
   7023SM   O13 9093   4.060   1.355  16.869 -0.0890  0.0596 -0.7997
   7023SM   O14 9094   4.224   1.473  17.011  0.5458  0.5658  0.2926
   7023SM   O11 9095   4.236   1.500  16.768 -0.4159  0.4084  0.0314
   7023SM   O12 9096   4.295   1.283  16.865 -0.6721 -0.1138 -0.1779
   7023SM   C1S 9097   4.375   1.534  16.751 -0.3481  0.1596  0.6713
   7023SM   H1S 9098   4.453   1.461  16.780 -2.6726 -2.5757  0.4839
   7023SM   H1T 9099   4.398   1.629  16.804 -0.0310  0.1828  0.4975
   7023SM    NF 9100   4.542   1.587  16.573  0.1408  0.1670 -0.2396
   7023SM   HNF 9101   4.569   1.673  16.530  0.4415  0.4566  0.5091
   7023SM   C2S 9102   4.401   1.566  16.599  0.1793 -0.0667 -0.3222
   7023SM   H2S 9103   4.369   1.476  16.543  0.9077 -1.5082  1.4762
   7023SM   C3S 9104   4.304   1.667  16.546  0.2664  0.0514  0.1943
   7023SM   H3S 9105   4.313   1.758  16.609  1.6528  0.8996 -1.1557
   7023SM    O3 9106   4.168   1.630  16.534 -0.3020 -0.1649 -0.0317
   7023SM   HO3 9107   4.139   1.576  16.608 -1.7486 -2.5859 -2.2191
   7023SM   C4S 9108   4.343   1.714  16.413 -0.5443 -0.6734  0.7732
   7023SM   H4S 9109   4.320   1.630  16.345 -1.9552 -0.3162  0.7773
   7023SM   C5S 9110   4.369   1.842  16.377  0.1759 -0.2931  0.2475
   7023SM   H5S 9111   4.363   1.923  16.451  2.8329 -0.3148  0.5809
   7023SM   C6S 9112   4.395   1.886  16.236  0.7161 -0.3018 -0.1918
   7023SM   H6S 9113   4.502   1.916  16.240  0.3123  1.2113 -0.2076
   7023SM   H6T 9114   4.347   1.984  16.216  0.7507 -0.3971 -0.7542
   7023SM   C7S 9115   4.368   1.787  16.117 -0.1141 -0.6193  0.5215
   7023SM   H7S 9116   4.261   1.759  16.110  0.2467 -2.6336  1.9575
   7023SM   H7T 9117   4.433   1.697  16.127  0.7988  0.0919  1.2142
   7023SM   C8S 9118   4.401   1.852  15.987  0.1302  0.7511 -0.2289
   7023SM   H8S 9119   4.511   1.868  15.979  0.5582 -2.2406 -1.8589
   7023SM   H8T 9120   4.341   1.944  15.976  0.5606  1.4992  2.9166
   7023SM   C9S 9121   4.358   1.757  15.871  0.0124  0.1607 -0.1093
   7023SM   H9S 9122   4.258   1.713  15.891 -0.2298 -0.1528 -1.8903
   7023SM   H9T 9123   4.433   1.675  15.881  0.8336  0.7420 -1.3115
   7023SM  C10S 9124   4.348   1.813  15.727 -0.1045  0.5855  0.1313
   7023SM  H10S 9125   4.322   1.727  15.661 -0.3612  0.5042  0.3369
   7023SM  H10T 9126   4.440   1.867  15.697 -0.1521  0.7936  0.3587
   7023SM  C11S 9127   4.244   1.922  15.717  0.1715  0.4761 -0.0570
   7023SM  H11S 9128   4.276   2.010  15.777  0.0365  1.4056 -1.2953
   7023SM  H11T 9129   4.153   1.885  15.769  1.7969 -1.5429  1.5383
   7023SM  C12S 9130   4.212   1.982  15.581 -0.1026 -0.3271 -0.2715
   7023SM  H12S 9131   4.312   1.999  15.537  0.4453  0.2347  1.1293
   7023SM  H12T 9132   4.164   2.082  15.581  0.6467  0.0415  0.1778
   7023SM  C13S 9133   4.114   1.893  15.512 -0.4569  0.1579  0.0014
   7023SM  H13S 9134   4.016   1.910  15.560  0.6039  1.8910  1.7162
   7023SM  H13T 9135   4.144   1.787  15.529  1.3598  0.5205 -0.6227
   7023SM  C14S 9136   4.102   1.907  15.357  0.2714 -0.5416 -0.1741
   7023SM  H14S 9137   4.205   1.921  15.316  0.1508  0.1916 -0.2451
   7023SM  H14T 9138   4.050   2.005  15.347 -1.1599 -1.1008  1.4215
   7023SM  C15S 9139   4.014   1.801  15.300 -0.8107  0.7129 -0.5533
   7023SM  H15S 9140   3.916   1.802  15.352 -0.1249  0.3054  0.7849
   7023SM  H15T 9141   4.062   1.703  15.320 -0.1891  1.5442  2.4455
   7023SM  C16S 9142   3.996   1.818  15.145 -0.3191  0.2546 -0.3229
   7023SM  H16S 9143   3.959   1.723  15.099  0.2201 -0.4126  0.5731
   7023SM  H16T 9144   4.102   1.831  15.116  0.1662 -1.9763  0.2493
   7023SM  C17S 9145   3.906   1.936  15.107 -0.3304 -0.2560  0.2465
   7023SM  H17S 9146   3.951   2.030  15.147  1.1766  0.2022 -2.2382
   7023SM  H17T 9147   3.806   1.931  15.154  0.3660  0.7420  1.9281
   7023SM  C18S 9148   3.898   1.944  14.950 -0.1210 -0.6471  0.6476
   7023SM  H18S 9149   3.996   1.944  14.898 -0.2016 -4.2056  0.3104
   7023SM  H18T 9150   3.847   2.036  14.912  0.2165 -0.9055 -0.4523
   7023SM  H18U 9151   3.846   1.855  14.908  0.1359  0.0030 -1.1483
   7023SM   C1F 9152   4.646   1.519  16.602 -0.5482 -0.0246 -0.7987
   7023SM    OF 9153   4.633   1.412  16.665 -0.7146  0.0094 -0.1533
   7023SM   C2F 9154   4.785   1.575  16.559 -1.1487  0.4006  0.5696
   7023SM   H2F 9155   4.818   1.511  16.474 -3.0312 -1.2417  0.9918
   7023SM   H2G 9156   4.859   1.549  16.639 -0.3508 -1.2138 -0.6208
   7023SM   C3F 9157   4.785   1.727  16.535  0.2461 -0.7360  0.2887
   7023SM   H3F 9158   4.891   1.759  16.548  0.6644 -1.0479 -1.8677
   7023SM   H3G 9159   4.724   1.787  16.606  0.3159  3.2458 -2.6151
   7023SM   C4F 9160   4.735   1.758  16.386  0.0323  0.0640 -0.0102
   7023SM   H4F 9161   4.707   1.865  16.392 -1.4663 -0.2287 -1.2760
   7023SM   H4G 9162   4.639   1.708  16.363 -0.2263  0.8832 -0.7543
   7023SM   C5F 9163   4.838   1.728  16.271  0.3109 -0.0502 -0.0877
   7023SM   H5F 9164   4.832   1.622  16.237  1.5952  0.1197 -0.9416
   7023SM   H5G 9165   4.942   1.752  16.303 -0.2898  0.9877  1.1878
   7023SM   C6F 9166   4.799   1.828  16.162 -0.6644 -0.3757 -0.1219
   7023SM   H6F 9167   4.807   1.927  16.213  2.3653 -0.8209  0.4670
   7023SM   H6G 9168   4.692   1.815  16.136 -1.0448 -2.0815  2.0152
   7023SM   C7F 9169   4.898   1.829  16.046  0.1837  0.1973  0.2831
   7023SM   H7F 9170   4.895   1.728  16.000 -0.4139  0.2577  0.1732
   7023SM   H7G 9171   5.003   1.842  16.078  0.9429 -0.7400 -1.6489
   7023SM   C8F 9172   4.869   1.939  15.944  0.4778 -0.4925 -0.0836
   7023SM   H8F 9173   4.930   2.029  15.967 -0.4598  0.3451 -0.7838
   7023SM   H8G 9174   4.760   1.963  15.938  0.6009  0.5220  1.2687
   7023SM   C9F 9175   4.916   1.899  15.799 -0.7701  0.1702  0.4361
   7023SM   H9F 9176   4.842   1.836  15.747  0.9789  0.5327 -2.7895
   7023SM   H9G 9177   5.016   1.850  15.805 -0.7817 -0.1874 -1.5694
   7023SM  C10F 9178   4.939   2.009  15.695 -0.2517 -0.0701  0.1206
   7023SM  H10F 9179   5.012   2.079  15.742  0.7810 -1.1368  0.1430
   7023SM  H10G 9180   4.841   2.060  15.689 -0.6774 -0.5668  2.2594
   7023SM  C11F 9181   4.996   1.974  15.553 -0.2474 -0.2887  0.7011
   7023SM  H11F 9182   5.017   2.068  15.498 -0.6694 -0.8743 -0.4956
   7023SM  H11G 9183   4.914   1.921  15.500 -0.5982  0.3763  0.5749
   7023SM  C12F 9184   5.122   1.880  15.544  0.9286 -0.5257 -0.1690
   7023SM  H12F 9185   5.095   1.785  15.594  2.4466 -0.6875  0.4084
   7023SM  H12G 9186   5.213   1.922  15.592  0.7824  0.4959 -0.7621
   7023SM  C13F 9187   5.168   1.844  15.402 -0.0983 -0.4996  0.4426
   7023SM  H13F 9188   5.085   1.796  15.347 -1.0510  0.6461  0.8172
   7023SM  H13G 9189   5.258   1.779  15.397  0.9415  0.9282 -0.1967
   7023SM  C14F 9190   5.211   1.973  15.325 -0.4154  0.1630  0.0314
   7023SM  H14F 9191   5.301   2.008  15.380  1.0034 -2.8268 -0.1958
   7023SM  H14G 9192   5.123   2.041  15.325 -0.4044  0.2253 -1.7258
   7023SM  C15F 9193   5.266   1.941  15.182  0.1754  0.2573 -0.0548
   7023SM  H15F 9194   5.191   1.901  15.110 -0.0391 -1.1397  0.9147
   7023SM  H15G 9195   5.357   1.879  15.194 -0.4281 -0.8017 -0.7622
   7023SM  C16F 9196   5.314   2.074  15.109  0.0183  0.0570  0.3143
   7023SM  H16F 9197   5.384   2.135  15.170  1.3470  0.7476 -1.8219
   7023SM  H16G 9198   5.223   2.137  15.096  0.7184  1.1930  0.7605
   7023SM  C17F 9199   5.395   2.050  14.986  0.0696  0.2656  0.0782
   7023SM  H17F 9200   5.335   2.000  14.907 -0.0398  0.2461  0.1728
   7023SM  H17G 9201   5.480   1.980  15.001 -1.4024 -1.8783 -1.1386
   7023SM  C18F 9202   5.455   2.179  14.931 -0.0818 -0.1132 -0.5340
   7023SM  H18F 9203   5.516   2.226  15.011 -1.2090  0.5695 -0.0507
   7023SM  H18G 9204   5.380   2.258  14.908  0.5557  1.0203  1.0938
   7023SM  C19F 9205   5.563   2.165  14.817 -1.1280  0.6376  0.9431
   7023SM  H19F 9206   5.631   2.086  14.858 -1.0607  0.3456  0.2918
   7023SM  H19G 9207   5.620   2.257  14.795 -0.4711  0.1808  0.6929
   7023SM  C20F 9208   5.491   2.127  14.692 -0.7468  0.1912  0.2993
   7023SM  H20F 9209   5.440   2.217  14.652  2.4130  0.4864 -3.6377
   7023SM  H20G 9210   5.419   2.043  14.697 -3.5957  2.5348  1.2253
   7023SM  C21F 9211   5.596   2.101  14.578 -0.3182  0.4779  0.3954
   7023SM  H21F 9212   5.691   2.069  14.626 -1.3158 -1.0610  1.4178
   7023SM  H21G 9213   5.634   2.196  14.535  2.1272 -0.5842  0.0639
   7023SM  C22F 9214   5.548   2.009  14.466 -0.1143  0.0582 -0.0601
   7023SM  H22F 9215   5.447   2.040  14.435  0.2363 -0.6862 -2.1061
   7023SM  H22G 9216   5.535   1.903  14.500  0.1029  0.6586  2.0463
   7023SM  C23F 9217   5.637   2.020  14.336  0.4510 -0.0566 -0.3107
   7023SM  H23F 9218   5.588   1.988  14.242 -0.5414  1.9086 -0.4983
   7023SM  H23G 9219   5.734   1.970  14.355  2.9467  4.5527  0.5587
   7023SM  H23H 9220   5.677   2.123  14.334 -0.3048  0.2259 -2.1065
   7123SM     N 9221   4.109   0.659  17.384 -0.2594 -0.2054 -0.8682
   7123SM   C15 9222   4.035   0.530  17.401  0.6162 -0.0536 -0.3313
   7123SM  H15A 9223   4.083   0.458  17.465  2.0531  1.0558 -0.0930
   7123SM  H15B 9224   4.019   0.495  17.300  0.4198  1.0238 -0.6861
   7123SM  H15C 9225   3.939   0.559  17.441  1.2816  2.4604 -0.4004
   7123SM   C14 9226   4.127   0.723  17.521  0.0496 -0.3460 -0.1961
   7123SM  H14A 9227   4.186   0.813  17.509 -0.5431  0.5132  2.5588
   7123SM  H14B 9228   4.189   0.663  17.587 -1.2828  0.0262  1.4621
   7123SM  H14C 9229   4.039   0.728  17.584  1.3039 -3.0822  2.0682
   7123SM   C13 9230   4.234   0.635  17.314 -0.1854  0.7089  0.0682
   7123SM  H13A 9231   4.216   0.607  17.211 -0.7378 -0.0650  0.3669
   7123SM  H13B 9232   4.283   0.550  17.359 -1.1160 -0.4545 -1.0398
   7123SM  H13C 9233   4.300   0.720  17.322 -2.6305  2.9484 -1.9576
   7123SM   C12 9234   4.021   0.751  17.298  0.2543 -0.3163 -0.8310
   7123SM  H12A 9235   4.075   0.844  17.287  0.4690 -0.3869 -0.4014
   7123SM  H12B 9236   3.929   0.762  17.352  0.5859  1.0762 -0.5187
   7123SM   C11 9237   4.007   0.701  17.154 -0.4036 -0.1045  1.4397
   7123SM  H11A 9238   4.109   0.721  17.113 -0.7808 -0.6332  0.1924
   7123SM  H11B 9239   3.947   0.769  17.089 -0.7519 -2.5464 -0.9725
   7123SM     P 9240   3.802   0.554  17.139 -0.2485  0.2289  0.2207
   7123SM   O13 9241   3.773   0.405  17.124  0.7115  0.4455  0.5198
   7123SM   O14 9242   3.753   0.619  17.268 -0.2521 -0.0962  0.4333
   7123SM   O11 9243   3.745   0.624  17.001  0.2053 -0.0581  0.0027
   7123SM   O12 9244   3.959   0.569  17.130 -0.1524 -0.2592  0.2957
   7123SM   C1S 9245   3.771   0.545  16.885  0.3109  0.4006  0.0181
   7123SM   H1S 9246   3.717   0.448  16.888 -1.6963  1.4605  0.3953
   7123SM   H1T 9247   3.877   0.513  16.880 -0.3601 -1.8471 -1.3499
   7123SM    NF 9248   3.743   0.529  16.637  0.0412  0.4259  0.4339
   7123SM   HNF 9249   3.812   0.532  16.566 -0.8621 -0.1409 -0.5070
   7123SM   C2S 9250   3.733   0.617  16.752  0.3373  0.3475  0.2206
   7123SM   H2S 9251   3.631   0.659  16.753 -0.0617 -0.5914  0.0632
   7123SM   C3S 9252   3.826   0.734  16.737  0.1762 -0.3481 -0.0704
   7123SM   H3S 9253   3.922   0.686  16.710  1.2752  0.7279  1.7307
   7123SM    O3 9254   3.851   0.804  16.856  0.0317 -0.8914 -0.0210
   7123SM   HO3 9255   3.796   0.757  16.919 -1.8529  2.1260  0.8048
   7123SM   C4S 9256   3.792   0.822  16.609 -0.2649  0.7204 -0.0318
   7123SM   H4S 9257   3.854   0.789  16.524 -0.0734 -2.7597  1.2869
   7123SM   C5S 9258   3.722   0.933  16.604 -0.6165 -0.4797  0.8256
   7123SM   H5S 9259   3.677   0.979  16.693  1.5294  1.1270  1.1587
   7123SM   C6S 9260   3.715   1.030  16.483 -0.3873  0.5596 -0.3160
   7123SM   H6S 9261   3.762   1.130  16.492 -0.4854  0.6650 -0.9721
   7123SM   H6T 9262   3.607   1.049  16.465 -0.9332 -2.2315 -0.3424
   7123SM   C7S 9263   3.774   0.980  16.349 -0.5691  0.3764 -0.0098
   7123SM   H7S 9264   3.717   0.887  16.330 -0.9076  0.3296  1.1842
   7123SM   H7T 9265   3.883   0.959  16.342 -0.6831 -0.1226 -0.3659
   7123SM   C8S 9266   3.741   1.066  16.227  0.5145 -0.1844  0.5998
   7123SM   H8S 9267   3.819   1.144  16.213  0.5080  0.0321  1.6889
   7123SM   H8T 9268   3.639   1.110  16.234  0.5448  0.2781 -1.3440
   7123SM   C9S 9269   3.758   0.973  16.105  0.3914 -0.0003  0.2520
   7123SM   H9S 9270   3.677   0.897  16.106 -0.5539  0.9324  2.6380
   7123SM   H9T 9271   3.849   0.910  16.102  0.8671  0.6673  0.5398
   7123SM  C10S 9272   3.728   1.048  15.975  0.2843  0.2001 -0.5940
   7123SM  H10S 9273   3.809   1.015  15.906 -0.2304  0.4568 -1.3404
   7123SM  H10T 9274   3.739   1.158  15.989 -0.6037  0.3987 -1.3499
   7123SM  C11S 9275   3.587   1.031  15.918  0.1467  0.4631  1.1871
   7123SM  H11S 9276   3.517   1.035  16.004  0.1578 -0.6521  1.2663
   7123SM  H11T 9277   3.592   0.936  15.860  2.2884 -0.1572  2.2835
   7123SM  C12S 9278   3.549   1.141  15.822 -0.1678 -0.9313 -0.2270
   7123SM  H12S 9279   3.573   1.238  15.871  0.6886 -0.8870 -0.7080
   7123SM  H12T 9280   3.440   1.142  15.804 -0.0918  1.0559 -0.8575
   7123SM  C13S 9281   3.639   1.140  15.689  0.1524 -0.7975 -0.9992
   7123SM  H13S 9282   3.635   1.036  15.651  2.0607 -1.6347  0.8536
   7123SM  H13T 9283   3.745   1.160  15.716 -0.6943 -0.6451  2.7007
   7123SM  C14S 9284   3.590   1.235  15.583 -0.0266  0.0154 -0.3575
   7123SM  H14S 9285   3.590   1.335  15.631 -4.0035 -0.2410  0.4742
   7123SM  H14T 9286   3.486   1.208  15.555  0.3969 -2.7411  0.4066
   7123SM  C15S 9287   3.676   1.225  15.460  0.1174 -0.4354 -0.2883
   7123SM  H15S 9288   3.682   1.118  15.430 -0.3387 -1.4529  2.8740
   7123SM  H15T 9289   3.778   1.256  15.492 -0.1643 -0.2860  0.4834
   7123SM  C16S 9290   3.628   1.305  15.342  0.0262 -0.2915 -0.4737
   7123SM  H16S 9291   3.689   1.274  15.255 -2.0283 -1.9304 -1.4089
   7123SM  H16T 9292   3.650   1.412  15.364  1.7278 -0.4622 -1.1920
   7123SM  C17S 9293   3.480   1.292  15.314  0.1385  0.0911  0.2810
   7123SM  H17S 9294   3.425   1.342  15.397 -1.0797  0.4307 -0.7035
   7123SM  H17T 9295   3.461   1.185  15.336  0.7739  0.2908  1.9597
   7123SM  C18S 9296   3.437   1.355  15.186 -0.2637 -0.5532  0.3577
   7123SM  H18S 9297   3.468   1.290  15.101 -2.7562 -1.2490 -0.0861
   7123SM  H18T 9298   3.478   1.457  15.170  0.1222 -0.8242 -0.4383
   7123SM  H18U 9299   3.327   1.353  15.177 -0.0828 -0.6195 -3.5468
   7123SM   C1F 9300   3.651   0.430  16.615 -0.3887 -0.4153  0.1296
   7123SM    OF 9301   3.555   0.411  16.691 -0.3378 -0.5011  0.6421
   7123SM   C2F 9302   3.679   0.344  16.490 -0.1228  0.0708  0.4079
   7123SM   H2F 9303   3.756   0.266  16.511  0.0858 -0.4669 -2.0142
   7123SM   H2G 9304   3.718   0.410  16.409  0.4446 -2.5368 -1.5763
   7123SM   C3F 9305   3.547   0.287  16.441 -0.3510  0.2640  0.0819
   7123SM   H3F 9306   3.471   0.367  16.438  0.5117  1.0870 -0.2900
   7123SM   H3G 9307   3.509   0.210  16.512  0.6260  1.8741  2.4774
   7123SM   C4F 9308   3.554   0.227  16.291 -1.0320  0.4412  0.0316
   7123SM   H4F 9309   3.627   0.143  16.297 -0.0467  0.9804 -2.8784
   7123SM   H4G 9310   3.601   0.305  16.228 -0.8892  1.3667  1.2498
   7123SM   C5F 9311   3.411   0.183  16.246 -0.0310 -0.2884 -0.2543
   7123SM   H5F 9312   3.350   0.276  16.250  1.6602  0.9041 -0.9971
   7123SM   H5G 9313   3.361   0.120  16.323 -0.2792  0.3111  0.0851
   7123SM   C6F 9314   3.391   0.130  16.105 -0.2569  0.4829 -0.3280
   7123SM   H6F 9315   3.286   0.101  16.088 -0.4825  0.8518  0.3778
   7123SM   H6G 9316   3.448   0.034  16.105 -0.1318  0.5272 -1.9705
   7123SM   C7F 9317   3.456   0.218  15.995  0.5151 -0.2513 -0.4480
   7123SM   H7F 9318   3.566   0.208  15.995  0.3535 -2.8083 -1.7580
   7123SM   H7G 9319   3.430   0.325  16.013 -1.7899 -0.8623  0.2895
   7123SM   C8F 9320   3.415   0.180  15.853 -0.7112 -0.7393  0.2753
   7123SM   H8F 9321   3.307   0.201  15.833 -0.4576 -1.2741 -1.9324
   7123SM   H8G 9322   3.420   0.070  15.840 -1.7097 -0.9482  1.4924
   7123SM   C9F 9323   3.500   0.241  15.741  0.0491 -0.1881  0.7988
   7123SM   H9F 9324   3.602   0.200  15.752  0.5457  1.2705  1.9674
   7123SM   H9G 9325   3.499   0.351  15.755  2.2725  0.3287 -2.2062
   7123SM  C10F 9326   3.430   0.198  15.605 -0.3875 -0.3028 -0.4725
   7123SM  H10F 9327   3.450   0.277  15.530  3.5365  0.8089  1.4795
   7123SM  H10G 9328   3.320   0.190  15.619 -0.2778 -3.3341 -0.5931
   7123SM  C11F 9329   3.486   0.060  15.556 -0.6107 -0.1055  0.1973
   7123SM  H11F 9330   3.442  -0.012  15.628  1.2819 -1.3755  0.1510
   7123SM  H11G 9331   3.596   0.046  15.566 -0.7576 -1.2752  0.2369
   7123SM  C12F 9332   3.450   0.036  15.413 -0.0052 -0.3677 -0.0395
   7123SM  H12F 9333   3.498   0.106  15.342  1.5267 -1.1163  0.2157
   7123SM  H12G 9334   3.343   0.048  15.386  0.4423  2.7921 -0.7745
   7123SM  C13F 9335   3.512  -0.102  15.368 -0.3030 -0.3973  0.2290
   7123SM  H13F 9336   3.464  -0.179  15.431 -2.2069 -1.2063 -2.0391
   7123SM  H13G 9337   3.622  -0.095  15.387  0.2698 -2.5125 -1.8735
   7123SM  C14F 9338   3.487  -0.149  15.230 -0.0181 -0.1347  0.4465
   7123SM  H14F 9339   3.529  -0.252  15.222  2.5688  0.7857  1.4055
   7123SM  H14G 9340   3.540  -0.082  15.159  0.1018 -0.7244 -0.0281
   7123SM  C15F 9341   3.338  -0.157  15.183 -0.2015  0.1996 -0.1258
   7123SM  H15F 9342   3.291  -0.059  15.204 -0.2518 -0.1005  1.2283
   7123SM  H15G 9343   3.290  -0.235  15.246 -0.5282 -0.6104 -1.3519
   7123SM  C16F 9344   3.321  -0.191  15.028 -0.1353  0.6470 -0.2077
   7123SM  H16F 9345   3.391  -0.273  15.004 -0.8441 -0.6655  1.9466
   7123SM  H16G 9346   3.353  -0.098  14.976 -1.3583  0.5136 -1.2415
   7123SM  C17F 9347   3.179  -0.241  14.987 -0.0763 -0.3579 -0.3584
   7123SM  H17F 9348   3.110  -0.154  14.991  1.9120  1.2956 -0.0569
   7123SM  H17G 9349   3.144  -0.307  15.069 -1.2710  0.6870  0.0068
   7123SM  C18F 9350   3.182  -0.318  14.858 -0.7103  0.6209  0.2671
   7123SM  H18F 9351   3.087  -0.375  14.854 -0.8956  0.7596  1.9162
   7123SM  H18G 9352   3.257  -0.399  14.868  0.1904  1.2789 -0.8748
   7123SM  C19F 9353   3.203  -0.216  14.743  0.0003 -0.0812 -0.1032
   7123SM  H19F 9354   3.301  -0.166  14.755 -0.4891  0.6627  0.9407
   7123SM  H19G 9355   3.128  -0.133  14.744  1.3248  1.1843 -0.8369
   7123SM  C20F 9356   3.210  -0.289  14.612 -0.5173  0.7302  0.0976
   7123SM  H20F 9357   3.117  -0.343  14.585 -0.1359  0.6395 -1.0784
   7123SM  H20G 9358   3.298  -0.356  14.620  1.6350  2.8676 -3.3481
   7123SM  C21F 9359   3.251  -0.197  14.492  0.0811  0.2488 -0.3796
   7123SM  H21F 9360   3.347  -0.144  14.508  0.9326 -0.9171 -1.4723
   7123SM  H21G 9361   3.174  -0.120  14.468  0.9587  1.1536 -0.3394
   7123SM  C22F 9362   3.264  -0.268  14.354 -0.2012  0.2352  0.3361
   7123SM  H22F 9363   3.162  -0.299  14.323  0.3507 -0.4857 -0.8580
   7123SM  H22G 9364   3.323  -0.362  14.361 -1.7548 -0.9671 -1.5185
   7123SM  C23F 9365   3.324  -0.165  14.253  0.1278 -0.1897  0.5942
   7123SM  H23F 9366   3.307  -0.186  14.145  1.7102  1.3113  0.0027
   7123SM  H23G 9367   3.433  -0.143  14.259 -0.0012  1.0392 -0.9140
   7123SM  H23H 9368   3.273  -0.071  14.283  2.3331  0.7441  1.6505
   7223SM     N 9369   6.401   3.977  17.491  0.4874 -0.5286 -0.1309
   7223SM   C15 9370   6.361   3.831  17.475  0.0752  0.6044  0.2476
   7223SM  H15A 9371   6.343   3.767  17.560 -2.1252  0.4921 -0.2363
   7223SM  H15B 9372   6.437   3.784  17.415 -0.5010  0.2629 -0.2234
   7223SM  H15C 9373   6.274   3.824  17.411  0.5999 -1.1010 -0.3159
   7223SM   C14 9374   6.295   4.040  17.576  0.0575  0.7050  0.1338
   7223SM  H14A 9375   6.272   3.969  17.654  0.8343  0.6315  0.3012
   7223SM  H14B 9376   6.200   4.061  17.529 -0.1025 -0.8614 -0.2741
   7223SM  H14C 9377   6.322   4.134  17.623 -0.5761 -0.2270  2.5188
   7223SM   C13 9378   6.530   3.990  17.556  0.4546 -0.3606 -0.7896
   7223SM  H13A 9379   6.613   3.951  17.499 -0.6911 -2.5799 -1.0625
   7223SM  H13B 9380   6.533   3.934  17.648 -1.3984  0.1457 -0.3736
   7223SM  H13C 9381   6.541   4.094  17.582 -0.5664 -0.8481  1.8578
   7223SM   C12 9382   6.401   4.051  17.349 -0.3708  0.7557 -0.6423
   7223SM  H12A 9383   6.410   4.153  17.382  0.3643  0.3562  0.4375
   7223SM  H12B 9384   6.302   4.048  17.305 -0.8607 -0.1601  0.4714
   7223SM   C11 9385   6.504   4.011  17.239  0.0147 -0.0451 -0.5314
   7223SM  H11A 9386   6.606   4.037  17.272  0.5909 -2.0862 -0.5786
   7223SM  H11B 9387   6.478   4.072  17.149 -1.7038  0.2689  0.1432
   7223SM     P 9388   6.414   3.787  17.118 -0.0205  0.1904  0.0666
   7223SM   O13 9389   6.462   3.649  17.135 -0.5186  0.5185  0.3003
   7223SM   O14 9390   6.271   3.826  17.145 -0.2410 -0.2058  0.0892
   7223SM   O11 9391   6.454   3.837  16.978 -0.2693  0.5736  0.2339
   7223SM   O12 9392   6.506   3.865  17.215  0.6255 -0.1232  0.2234
   7223SM   C1S 9393   6.588   3.842  16.936 -0.1850  0.6593 -0.3207
   7223SM   H1S 9394   6.636   3.742  16.944  0.9603  1.2004 -0.2657
   7223SM   H1T 9395   6.648   3.913  16.997 -1.9236  0.3013  1.9454
   7223SM    NF 9396   6.726   3.867  16.736 -0.0619  0.1461 -0.3303
   7223SM   HNF 9397   6.781   3.949  16.728  1.0162 -0.5502 -0.1776
   7223SM   C2S 9398   6.596   3.884  16.790 -0.7102 -0.4173  0.0468
   7223SM   H2S 9399   6.534   3.821  16.723 -1.8047  1.2412 -0.5742
   7223SM   C3S 9400   6.547   4.033  16.772  0.1473 -0.1783  0.4377
   7223SM   H3S 9401   6.609   4.112  16.818 -1.3069 -0.0719  2.3253
   7223SM    O3 9402   6.419   4.043  16.833  0.2004 -0.3876 -0.2081
   7223SM   HO3 9403   6.414   3.969  16.894 -1.5274 -0.3065 -0.2081
   7223SM   C4S 9404   6.535   4.052  16.624  0.1275  1.1109  0.2854
   7223SM   H4S 9405   6.626   4.079  16.568 -1.2894  1.2414 -2.0730
   7223SM   C5S 9406   6.426   4.041  16.542  0.4053 -0.4290  0.2071
   7223SM   H5S 9407   6.333   4.002  16.585 -0.5118 -0.2287 -1.5106
   7223SM   C6S 9408   6.425   4.067  16.391  0.2902 -0.2230 -0.2653
   7223SM   H6S 9409   6.357   3.998  16.337  0.0549 -0.0931 -0.1389
   7223SM   H6T 9410   6.525   4.030  16.359  0.1445 -2.3643  1.4978
   7223SM   C7S 9411   6.397   4.211  16.344  0.0182  0.1388 -0.3977
   7223SM   H7S 9412   6.480   4.277  16.378  0.3271 -0.2608 -0.3618
   7223SM   H7T 9413   6.302   4.254  16.383  0.0367 -0.4519  0.3260
   7223SM   C8S 9414   6.395   4.227  16.185  0.6940  0.3644  0.0738
   7223SM   H8S 9415   6.335   4.150  16.132  0.1696  0.0309  1.1448
   7223SM   H8T 9416   6.500   4.202  16.157  0.9896  0.5340  0.9892
   7223SM   C9S 9417   6.369   4.373  16.142 -0.3669  0.5655 -0.2217
   7223SM   H9S 9418   6.433   4.455  16.183  0.7963 -0.3677 -0.1308
   7223SM   H9T 9419   6.264   4.398  16.171 -1.3044  0.4048 -3.1543
   7223SM  C10S 9420   6.384   4.403  15.991 -0.7088 -0.1430 -0.1022
   7223SM  H10S 9421   6.332   4.322  15.936 -2.2957  0.1000  0.9542
   7223SM  H10T 9422   6.490   4.413  15.961 -0.1757 -2.7182  0.6955
   7223SM  C11S 9423   6.319   4.537  15.960 -0.3120  0.2470  0.2302
   7223SM  H11S 9424   6.373   4.618  16.012  2.2671  0.3360 -2.3763
   7223SM  H11T 9425   6.222   4.528  16.013 -0.7228 -0.4079 -0.5961
   7223SM  C12S 9426   6.285   4.573  15.814 -0.1989 -0.0023 -0.3647
   7223SM  H12S 9427   6.372   4.546  15.750 -0.1933 -1.2872  0.1761
   7223SM  H12T 9428   6.279   4.684  15.817  1.5939  0.1201 -0.2369
   7223SM  C13S 9429   6.155   4.500  15.770 -0.0037  0.6171 -1.1242
   7223SM  H13S 9430   6.075   4.532  15.841  1.0701 -1.0134  0.8878
   7223SM  H13T 9431   6.176   4.396  15.802 -0.8852  0.4040 -1.2154
   7223SM  C14S 9432   6.114   4.527  15.623  0.4418  0.4058 -0.5330
   7223SM  H14S 9433   6.211   4.527  15.569  0.5398  2.5074 -0.4383
   7223SM  H14T 9434   6.069   4.628  15.611  0.3500  0.5147  0.6057
   7223SM  C15S 9435   6.020   4.419  15.571  0.2806 -0.1530 -0.3434
   7223SM  H15S 9436   6.066   4.323  15.603 -0.2442 -0.0932  0.6332
   7223SM  H15T 9437   6.034   4.411  15.461  0.1340 -1.6858 -0.2746
   7223SM  C16S 9438   5.875   4.426  15.619 -0.2986  0.1628  0.3378
   7223SM  H16S 9439   5.836   4.530  15.622  0.5558  0.4893  0.6079
   7223SM  H16T 9440   5.879   4.400  15.727  2.0841 -0.0300  0.2635
   7223SM  C17S 9441   5.788   4.337  15.534  0.3138 -0.3005  0.0282
   7223SM  H17S 9442   5.782   4.362  15.426  0.8406 -1.3110 -0.2423
   7223SM  H17T 9443   5.689   4.341  15.585 -0.7600  0.6802 -1.9942
   7223SM  C18S 9444   5.838   4.193  15.521 -0.1839  0.1418 -0.2076
   7223SM  H18S 9445   5.754   4.135  15.478 -0.3085  2.0761 -2.8044
   7223SM  H18T 9446   5.866   4.145  15.617 -0.4419  0.8843  0.2502
   7223SM  H18U 9447   5.930   4.182  15.459 -0.0264  1.9437 -0.3338
   7223SM   C1F 9448   6.779   3.748  16.711  0.3332 -0.1973  0.0730
   7223SM    OF 9449   6.725   3.642  16.748 -0.2442 -0.5247  0.1363
   7223SM   C2F 9450   6.888   3.759  16.618 -0.2863 -0.1208  0.0081
   7223SM   H2F 9451   6.959   3.840  16.645  0.0971 -1.0058  1.8328
   7223SM   H2G 9452   6.846   3.788  16.520 -3.7014 -2.0875  0.7442
   7223SM   C3F 9453   6.962   3.623  16.603 -0.1898 -0.4352  0.2131
   7223SM   H3F 9454   6.891   3.540  16.583  0.2868 -1.2710  1.8349
   7223SM   H3G 9455   7.001   3.585  16.700 -0.4843  0.4611  0.6937
   7223SM   C4F 9456   7.074   3.622  16.501  0.0712 -0.6775 -0.0654
   7223SM   H4F 9457   7.135   3.530  16.509  1.3108  0.2063  1.3692
   7223SM   H4G 9458   7.144   3.708  16.512 -0.0485 -0.8663  2.8945
   7223SM   C5F 9459   7.034   3.612  16.354  0.0202 -0.7197  0.9146
   7223SM   H5F 9460   7.122   3.624  16.287 -0.6516 -0.5936  0.0336
   7223SM   H5G 9461   6.963   3.694  16.330 -0.4896 -2.3244 -4.0802
   7223SM   C6F 9462   6.964   3.480  16.312  0.3028  0.3798 -0.3991
   7223SM   H6F 9463   6.920   3.492  16.211 -0.2971  2.9358  0.0888
   7223SM   H6G 9464   6.880   3.451  16.379  1.1139 -3.0723 -0.7027
   7223SM   C7F 9465   7.053   3.359  16.304  0.5593 -1.2278  0.0824
   7223SM   H7F 9466   6.986   3.281  16.262 -0.3745 -1.5058  1.9868
   7223SM   H7G 9467   7.090   3.320  16.401  1.7202 -1.5420 -0.4612
   7223SM   C8F 9468   7.175   3.375  16.205  0.3865  0.5631  0.0539
   7223SM   H8F 9469   7.232   3.279  16.200 -0.9736 -0.2120 -1.5304
   7223SM   H8G 9470   7.249   3.445  16.249  0.6416  0.2592  0.1188
   7223SM   C9F 9471   7.144   3.418  16.061  0.0175 -0.5544 -0.5678
   7223SM   H9F 9472   7.241   3.417  16.008  0.5502 -1.7277  0.3626
   7223SM   H9G 9473   7.104   3.522  16.058 -0.3057 -0.5580  1.5782
   7223SM  C10F 9474   7.039   3.323  15.991  0.9441  0.2555 -0.6572
   7223SM  H10F 9475   6.942   3.350  16.038  1.7330  0.2698  1.0369
   7223SM  H10G 9476   7.056   3.216  16.017  1.0021  0.4272  0.0367
   7223SM  C11F 9477   7.017   3.354  15.844  0.2763 -0.0759 -0.2142
   7223SM  H11F 9478   7.115   3.371  15.796  0.3235 -0.4694 -0.2592
   7223SM  H11G 9479   6.961   3.450  15.846 -0.3021 -0.4129  1.8978
   7223SM  C12F 9480   6.942   3.248  15.765  0.1819  0.6379 -0.4886
   7223SM  H12F 9481   6.842   3.220  15.804  1.0923 -0.3621  1.2374
   7223SM  H12G 9482   7.017   3.166  15.758 -1.1980 -0.5684 -1.8849
   7223SM  C13F 9483   6.924   3.297  15.617  0.0269 -1.1181  0.2139
   7223SM  H13F 9484   6.889   3.209  15.558  0.5506 -1.6672  0.7031
   7223SM  H13G 9485   7.024   3.329  15.579 -1.0563  0.2885 -1.6011
   7223SM  C14F 9486   6.821   3.413  15.608 -0.1871 -0.2047 -0.2845
   7223SM  H14F 9487   6.854   3.491  15.680  1.3307  0.9532 -2.1325
   7223SM  H14G 9488   6.720   3.388  15.647  0.1914 -0.9011  0.2810
   7223SM  C15F 9489   6.813   3.495  15.475 -0.1551 -0.2457  0.3916
   7223SM  H15F 9490   6.920   3.509  15.447 -0.2891  0.4279  0.1966
   7223SM  H15G 9491   6.774   3.589  15.520 -1.3802 -0.3078 -0.4922
   7223SM  C16F 9492   6.719   3.446  15.373 -0.0519 -0.6537 -0.6170
   7223SM  H16F 9493   6.716   3.525  15.294  0.4582 -1.9867 -2.0247
   7223SM  H16G 9494   6.618   3.440  15.419  1.1061 -0.5771  2.0735
   7223SM  C17F 9495   6.754   3.313  15.308 -0.9227 -0.6307 -0.2847
   7223SM  H17F 9496   6.715   3.227  15.367 -2.0538 -0.5967 -0.9449
   7223SM  H17G 9497   6.861   3.294  15.288 -0.8332  0.5559 -1.0579
   7223SM  C18F 9498   6.683   3.297  15.174 -0.3890 -0.0276  0.4342
   7223SM  H18F 9499   6.731   3.363  15.099  1.2765  1.9142  3.0122
   7223SM  H18G 9500   6.575   3.322  15.178 -0.9017 -2.0747  0.4701
   7223SM  C19F 9501   6.686   3.153  15.132  0.2185  0.0230  0.0059
   7223SM  H19F 9502   6.622   3.093  15.200 -0.0924  0.5660  0.1885
   7223SM  H19G 9503   6.790   3.113  15.144  1.2551  1.2884 -3.5768
   7223SM  C20F 9504   6.655   3.130  14.986 -0.8364 -0.1530  0.1049
   7223SM  H20F 9505   6.737   3.169  14.923  0.2648 -0.3838  1.3413
   7223SM  H20G 9506   6.561   3.186  14.969 -0.2547  0.1540 -2.3988
   7223SM  C21F 9507   6.630   2.981  14.946  0.2418 -0.6062  0.5415
   7223SM  H21F 9508   6.532   2.950  14.988  0.1900 -0.5805  0.4389
   7223SM  H21G 9509   6.722   2.934  14.986  1.7086  0.5859 -1.2345
   7223SM  C22F 9510   6.616   2.985  14.793 -0.2473  0.0863  0.0072
   7223SM  H22F 9511   6.630   2.881  14.755 -0.4287 -0.6103  1.7621
   7223SM  H22G 9512   6.710   3.032  14.757  0.1095 -1.0499 -0.5819
   7223SM  C23F 9513   6.495   3.062  14.732 -0.3126  0.0344  0.3263
   7223SM  H23F 9514   6.397   3.022  14.766 -0.1503 -0.1698  0.5619
   7223SM  H23G 9515   6.500   3.064  14.621  0.2153 -0.8183  0.3211
   7223SM  H23H 9516   6.504   3.168  14.763  0.0472  0.2651 -0.5344
   7323SM     N 9517   5.232   1.324  16.980  0.0792 -0.7005  0.3301
   7323SM   C15 9518   5.366   1.261  16.979 -0.0521  0.2783  0.1830
   7323SM  H15A 9519   5.384   1.213  16.885 -0.3945  0.5455 -0.0223
   7323SM  H15B 9520   5.375   1.185  17.055 -1.9373 -1.7314 -1.4580
   7323SM  H15C 9521   5.439   1.340  16.989 -1.4674  1.6351  0.4180
   7323SM   C14 9522   5.215   1.385  17.110  0.6132  0.5769  0.1181
   7323SM  H14A 9523   5.302   1.447  17.128 -0.1279  1.2614  1.5112
   7323SM  H14B 9524   5.211   1.296  17.172  0.0705 -2.9560 -4.4616
   7323SM  H14C 9525   5.122   1.437  17.125 -0.1404 -0.3559 -1.1041
   7323SM   C13 9526   5.239   1.431  16.868  0.6481 -0.7542 -0.0064
   7323SM  H13A 9527   5.163   1.505  16.889  1.6555  0.2820  0.1451
   7323SM  H13B 9528   5.218   1.399  16.767 -0.6670  0.3737 -0.1138
   7323SM  H13C 9529   5.333   1.486  16.870 -0.9572  2.1976  1.4529
   7323SM   C12 9530   5.123   1.219  16.952 -0.3757  0.8063 -0.0432
   7323SM  H12A 9531   5.025   1.264  16.953 -0.9766 -0.3285 -2.4451
   7323SM  H12B 9532   5.126   1.156  17.040 -1.2706  2.9706  1.6504
   7323SM   C11 9533   5.142   1.126  16.825 -0.0590  0.5212 -0.0574
   7323SM  H11A 9534   5.068   1.043  16.829  1.1931 -0.6020  0.6778
   7323SM  H11B 9535   5.244   1.085  16.837  0.3970  1.3546 -0.9329
   7323SM     P 9536   5.003   1.255  16.650 -0.5266  0.7542  0.4792
   7323SM   O13 9537   4.922   1.138  16.597 -0.1588 -0.2117 -0.0018
   7323SM   O14 9538   4.948   1.332  16.761  0.0016  0.2476  0.3380
   7323SM   O11 9539   5.055   1.349  16.533 -0.5167 -0.3084 -0.6578
   7323SM   O12 9540   5.141   1.203  16.706  0.1134  0.1171 -0.3570
   7323SM   C1S 9541   5.176   1.320  16.464  1.2402  0.9568 -0.6859
   7323SM   H1S 9542   5.192   1.211  16.447  3.3523  0.7330  2.0455
   7323SM   H1T 9543   5.267   1.355  16.517  0.3142  2.3516  0.0424
   7323SM    NF 9544   5.278   1.323  16.252 -0.1061  0.2940  0.2584
   7323SM   HNF 9545   5.367   1.367  16.249 -0.4849  1.0718  0.2260
   7323SM   C2S 9546   5.183   1.398  16.326 -0.5808 -0.9299 -0.6838
   7323SM   H2S 9547   5.085   1.387  16.276 -0.1486 -1.1465 -1.5050
   7323SM   C3S 9548   5.209   1.551  16.344 -0.0922  0.4034 -0.3126
   7323SM   H3S 9549   5.300   1.567  16.406 -0.4058 -0.5893  0.4400
   7323SM    O3 9550   5.118   1.615  16.437  0.2232 -0.2082  0.2806
   7323SM   HO3 9551   5.072   1.539  16.471  2.0689 -1.9426 -0.8579
   7323SM   C4S 9552   5.208   1.626  16.214 -0.1636  0.1312  0.3222
   7323SM   H4S 9553   5.146   1.593  16.129 -1.3103  0.5615  0.9710
   7323SM   C5S 9554   5.300   1.717  16.179 -0.1933 -0.8551 -0.3986
   7323SM   H5S 9555   5.371   1.757  16.253 -0.3491  0.0812 -0.7532
   7323SM   C6S 9556   5.305   1.790  16.054 -0.3372  0.4201  0.6186
   7323SM   H6S 9557   5.352   1.889  16.074 -0.4780  0.2928  1.6438
   7323SM   H6T 9558   5.206   1.812  16.009  0.4541 -1.0210 -2.0557
   7323SM   C7S 9559   5.389   1.713  15.958 -0.1635  0.9121  0.6917
   7323SM   H7S 9560   5.347   1.612  15.945  1.2425  0.3544  0.2372
   7323SM   H7T 9561   5.495   1.699  15.989  0.2552  1.1062 -0.5861
   7323SM   C8S 9562   5.395   1.776  15.814 -0.1691  0.3491  0.0037
   7323SM   H8S 9563   5.294   1.807  15.779  0.9966  0.8825 -3.2432
   7323SM   H8T 9564   5.419   1.687  15.753 -1.8778 -0.6378  0.6919
   7323SM   C9S 9565   5.493   1.891  15.803  0.0057 -0.4650  0.4853
   7323SM   H9S 9566   5.591   1.869  15.851  1.0113  1.2311 -0.6801
   7323SM   H9T 9567   5.452   1.981  15.853  0.4527 -0.8556  1.5886
   7323SM  C10S 9568   5.515   1.941  15.656  0.0020 -0.8918 -0.1498
   7323SM  H10S 9569   5.591   2.022  15.659  1.4243 -2.0517 -2.3527
   7323SM  H10T 9570   5.425   1.992  15.615  0.6536  0.7100  0.3365
   7323SM  C11S 9571   5.553   1.824  15.557 -0.2900  0.4267 -0.2473
   7323SM  H11S 9572   5.475   1.745  15.552 -0.6211  0.7180  0.3272
   7323SM  H11T 9573   5.643   1.771  15.596 -0.1809 -0.0425 -1.1061
   7323SM  C12S 9574   5.593   1.875  15.425 -0.4470  0.4421  0.1897
   7323SM  H12S 9575   5.654   1.968  15.428  0.0485  0.1212  0.2368
   7323SM  H12T 9576   5.500   1.905  15.372 -0.0631  0.9410 -0.2075
   7323SM  C13S 9577   5.680   1.772  15.350 -0.4284 -0.1693 -0.4500
   7323SM  H13S 9578   5.633   1.672  15.356  2.2490 -1.4104  3.5351
   7323SM  H13T 9579   5.777   1.778  15.404 -0.9508  2.6698  0.3497
   7323SM  C14S 9580   5.697   1.804  15.196  0.1654  0.2737 -0.2635
   7323SM  H14S 9581   5.737   1.908  15.189  0.1774  0.2631 -0.3571
   7323SM  H14T 9582   5.595   1.802  15.153  1.0406  0.6480 -2.4966
   7323SM  C15S 9583   5.797   1.722  15.114  0.4573 -0.2142 -0.4773
   7323SM  H15S 9584   5.902   1.725  15.151  1.2201 -2.7999 -2.1857
   7323SM  H15T 9585   5.806   1.759  15.010  0.0267 -0.8932 -0.7584
   7323SM  C16S 9586   5.764   1.573  15.128 -0.0799  0.1931  0.4370
   7323SM  H16S 9587   5.660   1.560  15.091  0.6111 -0.3383 -1.4726
   7323SM  H16T 9588   5.790   1.543  15.231 -0.5779 -1.8351  0.0201
   7323SM  C17S 9589   5.857   1.487  15.037  0.3843  0.8990 -0.6961
   7323SM  H17S 9590   5.963   1.521  15.032  0.0928  1.9260 -0.1994
   7323SM  H17T 9591   5.821   1.494  14.933  0.0289 -4.5643 -1.2517
   7323SM  C18S 9592   5.847   1.337  15.077 -0.0555 -0.4171  0.2065
   7323SM  H18S 9593   5.878   1.274  14.990 -1.5844 -0.5203 -0.2933
   7323SM  H18T 9594   5.742   1.315  15.106  0.2398 -1.8131  0.3197
   7323SM  H18U 9595   5.905   1.305  15.166  1.5666 -0.0597 -0.6769
   7323SM   C1F 9596   5.260   1.201  16.198  0.6513 -0.8254 -0.4847
   7323SM    OF 9597   5.149   1.147  16.194 -0.1010 -0.5941 -0.1818
   7323SM   C2F 9598   5.388   1.141  16.155  0.2839 -0.3979 -0.0286
   7323SM   H2F 9599   5.445   1.097  16.240 -0.6850 -2.6846 -0.4993
   7323SM   H2G 9600   5.455   1.219  16.114 -0.1092  1.8495  3.2328
   7323SM   C3F 9601   5.361   1.029  16.052 -0.0960  0.0051 -0.0729
   7323SM   H3F 9602   5.273   0.965  16.075 -0.2354 -0.5284 -1.8735
   7323SM   H3G 9603   5.442   0.953  16.054  0.3043  0.2674 -2.5689
   7323SM   C4F 9604   5.336   1.084  15.912  0.2140 -0.5112  0.4095
   7323SM   H4F 9605   5.424   1.146  15.884 -0.4931  0.0111 -0.6986
   7323SM   H4G 9606   5.242   1.142  15.912  0.6723  0.2669 -0.9018
   7323SM   C5F 9607   5.312   0.980  15.801  0.4193  0.1798 -0.0251
   7323SM   H5F 9608   5.275   1.032  15.709  1.1471  0.4374 -0.1770
   7323SM   H5G 9609   5.226   0.923  15.844  0.3265  1.5509  1.7132
   7323SM   C6F 9610   5.439   0.896  15.765  0.1615 -0.0793 -0.0983
   7323SM   H6F 9611   5.473   0.836  15.853  1.8183  2.3163  1.0128
   7323SM   H6G 9612   5.519   0.965  15.732 -0.3333  0.8122  0.4949
   7323SM   C7F 9613   5.413   0.799  15.648  0.2752 -0.4820  0.7986
   7323SM   H7F 9614   5.323   0.743  15.680  1.0344 -1.2978  1.5738
   7323SM   H7G 9615   5.496   0.726  15.636 -0.0055 -0.6099 -0.4535
   7323SM   C8F 9616   5.395   0.874  15.518  0.0102  0.5112 -0.0642
   7323SM   H8F 9617   5.495   0.917  15.493 -0.0044  0.2241 -0.6413
   7323SM   H8G 9618   5.326   0.960  15.536  0.3444  0.7536  0.0805
   7323SM   C9F 9619   5.331   0.791  15.412 -0.5937 -0.1318 -0.3662
   7323SM   H9F 9620   5.254   0.732  15.468 -0.9857  1.7565  1.2053
   7323SM   H9G 9621   5.406   0.722  15.368 -1.8011 -1.4683 -0.4130
   7323SM  C10F 9622   5.244   0.855  15.313  0.8257 -0.1550 -0.1690
   7323SM  H10F 9623   5.294   0.941  15.264 -2.3087  2.1719  0.4664
   7323SM  H10G 9624   5.158   0.896  15.370  2.2110  1.3437  0.9564
   7323SM  C11F 9625   5.198   0.763  15.209 -0.0345  0.4504  0.6170
   7323SM  H11F 9626   5.183   0.665  15.259  0.2657 -0.2493 -0.6181
   7323SM  H11G 9627   5.284   0.747  15.141  0.2111 -0.2649  1.0847
   7323SM  C12F 9628   5.073   0.809  15.132  0.0660 -0.3198  0.4734
   7323SM  H12F 9629   4.990   0.834  15.202 -1.0427  0.3719 -1.0371
   7323SM  H12G 9630   5.039   0.725  15.067  0.1545  1.5906 -2.1891
   7323SM  C13F 9631   5.113   0.918  15.033 -0.3608 -0.4841  0.1212
   7323SM  H13F 9632   5.215   0.904  14.990  1.0398  3.7951  1.4934
   7323SM  H13G 9633   5.130   1.006  15.099  1.4067 -0.5600 -0.1797
   7323SM  C14F 9634   5.003   0.958  14.934  0.3166  0.0125  0.9216
   7323SM  H14F 9635   4.909   0.992  14.983 -0.5632 -3.6663  2.1354
   7323SM  H14G 9636   4.969   0.873  14.872  1.2510 -0.6308  1.2671
   7323SM  C15F 9637   5.049   1.060  14.835  0.1346 -0.1499  0.1494
   7323SM  H15F 9638   5.132   1.010  14.779  0.8525  1.3083 -0.1545
   7323SM  H15G 9639   5.100   1.132  14.903  0.8208  0.7072 -1.2266
   7323SM  C16F 9640   4.944   1.112  14.737 -0.0967 -0.7478 -0.0491
   7323SM  H16F 9641   4.857   1.154  14.792  0.7265  0.4738  0.3676
   7323SM  H16G 9642   4.913   1.022  14.679  0.7926 -0.9708 -0.1954
   7323SM  C17F 9643   5.003   1.219  14.644  0.4541  0.2066 -0.2566
   7323SM  H17F 9644   4.938   1.239  14.557  0.0524  0.8947  0.1922
   7323SM  H17G 9645   5.098   1.178  14.605  0.2056  0.0266 -0.6750
   7323SM  C18F 9646   5.054   1.343  14.726 -0.0443 -0.5231 -0.2217
   7323SM  H18F 9647   5.064   1.423  14.650 -1.8141 -1.7820 -1.9017
   7323SM  H18G 9648   5.156   1.321  14.764  1.4771  2.5993 -2.0640
   7323SM  C19F 9649   4.947   1.409  14.831  0.1792 -0.1465 -0.0654
   7323SM  H19F 9650   4.904   1.324  14.887  1.3840 -0.6749  0.0791
   7323SM  H19G 9651   4.867   1.451  14.765  0.2952 -0.6818 -0.5583
   7323SM  C20F 9652   5.003   1.526  14.914 -0.2485  0.0197  0.5836
   7323SM  H20F 9653   5.059   1.598  14.851 -0.2367  3.1986  3.8528
   7323SM  H20G 9654   5.060   1.496  15.005 -0.4645 -0.0342  0.7001
   7323SM  C21F 9655   4.895   1.625  14.974  0.3138  0.2151 -0.0189
   7323SM  H21F 9656   4.920   1.666  15.074 -3.4101  0.1028  1.1003
   7323SM  H21G 9657   4.805   1.566  14.999  1.7357 -2.2632 -0.4767
   7323SM  C22F 9658   4.849   1.731  14.873  0.5370 -0.0580  0.0775
   7323SM  H22F 9659   4.803   1.673  14.791  0.1732  0.1366  0.1421
   7323SM  H22G 9660   4.934   1.793  14.839 -0.0089 -0.3674 -1.9699
   7323SM  C23F 9661   4.734   1.809  14.941  0.0252  0.1807 -0.0172
   7323SM  H23F 9662   4.755   1.835  15.047 -2.5988 -1.8759  1.1519
   7323SM  H23G 9663   4.634   1.760  14.933 -0.6983  1.6692 -0.4452
   7323SM  H23H 9664   4.723   1.904  14.885  1.9732  0.7263  0.4630
   7423SM     N 9665   0.628   4.620  16.674 -0.3910  0.3470  0.5188
   7423SM   C15 9666   0.485   4.651  16.640 -0.2850 -0.0912 -0.0493
   7423SM  H15A 9667   0.468   4.757  16.655  1.7398  0.4989 -1.4757
   7423SM  H15B 9668   0.412   4.599  16.700 -0.3766  0.6654  0.5175
   7423SM  H15C 9669   0.468   4.618  16.539  0.2559 -2.3667  0.5550
   7423SM   C14 9670   0.634   4.630  16.820  0.3217  0.4337 -0.5104
   7423SM  H14A 9671   0.735   4.660  16.845  0.1064 -0.4677  1.6312
   7423SM  H14B 9672   0.602   4.537  16.865  0.8462 -0.3524 -1.6899
   7423SM  H14C 9673   0.576   4.711  16.861  1.4116 -0.2799  2.7058
   7423SM   C13 9674   0.648   4.474  16.627 -0.2589  0.3753 -0.5630
   7423SM  H13A 9675   0.576   4.406  16.670  1.0489 -0.0130  1.1423
   7423SM  H13B 9676   0.745   4.440  16.662 -0.2201 -0.2343 -1.2331
   7423SM  H13C 9677   0.651   4.467  16.519  0.0556 -2.7258 -0.4458
   7423SM   C12 9678   0.729   4.711  16.616 -1.0753 -0.7181  0.2249
   7423SM  H12A 9679   0.715   4.710  16.509 -0.2871 -0.9873  0.1169
   7423SM  H12B 9680   0.828   4.669  16.625 -0.9223 -0.1054  1.6373
   7423SM   C11 9681   0.735   4.860  16.667  0.4795 -0.2579 -0.2123
   7423SM  H11A 9682   0.816   4.915  16.615 -0.5842  0.7437 -0.8732
   7423SM  H11B 9683   0.755   4.857  16.776 -2.1842 -0.9917  0.3328
   7423SM     P 9684   0.548   4.973  16.521  0.3066 -0.2086  0.6531
   7423SM   O13 9685   0.402   4.956  16.533 -0.1741  0.0726 -0.5656
   7423SM   O14 9686   0.600   5.113  16.487 -0.0088 -0.1884  0.4696
   7423SM   O11 9687   0.607   4.874  16.410 -0.1183  0.5177 -0.3203
   7423SM   O12 9688   0.607   4.922  16.651  0.8056 -0.0843 -0.3188
   7423SM   C1S 9689   0.527   4.789  16.330 -0.3146 -0.2936  0.6378
   7423SM   H1S 9690   0.427   4.780  16.376 -0.8349 -1.1498 -0.6030
   7423SM   H1T 9691   0.578   4.690  16.330  0.5716  0.1438 -0.8679
   7423SM    NF 9692   0.404   4.756  16.121 -0.0064 -0.1759 -0.3744
   7423SM   HNF 9693   0.440   4.701  16.046  2.2236  0.3369  0.2539
   7423SM   C2S 9694   0.508   4.834  16.181 -0.3000 -0.1054  0.1137
   7423SM   H2S 9695   0.472   4.939  16.193  0.0885  0.1712 -1.0132
   7423SM   C3S 9696   0.648   4.838  16.111 -0.0491  0.8738  0.1927
   7423SM   H3S 9697   0.669   4.730  16.091  1.1142  0.8876  1.2669
   7423SM    O3 9698   0.763   4.883  16.186  0.3442 -0.1052 -0.0886
   7423SM   HO3 9699   0.734   4.874  16.278  0.9300  0.9816  0.2182
   7423SM   C4S 9700   0.647   4.901  15.978  0.9175  0.4862 -0.0148
   7423SM   H4S 9701   0.634   4.829  15.896  2.8212  1.7909 -1.5505
   7423SM   C5S 9702   0.659   5.034  15.957 -0.5875 -0.5994  0.5822
   7423SM   H5S 9703   0.674   5.108  16.038 -4.7642  0.0487  0.9757
   7423SM   C6S 9704   0.656   5.093  15.818 -0.2738  0.3067 -0.5423
   7423SM   H6S 9705   0.752   5.148  15.806 -0.4486  0.6566 -0.3566
   7423SM   H6T 9706   0.577   5.171  15.809  0.3737  0.8773 -1.3702
   7423SM   C7S 9707   0.640   4.996  15.695 -0.3533 -0.4438 -0.2547
   7423SM   H7S 9708   0.548   4.936  15.711 -0.4111 -0.2171  0.2676
   7423SM   H7T 9709   0.730   4.932  15.701 -0.9424 -1.2727 -0.0462
   7423SM   C8S 9710   0.637   5.069  15.556 -0.1214  0.3013 -0.0711
   7423SM   H8S 9711   0.654   4.993  15.477 -0.6115 -0.5421  0.6057
   7423SM   H8T 9712   0.727   5.130  15.536  0.1978  0.6113  2.0899
   7423SM   C9S 9713   0.507   5.145  15.524 -0.7069  0.4072  0.2500
   7423SM   H9S 9714   0.487   5.214  15.609  0.2258 -1.0533  1.7064
   7423SM   H9T 9715   0.415   5.084  15.532  0.0641 -0.6546  1.3541
   7423SM  C10S 9716   0.511   5.234  15.396  0.0684  0.7617  0.1863
   7423SM  H10S 9717   0.597   5.305  15.402 -0.4818  1.3926  0.7824
   7423SM  H10T 9718   0.420   5.296  15.379 -1.2972 -2.0314 -4.6948
   7423SM  C11S 9719   0.514   5.149  15.275  0.2975  0.9008  0.6739
   7423SM  H11S 9720   0.442   5.068  15.302  0.2394  0.2716 -1.2242
   7423SM  H11T 9721   0.616   5.111  15.255  0.5782  2.2393 -0.6359
   7423SM  C12S 9722   0.458   5.221  15.144 -0.1779  0.4410 -0.5857
   7423SM  H12S 9723   0.411   5.316  15.176 -1.2941 -0.4223  0.4259
   7423SM  H12T 9724   0.381   5.151  15.104 -1.4486  2.0833 -1.1309
   7423SM  C13S 9725   0.574   5.255  15.050  0.0602  0.1027  0.5027
   7423SM  H13S 9726   0.671   5.254  15.104 -0.6363 -1.4014  1.7969
   7423SM  H13T 9727   0.569   5.359  15.011  0.6224 -1.0593 -3.0316
   7423SM  C14S 9728   0.586   5.163  14.929 -0.0736  0.2224  0.0956
   7423SM  H14S 9729   0.493   5.168  14.869  0.6101  1.3091 -0.9169
   7423SM  H14T 9730   0.596   5.061  14.974  0.6997  0.2744  0.0580
   7423SM  C15S 9731   0.691   5.185  14.823 -0.4450 -0.0167 -0.0991
   7423SM  H15S 9732   0.794   5.182  14.867  0.2819  1.8360 -1.5222
   7423SM  H15T 9733   0.670   5.284  14.778  0.3123 -0.4859 -1.5494
   7423SM  C16S 9734   0.686   5.086  14.707  0.4805  0.4011  0.5274
   7423SM  H16S 9735   0.669   4.988  14.758 -2.1924  0.9432  0.8270
   7423SM  H16T 9736   0.783   5.081  14.653  0.5339 -2.5698  0.6832
   7423SM  C17S 9737   0.574   5.108  14.608  0.0725 -0.5390 -0.4924
   7423SM  H17S 9738   0.485   5.149  14.660  0.7871  0.6888 -0.1994
   7423SM  H17T 9739   0.547   5.005  14.579  0.5116 -0.7332 -0.2192
   7423SM  C18S 9740   0.612   5.184  14.479  0.3424  0.0583  0.2245
   7423SM  H18S 9741   0.698   5.131  14.433 -0.7790 -4.7355  3.0189
   7423SM  H18T 9742   0.652   5.285  14.504 -1.2182  1.2964 -1.9368
   7423SM  H18U 9743   0.535   5.178  14.400  1.6808  1.9593 -1.3392
   7423SM   C1F 9744   0.279   4.767  16.156 -0.7301 -0.1805  0.3564
   7423SM    OF 9745   0.246   4.864  16.224 -0.8687  0.1643  0.4019
   7423SM   C2F 9746   0.193   4.649  16.121 -0.1233  0.3121 -0.2494
   7423SM   H2F 9747   0.165   4.594  16.214  0.0447  0.1738 -0.2800
   7423SM   H2G 9748   0.252   4.581  16.056 -0.7357  0.7033 -1.2404
   7423SM   C3F 9749   0.067   4.689  16.044 -0.3145  0.1299  0.1897
   7423SM   H3F 9750   0.009   4.763  16.103 -2.2825 -0.2619 -1.1363
   7423SM   H3G 9751   0.013   4.594  16.026  0.0974  0.0968 -0.9435
   7423SM   C4F 9752   0.098   4.749  15.904  0.1155 -0.3068 -0.0988
   7423SM   H4F 9753   0.178   4.695  15.849  1.2590 -0.7613  1.9090
   7423SM   H4G 9754   0.140   4.850  15.926  1.6338 -1.3186  2.0412
   7423SM   C5F 9755  -0.032   4.758  15.821  0.6925  0.2594 -0.2929
   7423SM   H5F 9756  -0.106   4.825  15.871  2.8384  0.8639  2.3300
   7423SM   H5G 9757  -0.074   4.655  15.817 -2.7297  1.5084  0.0569
   7423SM   C6F 9758  -0.006   4.795  15.673 -0.3362  0.5402 -0.2716
   7423SM   H6F 9759   0.070   4.732  15.621  0.1730  0.2344  0.8090
   7423SM   H6G 9760   0.039   4.896  15.666  1.3508 -0.2066 -0.9318
   7423SM   C7F 9761  -0.134   4.777  15.592 -0.7729  0.4614  0.0757
   7423SM   H7F 9762  -0.217   4.818  15.654 -1.7627 -1.6062  0.2226
   7423SM   H7G 9763  -0.164   4.671  15.583 -3.5901  1.2041 -0.4171
   7423SM   C8F 9764  -0.135   4.841  15.454  0.5915  0.8930  0.3364
   7423SM   H8F 9765  -0.240   4.859  15.423  0.2381  1.8456  1.9442
   7423SM   H8G 9766  -0.079   4.776  15.384  0.0329  2.1942 -1.3985
   7423SM   C9F 9767  -0.074   4.981  15.445  0.3010  0.4154  0.2491
   7423SM   H9F 9768   0.038   4.981  15.449  0.3153  0.6433 -0.1414
   7423SM   H9G 9769  -0.104   5.041  15.534 -0.6653  2.1350 -1.1778
   7423SM  C10F 9770  -0.116   5.058  15.317  0.6209  0.0116 -0.1883
   7423SM  H10F 9771  -0.217   5.101  15.336 -0.0402 -1.1259 -1.0498
   7423SM  H10G 9772  -0.117   4.987  15.232  0.6481 -0.5911  0.3053
   7423SM  C11F 9773  -0.021   5.179  15.287  0.2204  0.1908  0.6288
   7423SM  H11F 9774   0.084   5.144  15.294  0.9146  2.3614  2.4805
   7423SM  H11G 9775  -0.040   5.256  15.366 -2.1517 -0.5236  0.8490
   7423SM  C12F 9776  -0.055   5.246  15.150  0.4291  0.2533 -0.0373
   7423SM  H12F 9777  -0.164   5.229  15.133  0.8284 -2.4488 -0.1898
   7423SM  H12G 9778  -0.001   5.175  15.085 -0.6595 -1.3255  0.7128
   7423SM  C13F 9779  -0.000   5.387  15.120  0.0548  0.2895 -1.2504
   7423SM  H13F 9780   0.110   5.383  15.128  0.1816  2.2967 -1.5035
   7423SM  H13G 9781  -0.030   5.460  15.198  0.6151  1.1184 -1.7866
   7423SM  C14F 9782  -0.038   5.432  14.981  0.1881 -0.7263  0.2923
   7423SM  H14F 9783   0.009   5.529  14.953  0.8442 -1.0840  0.1394
   7423SM  H14G 9784  -0.147   5.450  14.989  0.4043  0.1685  1.5254
   7423SM  C15F 9785  -0.005   5.340  14.860 -0.0776  0.3903 -0.0890
   7423SM  H15F 9786  -0.068   5.249  14.868  2.8103 -1.5887  4.0037
   7423SM  H15G 9787   0.103   5.315  14.870 -0.8048 -2.8825  0.4051
   7423SM  C16F 9788  -0.029   5.398  14.718  0.1300 -0.7239  0.1974
   7423SM  H16F 9789   0.039   5.484  14.701  1.2295 -0.2960  5.1966
   7423SM  H16G 9790  -0.132   5.438  14.708  0.3452  0.3419  1.7938
   7423SM  C17F 9791   0.003   5.288  14.609  0.1191 -0.5157 -0.9049
   7423SM  H17F 9792  -0.028   5.330  14.511 -2.4165  0.2097  0.1302
   7423SM  H17G 9793  -0.059   5.196  14.623 -4.2591  2.2076 -0.5511
   7423SM  C18F 9794   0.154   5.264  14.600  0.3133  0.1024 -0.0911
   7423SM  H18F 9795   0.176   5.181  14.671  0.0999  1.2876  1.4146
   7423SM  H18G 9796   0.204   5.351  14.646  2.5711 -1.8260  1.3665
   7423SM  C19F 9797   0.204   5.239  14.457 -0.5892  0.3509 -0.0776
   7423SM  H19F 9798   0.151   5.154  14.409 -0.4706  1.4816 -2.3559
   7423SM  H19G 9799   0.309   5.205  14.463 -0.5524  0.0282 -1.8794
   7423SM  C20F 9800   0.202   5.353  14.357  0.7539 -0.6562  0.0179
   7423SM  H20F 9801   0.277   5.430  14.383  0.5068 -0.6247  0.6476
   7423SM  H20G 9802   0.096   5.388  14.354  0.1505 -1.8689  3.1752
   7423SM  C21F 9803   0.242   5.299  14.220 -0.1489 -0.1477  0.5109
   7423SM  H21F 9804   0.154   5.233  14.200 -0.2480  0.4603 -1.2146
   7423SM  H21G 9805   0.334   5.236  14.224  1.6430  2.3909  1.4281
   7423SM  C22F 9806   0.254   5.400  14.104  0.5189 -0.1495  0.0359
   7423SM  H22F 9807   0.341   5.467  14.122  0.9824 -0.6659 -0.2423
   7423SM  H22G 9808   0.156   5.451  14.103  0.9290  0.6570  0.3772
   7423SM  C23F 9809   0.273   5.337  13.962 -0.3329 -0.1700 -0.0829
   7423SM  H23F 9810   0.224   5.238  13.955  0.4387 -0.4607 -2.4818
   7423SM  H23G 9811   0.382   5.325  13.941 -0.1986  0.2790  0.3337
   7423SM  H23H 9812   0.238   5.402  13.879 -0.4001 -1.9888 -1.5599
   7523SM     N 9813   6.902   5.613  17.314 -0.5872  0.0843  0.8472
   7523SM   C15 9814   6.781   5.566  17.377  0.0520  0.3677 -0.3653
   7523SM  H15A 9815   6.772   5.606  17.477  1.2033 -0.9953  0.3255
   7523SM  H15B 9816   6.773   5.460  17.398 -0.2416  0.8746  2.4415
   7523SM  H15C 9817   6.699   5.586  17.309  0.1833 -1.4705 -1.1375
   7523SM   C14 9818   6.940   5.753  17.351 -0.3290  0.1883  0.2598
   7523SM  H14A 9819   6.938   5.770  17.458 -3.9624  0.0494  0.3361
   7523SM  H14B 9820   6.883   5.828  17.299  1.9091  0.8187 -1.4371
   7523SM  H14C 9821   7.042   5.774  17.320 -0.3459 -0.1743 -0.0497
   7523SM   C13 9822   7.016   5.527  17.363  0.2471  0.2707  0.6604
   7523SM  H13A 9823   7.101   5.565  17.308 -0.6422 -1.1571 -1.8753
   7523SM  H13B 9824   7.004   5.423  17.335  0.4043 -0.1798  2.1795
   7523SM  H13C 9825   7.037   5.535  17.469 -0.6384 -2.8986  1.1804
   7523SM   C12 9826   6.888   5.604  17.161 -0.6330  0.2661 -0.6180
   7523SM  H12A 9827   6.810   5.674  17.133  0.4491  1.1351 -1.5485
   7523SM  H12B 9828   6.843   5.510  17.135 -0.5945 -0.3948  1.5508
   7523SM   C11 9829   7.012   5.624  17.075  0.3986 -0.9971  0.0673
   7523SM  H11A 9830   6.964   5.620  16.975 -0.3202  0.9391  0.2788
   7523SM  H11B 9831   7.086   5.542  17.082 -0.0272 -1.3707  0.2316
   7523SM     P 9832   7.043   5.880  17.006 -0.1407  0.1124 -0.1563
   7523SM   O13 9833   6.980   5.986  17.087  0.0411  0.1024 -0.0761
   7523SM   O14 9834   7.178   5.923  16.959  0.3791 -0.2366 -0.2009
   7523SM   O11 9835   6.953   5.826  16.887 -0.2045  0.3826  0.1883
   7523SM   O12 9836   7.072   5.752  17.098  0.2441  0.0537  0.0434
   7523SM   C1S 9837   6.979   5.870  16.755 -0.0491  0.0460 -0.3897
   7523SM   H1S 9838   7.069   5.824  16.709  0.3373  0.1155  0.2756
   7523SM   H1T 9839   7.006   5.977  16.753  0.0263  0.0134 -1.5574
   7523SM    NF 9840   6.892   5.896  16.518 -0.3510  0.3971  0.0472
   7523SM   HNF 9841   6.860   5.985  16.488  0.5287  0.5119 -0.6154
   7523SM   C2S 9842   6.859   5.854  16.654  0.6240 -0.9412  0.0232
   7523SM   H2S 9843   6.838   5.745  16.651 -1.7741 -0.5134 -0.7525
   7523SM   C3S 9844   6.731   5.925  16.704 -0.5028  0.0359 -1.0627
   7523SM   H3S 9845   6.756   6.033  16.711 -0.5537  0.0728 -1.4594
   7523SM    O3 9846   6.687   5.903  16.838  0.3980 -0.0093  0.0922
   7523SM   HO3 9847   6.761   5.856  16.878  0.0356 -0.5341  0.1467
   7523SM   C4S 9848   6.613   5.920  16.617 -0.2063 -0.1607 -0.5300
   7523SM   H4S 9849   6.588   5.817  16.588  1.0154 -1.2210  1.8634
   7523SM   C5S 9850   6.563   6.028  16.557  0.6897  0.1122 -0.0963
   7523SM   H5S 9851   6.601   6.127  16.586 -0.4817  0.6395 -0.3112
   7523SM   C6S 9852   6.450   6.028  16.460 -0.2957  0.2961  1.0095
   7523SM   H6S 9853   6.372   6.101  16.488 -0.4255  1.3072 -1.7148
   7523SM   H6T 9854   6.397   5.930  16.449 -0.6691  0.7062 -1.6332
   7523SM   C7S 9855   6.506   6.063  16.322  0.4490 -0.2382 -0.2206
   7523SM   H7S 9856   6.562   5.984  16.269 -0.6728 -1.2437  0.0428
   7523SM   H7T 9857   6.574   6.150  16.331  0.7766 -0.5709  0.5253
   7523SM   C8S 9858   6.401   6.100  16.223  0.3606 -0.3698 -0.3672
   7523SM   H8S 9859   6.330   6.167  16.275  0.1278 -1.1773  0.3868
   7523SM   H8T 9860   6.338   6.017  16.185 -3.1383  1.8095  0.2744
   7523SM   C9S 9861   6.454   6.179  16.099 -0.1042 -0.1808 -0.0081
   7523SM   H9S 9862   6.533   6.123  16.044  0.1471 -0.5742  0.7313
   7523SM   H9T 9863   6.494   6.276  16.135 -0.5238 -1.0051  2.9338
   7523SM  C10S 9864   6.350   6.197  15.985  0.0203 -0.2645 -0.3538
   7523SM  H10S 9865   6.257   6.241  16.024  0.8805 -1.1449  2.9657
   7523SM  H10T 9866   6.322   6.100  15.939  1.5767 -0.8240 -0.1907
   7523SM  C11S 9867   6.397   6.281  15.860  0.2257  0.9643 -0.4481
   7523SM  H11S 9868   6.498   6.252  15.825  0.4401 -0.1362  0.9824
   7523SM  H11T 9869   6.397   6.389  15.882  2.1140  0.9566 -0.2821
   7523SM  C12S 9870   6.301   6.255  15.735 -0.4381  0.0456 -0.1864
   7523SM  H12S 9871   6.199   6.268  15.778 -0.5912  1.5073 -0.9232
   7523SM  H12T 9872   6.335   6.152  15.714  0.0660 -0.0368  0.9349
   7523SM  C13S 9873   6.332   6.346  15.617  0.1604  0.2329 -0.7227
   7523SM  H13S 9874   6.439   6.359  15.590  0.4469 -1.6941 -0.6256
   7523SM  H13T 9875   6.292   6.445  15.647  0.7663  0.4464 -0.6097
   7523SM  C14S 9876   6.265   6.298  15.492  0.0870  0.3637 -0.3166
   7523SM  H14S 9877   6.287   6.192  15.469  1.8836  0.6380 -0.0135
   7523SM  H14T 9878   6.310   6.355  15.408  0.4243  0.0969 -0.3177
   7523SM  C15S 9879   6.113   6.318  15.483 -0.4464 -0.6717 -0.8772
   7523SM  H15S 9880   6.078   6.417  15.521  1.3739  0.1653 -1.2554
   7523SM  H15T 9881   6.069   6.243  15.552 -1.5396  1.4066  0.8267
   7523SM  C16S 9882   6.071   6.283  15.339  0.3203 -0.7109 -0.0455
   7523SM  H16S 9883   6.113   6.188  15.301 -1.7767 -1.3908 -0.8375
   7523SM  H16T 9884   6.097   6.363  15.265 -2.4949  1.5105  1.1704
   7523SM  C17S 9885   5.918   6.262  15.321 -0.1988  0.6614 -0.5035
   7523SM  H17S 9886   5.869   6.354  15.361  1.6808  0.0537  3.7773
   7523SM  H17T 9887   5.886   6.181  15.390 -2.1829  2.0685  0.3463
   7523SM  C18S 9888   5.883   6.237  15.175  0.4061  0.3750 -0.0410
   7523SM  H18S 9889   5.904   6.324  15.109 -0.0738  0.8872  0.4646
   7523SM  H18T 9890   5.778   6.208  15.151  0.1968 -1.3785  2.5249
   7523SM  H18U 9891   5.941   6.151  15.135 -0.6011  1.3743 -4.0332
   7523SM   C1F 9892   6.979   5.837  16.432 -0.5276 -0.5775 -0.6943
   7523SM    OF 9893   7.060   5.756  16.480  0.1992 -0.1251 -0.6843
   7523SM   C2F 9894   6.970   5.878  16.297  0.1086 -0.2896 -0.1027
   7523SM   H2F 9895   7.064   5.859  16.242 -0.4560 -1.6197 -0.6711
   7523SM   H2G 9896   6.954   5.987  16.283  0.8066 -0.1853 -0.1302
   7523SM   C3F 9897   6.864   5.798  16.219  1.1633 -0.1809 -0.1010
   7523SM   H3F 9898   6.773   5.819  16.278  0.9647  0.5654 -0.6618
   7523SM   H3G 9899   6.879   5.688  16.222 -0.8902 -0.4876  0.6530
   7523SM   C4F 9900   6.861   5.839  16.069  0.1563 -0.2576  0.3528
   7523SM   H4F 9901   6.958   5.805  16.027  0.2147 -0.7457  0.8818
   7523SM   H4G 9902   6.853   5.950  16.074  1.4922 -0.1952  1.7936
   7523SM   C5F 9903   6.750   5.791  15.969 -0.3694 -0.0364 -0.5354
   7523SM   H5F 9904   6.655   5.846  15.988  0.0423  0.6321 -0.3864
   7523SM   H5G 9905   6.733   5.682  15.977  3.2492 -0.7070 -0.3686
   7523SM   C6F 9906   6.787   5.795  15.824  0.0329  0.2522 -0.2852
   7523SM   H6F 9907   6.866   5.717  15.813 -0.3939 -0.0693 -1.1231
   7523SM   H6G 9908   6.836   5.893  15.808  1.2962 -0.3061  0.0148
   7523SM   C7F 9909   6.675   5.766  15.729  0.0706  0.1803 -0.5547
   7523SM   H7F 9910   6.590   5.834  15.751  0.2327  0.3380 -0.4110
   7523SM   H7G 9911   6.645   5.659  15.734 -0.1155  0.2108 -0.9735
   7523SM   C8F 9912   6.707   5.792  15.577  0.3415  0.0308 -0.2694
   7523SM   H8F 9913   6.620   5.766  15.513  0.2396  0.2465 -0.2186
   7523SM   H8G 9914   6.789   5.721  15.555  1.2477  1.6796 -2.5618
   7523SM   C9F 9915   6.772   5.925  15.536 -0.2855 -0.1853 -0.7696
   7523SM   H9F 9916   6.796   5.916  15.428  1.7710  0.4391 -0.4055
   7523SM   H9G 9917   6.869   5.916  15.590 -0.1582 -1.2430 -1.1610
   7523SM  C10F 9918   6.677   6.040  15.554 -0.0311 -0.6189  0.2723
   7523SM  H10F 9919   6.680   6.058  15.663  1.0647 -3.6749  0.8410
   7523SM  H10G 9920   6.577   5.998  15.531 -0.0022 -0.1643 -0.7455
   7523SM  C11F 9921   6.722   6.171  15.483  0.5371 -0.5718 -0.2180
   7523SM  H11F 9922   6.832   6.183  15.485  0.4639  0.0264  0.2645
   7523SM  H11G 9923   6.677   6.256  15.537  1.1178 -0.5568  0.2478
   7523SM  C12F 9924   6.649   6.189  15.354  0.3645  0.0251 -0.5783
   7523SM  H12F 9925   6.542   6.161  15.360  0.1544  0.7958 -0.7188
   7523SM  H12G 9926   6.698   6.123  15.279  1.7383 -0.3349  0.5780
   7523SM  C13F 9927   6.651   6.331  15.296 -0.1818  0.4844 -0.0030
   7523SM  H13F 9928   6.757   6.348  15.268 -0.1163 -0.3404 -0.3023
   7523SM  H13G 9929   6.631   6.412  15.370  0.0371  0.2732  0.2918
   7523SM  C14F 9930   6.562   6.348  15.173 -0.4934 -0.2170 -0.2567
   7523SM  H14F 9931   6.472   6.286  15.196 -0.7961 -0.5705 -2.2628
   7523SM  H14G 9932   6.611   6.308  15.082 -1.4601 -1.2748 -0.3429
   7523SM  C15F 9933   6.545   6.500  15.153 -0.3335  0.5346  0.6725
   7523SM  H15F 9934   6.640   6.558  15.147 -0.4857  0.6433 -1.8129
   7523SM  H15G 9935   6.483   6.541  15.234 -0.2753 -2.0374  2.1262
   7523SM  C16F 9936   6.491   6.520  15.010 -0.8307  0.1229  0.3784
   7523SM  H16F 9937   6.390   6.473  15.007 -0.3533 -0.8623 -1.0404
   7523SM  H16G 9938   6.560   6.460  14.947  0.3134 -0.5721  2.2146
   7523SM  C17F 9939   6.473   6.671  14.957  0.2360 -0.1404  0.2642
   7523SM  H17F 9940   6.410   6.731  15.027  1.2727  1.6278 -0.2715
   7523SM  H17G 9941   6.420   6.669  14.859  1.5501 -0.3116 -0.4647
   7523SM  C18F 9942   6.612   6.738  14.931 -0.1680  0.0830  0.1408
   7523SM  H18F 9943   6.684   6.666  14.887 -1.8541 -0.6007 -1.6325
   7523SM  H18G 9944   6.646   6.764  15.034 -0.3673 -0.3819  0.3249
   7523SM  C19F 9945   6.606   6.862  14.844 -0.6431  0.0768  1.0405
   7523SM  H19F 9946   6.697   6.925  14.846  1.0453 -1.9465 -2.3671
   7523SM  H19G 9947   6.521   6.921  14.883 -1.6581  0.1806 -1.1533
   7523SM  C20F 9948   6.572   6.837  14.693  0.1901 -0.6727  0.0244
   7523SM  H20F 9949   6.465   6.811  14.680  0.1274 -0.3230 -0.1633
   7523SM  H20G 9950   6.635   6.754  14.655 -0.2835 -1.1853  0.3415
   7523SM  C21F 9951   6.606   6.958  14.602  0.3378 -0.1844  0.3005
   7523SM  H21F 9952   6.610   6.940  14.492  0.0812  5.1025 -0.8832
   7523SM  H21G 9953   6.709   6.991  14.627  0.5959  1.6272 -2.6078
   7523SM  C22F 9954   6.495   7.070  14.610  0.0186 -0.0082  0.0735
   7523SM  H22F 9955   6.508   7.128  14.705  0.2291 -0.5844  0.4022
   7523SM  H22G 9956   6.395   7.020  14.611 -1.2081  2.3020  0.4840
   7523SM  C23F 9957   6.503   7.176  14.498  0.5368 -0.0334 -0.4656
   7523SM  H23F 9958   6.449   7.271  14.520  1.0717  0.1577  0.0341
   7523SM  H23G 9959   6.467   7.139  14.399 -0.2509 -0.4462 -0.0315
   7523SM  H23H 9960   6.608   7.196  14.466  0.9385 -2.0996 -0.5830
   7623SM     N 9961   0.222   5.933  16.811  0.0686 -0.3367  0.4083
   7623SM   C15 9962   0.197   6.014  16.931 -0.0755 -0.5527 -0.4469
   7623SM  H15A 9963   0.278   6.086  16.943 -0.4542 -0.1892 -0.0151
   7623SM  H15B 9964   0.190   5.955  17.022 -1.6736  1.9180  1.1474
   7623SM  H15C 9965   0.103   6.064  16.917  0.6783  1.2392  0.5189
   7623SM   C14 9966   0.342   5.850  16.832  0.1325 -0.2459 -0.1357
   7623SM  H14A 9967   0.387   5.816  16.741  1.0296 -3.4492  1.3694
   7623SM  H14B 9968   0.324   5.765  16.896 -1.6473 -2.1489 -2.9406
   7623SM  H14C 9969   0.420   5.905  16.883  1.5701 -1.0855 -1.3810
   7623SM   C13 9970   0.098   5.851  16.770  0.0814  0.1020 -0.3004
   7623SM  H13A 9971   0.117   5.788  16.684 -1.2121  0.3105 -0.7621
   7623SM  H13B 9972   0.003   5.901  16.762 -0.4067 -0.4054  1.7713
   7623SM  H13C 9973   0.088   5.778  16.849  0.4394  0.2282 -0.1340
   7623SM   C12 9974   0.255   6.029  16.691  0.1968 -0.2825  0.0259
   7623SM  H12A 9975   0.281   5.970  16.604 -0.5625  0.9947 -1.0948
   7623SM  H12B 9976   0.339   6.094  16.711  0.9848 -1.6203  1.2193
   7623SM   C11 9977   0.142   6.126  16.643  0.3724 -1.2916  0.5264
   7623SM  H11A 9978   0.047   6.074  16.619 -1.2533  2.1060 -1.2196
   7623SM  H11B 9979   0.170   6.166  16.543 -2.5113 -0.4904 -0.0775
   7623SM     P 9980   0.181   6.370  16.727  0.0812  0.3167 -0.2207
   7623SM   O13 9981   0.155   6.457  16.846  0.7835  0.2287  0.1773
   7623SM   O14 9982   0.326   6.345  16.700  0.6315 -0.1528 -0.6300
   7623SM   O11 9983   0.121   6.427  16.595  0.1497  0.1023  0.3184
   7623SM   O12 9984   0.109   6.227  16.740 -0.3316  0.1364 -0.1118
   7623SM   C1S 9985  -0.023   6.432  16.574 -1.0702  0.7836  0.3928
   7623SM   H1S 9986  -0.070   6.495  16.652 -1.0189 -0.9506  1.8918
   7623SM   H1T 9987  -0.065   6.330  16.585  1.2640 -0.1401  1.3932
   7623SM    NF 9988  -0.191   6.530  16.422  0.0602 -0.0410  0.7140
   7623SM   HNF 9989  -0.257   6.468  16.379 -0.4112  0.4930  0.6629
   7623SM   C2S 9990  -0.056   6.490  16.429 -0.1810  0.5020  0.1151
   7623SM   H2S 9991   0.006   6.581  16.417 -1.4764  1.2873 -1.0259
   7623SM   C3S 9992  -0.013   6.381  16.320 -0.3818  0.2975  0.1694
   7623SM   H3S 9993  -0.083   6.295  16.330  1.6184 -1.4350  0.0918
   7623SM    O3 9994   0.127   6.333  16.335 -0.8887  0.7331  0.4696
   7623SM   HO3 9995   0.152   6.350  16.426  2.8647 -1.6293  0.1245
   7623SM   C4S 9996  -0.035   6.448  16.179 -0.6753  0.8122 -0.4214
   7623SM   H4S 9997   0.023   6.540  16.170 -0.0346  0.2819 -2.0249
   7623SM   C5S 9998  -0.136   6.421  16.098  0.3221  0.4209  0.2446
   7623SM   H5S 9999  -0.215   6.349  16.124  1.3136  0.1821  2.9500
   7623SM   C6S10000  -0.170   6.510  15.980 -0.1800  0.3777 -0.4681
   7623SM   H6S10001  -0.118   6.608  15.985  0.2327  0.2195 -1.5209
   7623SM   H6T10002  -0.281   6.522  15.986 -0.3509 -0.1659 -2.1768
   7623SM   C7S10003  -0.142   6.446  15.841  0.0248 -0.3688 -0.5811
   7623SM   H7S10004  -0.179   6.342  15.833 -1.5150  0.0906  0.2103
   7623SM   H7T10005  -0.034   6.446  15.815 -0.3294 -3.6362 -2.6033
   7623SM   C8S10006  -0.211   6.512  15.731  0.0658 -0.5172 -0.8976
   7623SM   H8S10007  -0.191   6.622  15.732 -2.3378 -0.0134 -1.2426
   7623SM   H8T10008  -0.322   6.511  15.739  0.1889  0.4097  2.1711
   7623SM   C9S10009  -0.152   6.472  15.598 -0.4228 -0.5126  0.0261
   7623SM   H9S10010  -0.172   6.366  15.570 -2.5393 -0.4960  1.2828
   7623SM   H9T10011  -0.041   6.466  15.602 -0.3716 -0.0441 -0.5757
   7623SM  C10S10012  -0.195   6.574  15.485 -0.3400  0.3413  0.5472
   7623SM  H10S10013  -0.156   6.673  15.518  2.6611 -0.6063  0.1628
   7623SM  H10T10014  -0.306   6.582  15.484 -0.3625  0.1419 -0.4055
   7623SM  C11S10015  -0.144   6.545  15.339  0.3333  0.1422 -0.1470
   7623SM  H11S10016  -0.035   6.527  15.330 -0.1904 -2.6835 -2.2739
   7623SM  H11T10017  -0.159   6.633  15.272 -1.6818 -0.6860 -0.8384
   7623SM  C12S10018  -0.220   6.435  15.264 -0.2455 -0.3464 -0.2258
   7623SM  H12S10019  -0.328   6.455  15.282 -0.3824  0.0247 -1.3793
   7623SM  H12T10020  -0.190   6.336  15.305 -0.3797 -0.0778  0.5365
   7623SM  C13S10021  -0.190   6.429  15.115  0.1320  0.0636  0.7500
   7623SM  H13S10022  -0.081   6.415  15.100 -0.0447 -1.4966  0.7473
   7623SM  H13T10023  -0.212   6.531  15.076 -0.2529 -0.6482 -0.9572
   7623SM  C14S10024  -0.281   6.323  15.049 -0.0808 -0.7232  0.8407
   7623SM  H14S10025  -0.388   6.349  15.064 -0.5265 -0.2140 -2.4130
   7623SM  H14T10026  -0.262   6.220  15.087  1.7396 -0.6870  0.1429
   7623SM  C15S10027  -0.253   6.322  14.899 -0.0670 -0.0666  0.0303
   7623SM  H15S10028  -0.145   6.320  14.877  0.3435 -2.0869  1.9337
   7623SM  H15T10029  -0.299   6.414  14.858  0.7507  0.9019  1.2109
   7623SM  C16S10030  -0.315   6.199  14.831  0.0151 -0.3034 -0.3485
   7623SM  H16S10031  -0.413   6.179  14.880 -0.7234  1.1429 -1.1775
   7623SM  H16T10032  -0.255   6.115  14.871  1.6240  0.6953 -0.5758
   7623SM  C17S10033  -0.325   6.207  14.680 -0.1789  0.1754  0.4430
   7623SM  H17S10034  -0.236   6.260  14.640  0.1488 -1.1638 -0.6988
   7623SM  H17T10035  -0.411   6.263  14.639  0.5766  0.5677 -0.6323
   7623SM  C18S10036  -0.334   6.071  14.617  0.3789  0.2435 -0.3988
   7623SM  H18S10037  -0.414   6.007  14.659 -1.6440  0.7986 -3.1280
   7623SM  H18T10038  -0.239   6.015  14.634  0.4502  0.2060 -0.8918
   7623SM  H18U10039  -0.346   6.070  14.506 -0.7022 -0.7854 -0.2925
   7623SM   C1F10040  -0.240   6.641  16.469  0.0218 -0.2775 -0.2767
   7623SM    OF10041  -0.160   6.722  16.521  0.2803  0.0010 -0.2217
   7623SM   C2F10042  -0.384   6.679  16.447  0.4324  0.0550 -0.0529
   7623SM   H2F10043  -0.448   6.657  16.535 -0.9222  0.7538 -0.8221
   7623SM   H2G10044  -0.425   6.623  16.360 -1.5497  1.8784 -0.3734
   7623SM   C3F10045  -0.412   6.831  16.414  0.0303 -0.9001  0.2717
   7623SM   H3F10046  -0.401   6.896  16.504 -0.8914  0.8391 -0.8120
   7623SM   H3G10047  -0.520   6.845  16.393  0.4462 -0.4120 -1.8002
   7623SM   C4F10048  -0.320   6.891  16.293  0.4257  0.7171 -0.3182
   7623SM   H4F10049  -0.212   6.884  16.320  0.1000 -2.4485  0.6182
   7623SM   H4G10050  -0.346   6.997  16.278  0.5623  1.0127  1.3631
   7623SM   C5F10051  -0.336   6.807  16.169  0.0610 -0.1957  0.5280
   7623SM   H5F10052  -0.355   6.701  16.196  1.2766 -0.2814  1.0844
   7623SM   H5G10053  -0.236   6.812  16.122  0.1246  4.2508  0.7107
   7623SM   C6F10054  -0.438   6.857  16.064  0.2095 -0.0412  0.0108
   7623SM   H6F10055  -0.418   6.956  16.017  1.6886  0.1783  1.0213
   7623SM   H6G10056  -0.539   6.859  16.110 -0.4910  2.6118 -1.4456
   7623SM   C7F10057  -0.446   6.749  15.946 -0.1171 -0.1118 -0.2052
   7623SM   H7F10058  -0.483   6.651  15.982 -0.9981  0.3070  0.0595
   7623SM   H7G10059  -0.343   6.740  15.906  0.4552 -0.7787  1.3448
   7623SM   C8F10060  -0.530   6.789  15.823  0.1414 -0.4566 -0.0675
   7623SM   H8F10061  -0.516   6.898  15.807 -1.6977  0.1949  2.2299
   7623SM   H8G10062  -0.638   6.772  15.843  0.1747  0.8160  1.3450
   7623SM   C9F10063  -0.505   6.715  15.686  0.3637 -0.4481 -1.0241
   7623SM   H9F10064  -0.527   6.606  15.690  1.1282 -0.6541 -2.0224
   7623SM   H9G10065  -0.399   6.719  15.653  0.3634 -0.4589 -1.0275
   7623SM  C10F10066  -0.592   6.775  15.578 -0.0126 -0.1537  0.2654
   7623SM  H10F10067  -0.559   6.881  15.574  1.3170 -0.5480  0.2089
   7623SM  H10G10068  -0.700   6.777  15.605 -0.5305  0.3489 -1.6693
   7623SM  C11F10069  -0.569   6.715  15.437 -0.3556 -1.2705 -0.6252
   7623SM  H11F10070  -0.466   6.679  15.419  1.7083  2.3004  2.6169
   7623SM  H11G10071  -0.582   6.799  15.366  2.9124  0.0604  0.1623
   7623SM  C12F10072  -0.660   6.589  15.430 -0.0970  0.1622 -0.1131
   7623SM  H12F10073  -0.767   6.620  15.440  0.4856  2.3830 -0.3645
   7623SM  H12G10074  -0.633   6.513  15.506 -1.5596 -1.4247 -1.1107
   7623SM  C13F10075  -0.662   6.506  15.297  0.4522 -0.2255  0.7265
   7623SM  H13F10076  -0.716   6.413  15.324  0.7499 -0.6619 -0.1517
   7623SM  H13G10077  -0.555   6.482  15.279  0.5242  0.7443 -0.2071
   7623SM  C14F10078  -0.717   6.575  15.175  0.3415 -0.2881 -0.5740
   7623SM  H14F10079  -0.639   6.652  15.159  3.0450 -3.1777 -2.8698
   7623SM  H14G10080  -0.817   6.620  15.188  0.5827  0.1217 -0.1379
   7623SM  C15F10081  -0.734   6.490  15.058 -0.4346 -0.0631 -0.2337
   7623SM  H15F10082  -0.837   6.448  15.051  0.9362 -3.6616 -1.3230
   7623SM  H15G10083  -0.666   6.402  15.071  0.8963  1.0852  0.9198
   7623SM  C16F10084  -0.698   6.561  14.927  0.1961 -0.2055  0.2697
   7623SM  H16F10085  -0.593   6.587  14.948  0.6498 -1.8813  0.1674
   7623SM  H16G10086  -0.762   6.651  14.914 -0.3410 -0.1678  2.6184
   7623SM  C17F10087  -0.708   6.468  14.811  0.0972 -0.7742 -0.9317
   7623SM  H17F10088  -0.798   6.404  14.822 -1.6666  1.4922 -1.3701
   7623SM  H17G10089  -0.621   6.399  14.810 -1.0438 -2.3496  1.1840
   7623SM  C18F10090  -0.713   6.540  14.682 -0.3987 -0.0238  0.0914
   7623SM  H18F10091  -0.611   6.571  14.653 -0.3315  0.7292  1.0560
   7623SM  H18G10092  -0.764   6.639  14.688 -1.5989 -0.6429  0.3970
   7623SM  C19F10093  -0.772   6.461  14.564 -0.7077  1.4649 -0.0693
   7623SM  H19F10094  -0.703   6.375  14.548  0.3025  1.8733  1.8649
   7623SM  H19G10095  -0.768   6.524  14.472 -0.0685  2.9766  0.9489
   7623SM  C20F10096  -0.923   6.423  14.574  0.9288 -1.0121 -0.0072
   7623SM  H20F10097  -0.978   6.520  14.573  0.7858 -1.0945 -0.2721
   7623SM  H20G10098  -0.932   6.379  14.676  3.1371  0.9913  1.1467
   7623SM  C21F10099  -0.973   6.329  14.467  0.6646  0.2730  0.2479
   7623SM  H21F10100  -0.979   6.364  14.362 -2.1416 -1.6278 -0.3352
   7623SM  H21G10101  -1.079   6.307  14.494  0.7572  1.1076  1.3727
   7623SM  C22F10102  -0.904   6.197  14.483  0.6407 -0.2205 -0.5984
   7623SM  H22F10103  -0.907   6.150  14.584 -0.0397  1.1331  0.0378
   7623SM  H22G10104  -0.799   6.209  14.451  0.6199 -0.2817 -0.6916
   7623SM  C23F10105  -0.973   6.095  14.391  0.2826  0.9983 -0.0409
   7623SM  H23F10106  -0.952   6.127  14.287  3.3470  0.9285  0.4765
   7623SM  H23G10107  -1.078   6.073  14.420  0.6295 -0.5447  0.1566
   7623SM  H23H10108  -0.936   5.995  14.421 -1.4471  0.9320  2.1742
   7723SM     N10109   1.137   1.520  16.915 -0.3474 -0.6188 -0.0900
   7723SM   C1510110   1.067   1.522  17.054  0.0971 -0.1267  1.1388
   7723SM  H15A10111   0.963   1.523  17.027  0.6913  2.3426 -1.4899
   7723SM  H15B10112   1.098   1.606  17.115  3.3670 -0.8245  0.6669
   7723SM  H15C10113   1.097   1.432  17.107  0.4550 -1.3347 -1.0200
   7723SM   C1410114   1.280   1.535  16.954  0.6214 -0.2868  0.2394
   7723SM  H14A10115   1.298   1.633  16.995  2.2948  0.1319 -1.3358
   7723SM  H14B10116   1.349   1.529  16.871  3.0332  0.3077  2.1017
   7723SM  H14C10117   1.314   1.459  17.023  0.3396 -1.1603 -0.5634
   7723SM   C1310118   1.107   1.396  16.840 -0.9109 -0.2623 -0.1588
   7723SM  H13A10119   1.120   1.313  16.909 -0.9088 -0.7720 -0.7710
   7723SM  H13B10120   1.173   1.379  16.757 -1.0756 -2.2129  0.0432
   7723SM  H13C10121   1.005   1.390  16.804 -1.6694 -1.2525  1.9725
   7723SM   C1210122   1.092   1.640  16.834  0.1231  0.3962 -0.1219
   7723SM  H12A10123   1.145   1.641  16.740 -2.2255  2.1583 -1.5233
   7723SM  H12B10124   1.130   1.725  16.888 -1.1683  0.4164  0.8189
   7723SM   C1110125   0.941   1.657  16.803 -0.0793 -0.1141 -0.5956
   7723SM  H11A10126   0.906   1.562  16.757 -1.2836 -0.9342  1.8549
   7723SM  H11B10127   0.940   1.740  16.729 -0.3835  0.9116  0.5324
   7723SM     P10128   0.850   1.839  16.960  0.2795 -0.0316  0.0394
   7723SM   O1310129   0.746   1.862  17.062 -0.6652  0.4461 -0.6849
   7723SM   O1410130   0.983   1.897  16.987  0.2300  0.1382  0.1011
   7723SM   O1110131   0.799   1.904  16.827  0.0003 -0.2290  0.2321
   7723SM   O1210132   0.859   1.692  16.914 -0.2764  0.1565  0.1233
   7723SM   C1S10133   0.663   1.867  16.781  0.1965  0.1374 -0.3219
   7723SM   H1S10134   0.590   1.887  16.863  0.9658  0.6242  0.2604
   7723SM   H1T10135   0.667   1.760  16.752  0.7247  1.1538 -4.7729
   7723SM    NF10136   0.476   1.919  16.624  0.4525 -0.5362  0.1477
   7723SM   HNF10137   0.456   1.866  16.542 -1.8339 -1.1911  1.0376
   7723SM   C2S10138   0.618   1.939  16.648 -0.0212  0.0494  0.2349
   7723SM   H2S10139   0.621   2.049  16.664 -2.1227  0.0469  1.0609
   7723SM   C3S10140   0.715   1.911  16.532  0.2223  0.7469 -0.3747
   7723SM   H3S10141   0.702   1.803  16.510  0.9173  0.5831 -0.0073
   7723SM    O310142   0.855   1.912  16.552  0.0154  0.3903 -0.1998
   7723SM   HO310143   0.855   1.915  16.648 -0.6871 -0.0789 -0.1786
   7723SM   C4S10144   0.673   1.983  16.413  0.0305 -0.0297  0.1153
   7723SM   H4S10145   0.622   1.925  16.334  1.2024 -0.8401 -0.0782
   7723SM   C5S10146   0.718   2.106  16.376  0.0865  0.8796 -0.4897
   7723SM   H5S10147   0.791   2.151  16.445  0.8264 -0.1566 -0.5619
   7723SM   C6S10148   0.696   2.167  16.240 -0.3503 -0.0541 -0.4316
   7723SM   H6S10149   0.793   2.195  16.194 -0.4371 -0.0692 -0.6235
   7723SM   H6T10150   0.650   2.265  16.265  0.4698 -0.2544  2.2386
   7723SM   C7S10151   0.611   2.086  16.144  0.3782  0.2724 -0.6278
   7723SM   H7S10152   0.512   2.062  16.186  0.0891  1.5884 -0.4918
   7723SM   H7T10153   0.657   1.987  16.123 -0.4326 -0.2615  0.1018
   7723SM   C8S10154   0.584   2.149  16.008 -0.1855 -0.6769  0.5934
   7723SM   H8S10155   0.680   2.191  15.971 -0.0874 -1.0178  0.4576
   7723SM   H8T10156   0.511   2.230  16.025  0.5866  0.5694 -1.6640
   7723SM   C9S10157   0.511   2.052  15.909 -0.7200  0.0302  0.9323
   7723SM   H9S10158   0.432   1.992  15.957  0.3221 -1.6646  0.6064
   7723SM   H9T10159   0.582   1.978  15.866 -0.3713 -0.9881  3.1350
   7723SM  C10S10160   0.446   2.128  15.788  1.7495  0.1076 -0.2612
   7723SM  H10S10161   0.523   2.171  15.721  0.8944  0.5797 -0.9585
   7723SM  H10T10162   0.379   2.206  15.830  1.1182 -1.7033  2.3146
   7723SM  C11S10163   0.361   2.042  15.693 -0.6415 -0.8079 -0.1692
   7723SM  H11S10164   0.273   1.998  15.745 -1.0760  1.0411  0.7560
   7723SM  H11T10165   0.427   1.966  15.647  0.7765  1.2122 -1.6806
   7723SM  C12S10166   0.306   2.133  15.586  0.7563  0.1451 -0.7976
   7723SM  H12S10167   0.387   2.172  15.522  1.4286  0.2197  0.0948
   7723SM  H12T10168   0.262   2.226  15.627  1.5037  0.5145 -0.8231
   7723SM  C13S10169   0.211   2.060  15.489 -0.4270  0.4883 -0.3175
   7723SM  H13S10170   0.142   1.994  15.547  1.6406 -1.0726  0.4707
   7723SM  H13T10171   0.276   2.002  15.420 -1.2932 -0.2378 -0.5408
   7723SM  C14S10172   0.121   2.159  15.418  0.2981 -0.0239  0.3854
   7723SM  H14S10173   0.056   2.213  15.489 -1.1881 -1.1480 -0.0568
   7723SM  H14T10174   0.058   2.091  15.356 -1.0720  1.3130  0.2581
   7723SM  C15S10175   0.186   2.253  15.322  0.6451 -0.8003  0.0585
   7723SM  H15S10176   0.248   2.320  15.384  0.2807  1.0208 -1.4377
   7723SM  H15T10177   0.101   2.313  15.283 -0.1458  0.0046  2.8204
   7723SM  C16S10178   0.262   2.188  15.203  0.2573 -0.2492  0.6024
   7723SM  H16S10179   0.341   2.119  15.240  1.2438  1.7787  2.4489
   7723SM  H16T10180   0.309   2.280  15.162 -1.6970  0.8432  0.7292
   7723SM  C17S10181   0.170   2.118  15.095 -0.3446 -1.1481 -0.9528
   7723SM  H17S10182   0.089   2.186  15.060  1.0422  0.8509 -0.4967
   7723SM  H17T10183   0.118   2.046  15.163  0.1236  0.0707  0.7840
   7723SM  C18S10184   0.240   2.049  14.981 -0.4137  0.5524  0.2142
   7723SM  H18S10185   0.183   1.973  14.923  0.0365 -0.2530  0.8156
   7723SM  H18T10186   0.319   1.991  15.032 -0.1975  2.1505  1.7810
   7723SM  H18U10187   0.289   2.119  14.910 -0.1097 -0.6083 -0.7545
   7723SM   C1F10188   0.383   1.976  16.703  0.2825 -0.1505 -0.2648
   7723SM    OF10189   0.412   2.042  16.801  0.4510  0.9366 -0.6070
   7723SM   C2F10190   0.242   1.948  16.659 -0.1001  0.0682 -0.0802
   7723SM   H2F10191   0.187   1.911  16.748 -0.0516  0.0792 -0.0444
   7723SM   H2G10192   0.248   1.856  16.597 -2.5446 -0.6708  0.6730
   7723SM   C3F10193   0.168   2.062  16.587 -0.3113  1.1173  0.6208
   7723SM   H3F10194   0.154   2.161  16.637 -3.7879  1.0723  0.0079
   7723SM   H3G10195   0.069   2.015  16.568 -0.6108  1.5129  1.1524
   7723SM   C4F10196   0.227   2.085  16.439  0.2471  0.3644 -0.0481
   7723SM   H4F10197   0.217   1.988  16.386 -0.1140  0.2935  0.1437
   7723SM   H4G10198   0.336   2.102  16.451  0.4665 -1.7545  1.3757
   7723SM   C5F10199   0.163   2.200  16.369 -0.1238  0.4133  0.5078
   7723SM   H5F10200   0.195   2.294  16.417 -1.3095  0.7241  0.7340
   7723SM   H5G10201   0.053   2.201  16.383 -0.0998  0.0913  0.7580
   7723SM   C6F10202   0.194   2.207  16.220  0.0388 -0.0190 -0.1672
   7723SM   H6F10203   0.159   2.118  16.163  0.6070 -0.5022  0.2269
   7723SM   H6G10204   0.304   2.204  16.204  0.1502  1.1263  0.2644
   7723SM   C7F10205   0.153   2.340  16.152  0.2115  0.3394  0.0478
   7723SM   H7F10206   0.217   2.424  16.186 -0.8432  0.8175  0.9342
   7723SM   H7G10207   0.044   2.358  16.167  0.0259  0.1738 -0.9985
   7723SM   C8F10208   0.181   2.331  15.996 -0.4103  0.6555 -0.0033
   7723SM   H8F10209   0.166   2.233  15.945  0.9799  1.9151 -3.0822
   7723SM   H8G10210   0.292   2.339  15.987 -0.0092 -0.5250  2.6905
   7723SM   C9F10211   0.100   2.441  15.929 -0.4556  0.3042  0.2420
   7723SM   H9F10212   0.097   2.529  15.998  0.9922  1.6578 -1.3274
   7723SM   H9G10213  -0.008   2.414  15.932 -0.2435 -0.5274  0.8830
   7723SM  C10F10214   0.135   2.485  15.783 -0.0845  0.5243 -0.5191
   7723SM  H10F10215   0.161   2.392  15.729  0.2704  1.5153 -2.1069
   7723SM  H10G10216   0.223   2.553  15.776 -0.4381  1.3762  2.0724
   7723SM  C11F10217   0.021   2.561  15.708  0.6591  0.1867 -0.3226
   7723SM  H11F10218  -0.077   2.509  15.712  0.3283  0.6822 -1.5081
   7723SM  H11G10219   0.031   2.577  15.598 -0.3632  1.6976 -0.2322
   7723SM  C12F10220   0.007   2.698  15.772  0.8298  0.0316 -0.2950
   7723SM  H12F10221   0.101   2.758  15.766 -0.0337  1.2614 -2.8474
   7723SM  H12G10222  -0.016   2.693  15.880 -0.0279  0.1153 -0.4739
   7723SM  C13F10223  -0.107   2.783  15.700 -0.6200 -0.2256 -0.0367
   7723SM  H13F10224  -0.207   2.737  15.714 -1.3532  0.6879 -1.8725
   7723SM  H13G10225  -0.100   2.800  15.590 -1.1734  2.2610  0.2491
   7723SM  C14F10226  -0.111   2.921  15.772 -0.1484 -0.1424  0.1292
   7723SM  H14F10227  -0.009   2.967  15.772 -1.2231  2.5767 -1.9467
   7723SM  H14G10228  -0.134   2.911  15.880 -0.7772 -1.6107 -0.1128
   7723SM  C15F10229  -0.202   3.023  15.698  0.5721  0.0077  0.2959
   7723SM  H15F10230  -0.304   2.982  15.709  0.7579  0.0540  2.5719
   7723SM  H15G10231  -0.176   3.030  15.590  1.3407  0.8614  0.5228
   7723SM  C16F10232  -0.203   3.171  15.755 -0.2549  0.7860 -0.2248
   7723SM  H16F10233  -0.101   3.206  15.729  0.2388 -0.5505 -0.1645
   7723SM  H16G10234  -0.216   3.168  15.865  0.8484 -0.4713 -0.0993
   7723SM  C17F10235  -0.301   3.261  15.684 -0.0417  0.0929 -0.2116
   7723SM  H17F10236  -0.302   3.359  15.736  1.0543  0.2659 -0.4907
   7723SM  H17G10237  -0.404   3.223  15.704 -0.8656  2.2370 -0.0454
   7723SM  C18F10238  -0.281   3.281  15.535  0.0400 -0.0410 -0.7774
   7723SM  H18F10239  -0.303   3.182  15.489  2.2317 -2.3132  2.5081
   7723SM  H18G10240  -0.175   3.302  15.511 -0.4318  0.7575 -2.2367
   7723SM  C19F10241  -0.363   3.398  15.478 -0.0853 -0.2144  0.1532
   7723SM  H19F10242  -0.345   3.490  15.537  0.5462 -0.3851  0.2290
   7723SM  H19G10243  -0.471   3.371  15.473 -0.2667  0.6976 -2.2254
   7723SM  C20F10244  -0.321   3.431  15.336  0.1474  0.2213  0.1435
   7723SM  H20F10245  -0.283   3.345  15.277 -0.4318  0.0269  0.0428
   7723SM  H20G10246  -0.247   3.513  15.319 -2.9164  3.0597 -0.5576
   7723SM  C21F10247  -0.439   3.489  15.251 -0.1735  0.4599 -0.1982
   7723SM  H21F10248  -0.380   3.540  15.172  1.1036  1.6877  1.4746
   7723SM  H21G10249  -0.479   3.578  15.304  1.3528  0.1611  1.5247
   7723SM  C22F10250  -0.549   3.395  15.204  0.1619 -0.6140 -0.4473
   7723SM  H22F10251  -0.610   3.353  15.287  1.0008  0.1660  0.5838
   7723SM  H22G10252  -0.500   3.313  15.148  1.6776  1.2994 -2.0481
   7723SM  C23F10253  -0.644   3.457  15.099  0.0034 -0.0552  0.1278
   7723SM  H23F10254  -0.589   3.508  15.016  1.0564 -0.1675  0.7477
   7723SM  H23G10255  -0.711   3.532  15.146 -2.5601 -1.3253 -1.2679
   7723SM  H23H10256  -0.713   3.381  15.056 -0.3268  0.4992 -0.3396
   7823SM     N10257   0.664   7.668  17.036  0.0250 -0.8317 -0.1174
   7823SM   C1510258   0.584   7.760  17.119  0.0313  0.5850  0.4476
   7823SM  H15A10259   0.608   7.738  17.222  0.5361 -1.8417 -0.1234
   7823SM  H15B10260   0.478   7.744  17.112 -0.7331  2.9176  3.9047
   7823SM  H15C10261   0.611   7.861  17.094  0.4007 -0.0170 -1.7445
   7823SM   C1410262   0.802   7.702  17.069  0.1185  0.9847 -0.3657
   7823SM  H14A10263   0.832   7.668  17.167 -1.4484 -1.5038 -0.6511
   7823SM  H14B10264   0.822   7.805  17.046 -0.6129  1.4638  1.0122
   7823SM  H14C10265   0.864   7.648  17.000  0.4797  1.5024 -0.4484
   7823SM   C1310266   0.637   7.530  17.077  1.2470 -0.9980 -0.1743
   7823SM  H13A10267   0.653   7.508  17.182 -1.1564 -4.4945 -0.3628
   7823SM  H13B10268   0.702   7.469  17.016 -0.6141 -1.7632 -1.4618
   7823SM  H13C10269   0.536   7.503  17.051 -0.4524  1.3626  3.2208
   7823SM   C1210270   0.631   7.692  16.886 -0.6188  0.2553 -0.1598
   7823SM  H12A10271   0.534   7.650  16.865  0.0883 -1.9212  0.6569
   7823SM  H12B10272   0.708   7.640  16.831  0.0905  0.0260  0.9900
   7823SM   C1110273   0.639   7.837  16.830 -0.1171  0.2612  0.2076
   7823SM  H11A10274   0.574   7.900  16.894 -0.5596 -1.3516  1.4056
   7823SM  H11B10275   0.574   7.835  16.741 -1.3421 -2.6588  1.0253
   7823SM     P10276   0.884   7.830  16.738 -0.4022 -0.3799 -0.2734
   7823SM   O1310277   0.986   7.939  16.734 -0.0596  0.7245 -0.3609
   7823SM   O1410278   0.933   7.700  16.788  0.5588  0.2341 -0.1497
   7823SM   O1110279   0.833   7.805  16.589 -0.0826 -0.1178 -1.0254
   7823SM   O1210280   0.766   7.889  16.820  0.1555 -0.3395 -0.0086
   7823SM   C1S10281   0.760   7.690  16.560  0.1342  0.3934  0.0173
   7823SM   H1S10282   0.656   7.683  16.598  0.1938 -2.4459 -0.1267
   7823SM   H1T10283   0.823   7.604  16.592  1.9062  2.0419  1.1919
   7823SM    NF10284   0.669   7.566  16.365 -0.0778 -0.3602 -0.6881
   7823SM   HNF10285   0.723   7.483  16.351 -0.0772 -0.8651  1.8885
   7823SM   C2S10286   0.743   7.687  16.402 -0.5349 -0.3021  0.4716
   7823SM   H2S10287   0.683   7.777  16.375 -1.1926 -0.7031  0.5930
   7823SM   C3S10288   0.884   7.704  16.325 -0.4049  0.2670 -0.2245
   7823SM   H3S10289   0.950   7.627  16.371 -0.1135  2.2328  3.0169
   7823SM    O310290   0.959   7.818  16.348  0.2896 -0.5955  0.4929
   7823SM   HO310291   0.909   7.867  16.414  1.5668 -0.2315  1.2195
   7823SM   C4S10292   0.855   7.680  16.178  0.7095 -0.1865  0.0046
   7823SM   H4S10293   0.842   7.574  16.154 -0.8992 -0.1527  0.6227
   7823SM   C5S10294   0.849   7.772  16.079  0.0918 -0.5612  0.1224
   7823SM   H5S10295   0.869   7.877  16.105  0.0483  0.0533 -2.0972
   7823SM   C6S10296   0.817   7.745  15.938  0.2703  0.0659  0.0397
   7823SM   H6S10297   0.908   7.756  15.876  0.0753 -1.7924 -0.6392
   7823SM   H6T10298   0.740   7.819  15.905 -0.9123 -0.1728  2.0984
   7823SM   C7S10299   0.752   7.608  15.903  0.3733  0.2842 -0.0720
   7823SM   H7S10300   0.659   7.590  15.960 -0.5456 -0.8945 -1.8456
   7823SM   H7T10301   0.813   7.520  15.932 -0.6096 -0.8809 -1.3980
   7823SM   C8S10302   0.705   7.588  15.757 -0.3324  0.1346  0.4547
   7823SM   H8S10303   0.621   7.658  15.741  2.5179  3.9378  0.9133
   7823SM   H8T10304   0.681   7.482  15.734 -1.2098  0.7815 -1.9097
   7823SM   C9S10305   0.805   7.643  15.657  0.1045 -0.5425 -0.2650
   7823SM   H9S10306   0.909   7.611  15.677  0.7994 -0.4880 -3.3308
   7823SM   H9T10307   0.806   7.755  15.654 -0.7379 -0.4929  0.8462
   7823SM  C10S10308   0.777   7.602  15.510 -0.3085  0.4791 -0.1209
   7823SM  H10S10309   0.674   7.639  15.488 -0.5382  1.2492  2.0258
   7823SM  H10T10310   0.779   7.491  15.515  1.9534  0.5205  2.3524
   7823SM  C11S10311   0.871   7.655  15.403  0.1647  0.4686 -0.9970
   7823SM  H11S10312   0.975   7.621  15.425 -0.8492 -1.6314  0.8730
   7823SM  H11T10313   0.876   7.765  15.418 -1.6586  0.7689 -2.2484
   7823SM  C12S10314   0.833   7.631  15.255 -0.2923  0.4059 -0.0622
   7823SM  H12S10315   0.770   7.540  15.251  1.0771 -0.5428 -2.2258
   7823SM  H12T10316   0.921   7.620  15.188 -0.4037 -0.5144 -0.0644
   7823SM  C13S10317   0.736   7.752  15.210  0.1034 -0.8827 -0.4389
   7823SM  H13S10318   0.784   7.850  15.228 -1.8353  0.1376 -0.6011
   7823SM  H13T10319   0.650   7.736  15.279  0.4623  1.0036  0.4978
   7823SM  C14S10320   0.670   7.737  15.073  0.1799 -0.4134  0.2235
   7823SM  H14S10321   0.584   7.808  15.079  0.9974  0.6433 -0.2011
   7823SM  H14T10322   0.633   7.633  15.058  0.4211 -0.0879 -3.6968
   7823SM  C15S10323   0.770   7.784  14.963 -0.3133 -0.2644 -0.3608
   7823SM  H15S10324   0.864   7.724  14.964 -1.9447 -2.9947  0.0956
   7823SM  H15T10325   0.776   7.895  14.960 -1.1061 -0.2345 -1.3271
   7823SM  C16S10326   0.720   7.744  14.813  0.1943  0.2927 -0.3679
   7823SM  H16S10327   0.718   7.633  14.809 -0.2636  0.2425  0.8147
   7823SM  H16T10328   0.793   7.776  14.736 -0.8162  0.1651 -1.3897
   7823SM  C17S10329   0.589   7.811  14.762  0.2771  0.1137 -0.4380
   7823SM  H17S10330   0.602   7.921  14.751 -0.7967  0.3977  0.7617
   7823SM  H17T10331   0.507   7.795  14.835  1.0093 -2.0480 -0.0392
   7823SM  C18S10332   0.560   7.756  14.622 -0.3939  0.9274  0.4935
   7823SM  H18S10333   0.456   7.783  14.597 -0.3473  0.9036  0.2715
   7823SM  H18T10334   0.565   7.646  14.634 -1.7948  0.8527  0.5490
   7823SM  H18U10335   0.627   7.791  14.540 -1.1886  3.6757  0.9100
   7823SM   C1F10336   0.535   7.555  16.384  0.2319 -0.8284  0.1765
   7823SM    OF10337   0.477   7.653  16.425  0.8403  0.2981  0.0469
   7823SM   C2F10338   0.476   7.418  16.390 -0.2362  0.4790 -0.4681
   7823SM   H2F10339   0.451   7.399  16.496  0.8934  0.7109 -0.1506
   7823SM   H2G10340   0.560   7.348  16.369 -1.4757 -1.3819  0.5058
   7823SM   C3F10341   0.358   7.403  16.290  0.0506 -0.2773 -0.3335
   7823SM   H3F10342   0.269   7.463  16.317 -0.4153 -0.7940 -0.6797
   7823SM   H3G10343   0.326   7.296  16.297  1.7546 -0.7920  0.0527
   7823SM   C4F10344   0.395   7.446  16.144  0.2503  0.1726  0.1912
   7823SM   H4F10345   0.491   7.396  16.116  1.4307  1.3158  2.0297
   7823SM   H4G10346   0.416   7.554  16.127  1.6233 -0.0112  0.5801
   7823SM   C5F10347   0.285   7.397  16.054  0.4580 -0.4186 -0.1302
   7823SM   H5F10348   0.196   7.463  16.058 -0.5953 -1.6653 -1.7972
   7823SM   H5G10349   0.249   7.293  16.066 -2.4068  0.2768 -1.7017
   7823SM   C6F10350   0.336   7.403  15.906  0.3171  0.2459  0.1586
   7823SM   H6F10351   0.409   7.320  15.890  0.9567  0.0957  3.1775
   7823SM   H6G10352   0.383   7.502  15.889 -0.3155  0.9987  2.4944
   7823SM   C7F10353   0.230   7.370  15.804  0.7675  0.2658 -0.1840
   7823SM   H7F10354   0.174   7.278  15.829 -0.2732  1.2272  1.2348
   7823SM   H7G10355   0.282   7.350  15.708  1.3489  1.8078 -0.2139
   7823SM   C8F10356   0.145   7.491  15.777  0.4341  0.0440 -0.3529
   7823SM   H8F10357   0.214   7.565  15.732  0.2198  0.5071  0.0729
   7823SM   H8G10358   0.120   7.545  15.871  2.9974  0.9493 -0.1127
   7823SM   C9F10359   0.033   7.466  15.675 -0.3470  0.1120 -0.9275
   7823SM   H9F10360  -0.003   7.363  15.697  2.9094 -1.1663 -0.9983
   7823SM   H9G10361   0.085   7.449  15.578  1.6652 -2.3849  0.4672
   7823SM  C10F10362  -0.066   7.584  15.669 -0.2161 -0.5626  0.5472
   7823SM  H10F10363  -0.119   7.595  15.766 -0.7367 -0.5276  0.2625
   7823SM  H10G10364  -0.141   7.559  15.591  0.2908 -0.3049 -0.0230
   7823SM  C11F10365   0.001   7.718  15.642  1.3370  0.4298 -0.0886
   7823SM  H11F10366   0.098   7.693  15.594  1.0091 -1.5371  0.1706
   7823SM  H11G10367   0.020   7.788  15.726  0.9996  0.2823  0.1148
   7823SM  C12F10368  -0.082   7.790  15.539  0.7682  0.3718  0.1773
   7823SM  H12F10369  -0.090   7.723  15.451  2.5450  1.2797 -0.7295
   7823SM  H12G10370  -0.032   7.885  15.509  0.6495  0.1572 -0.7037
   7823SM  C13F10371  -0.226   7.828  15.590 -0.2526  0.1430 -1.3484
   7823SM  H13F10372  -0.202   7.881  15.685  1.2490 -1.9289 -0.5215
   7823SM  H13G10373  -0.289   7.741  15.616 -1.4909  1.1536 -0.8507
   7823SM  C14F10374  -0.298   7.904  15.475  0.1123 -0.1803  0.4660
   7823SM  H14F10375  -0.286   7.835  15.389  2.5577 -2.7480  2.6690
   7823SM  H14G10376  -0.239   7.994  15.446 -2.4299  1.6477  0.6517
   7823SM  C15F10377  -0.444   7.943  15.503  0.1112 -0.5598  0.4161
   7823SM  H15F10378  -0.448   8.046  15.547 -0.9859 -1.0964  1.6462
   7823SM  H15G10379  -0.476   7.879  15.588  0.7870 -0.2660  0.9081
   7823SM  C16F10380  -0.542   7.933  15.388 -0.5463 -0.2290 -0.2919
   7823SM  H16F10381  -0.647   7.956  15.417 -0.4923 -0.7847  0.3528
   7823SM  H16G10382  -0.542   7.831  15.342 -0.1372 -0.1245 -0.5278
   7823SM  C17F10383  -0.503   8.019  15.268  0.7179 -0.7977  0.7553
   7823SM  H17F10384  -0.394   8.028  15.254  0.7828 -0.4133  1.4638
   7823SM  H17G10385  -0.538   8.123  15.286  0.5999 -0.7537  0.3023
   7823SM  C18F10386  -0.566   7.982  15.126 -0.1913  0.6003  0.4122
   7823SM  H18F10387  -0.526   7.880  15.110 -0.6042  0.3029  1.2174
   7823SM  H18G10388  -0.511   8.041  15.050  0.5674 -1.7429 -0.9783
   7823SM  C19F10389  -0.714   7.985  15.119  0.2678  0.0632 -0.7196
   7823SM  H19F10390  -0.755   8.085  15.143 -0.2999 -0.4783  0.6461
   7823SM  H19G10391  -0.752   7.911  15.193 -0.3123 -0.9085 -1.9434
   7823SM  C20F10392  -0.772   7.967  14.977 -0.1615 -0.1816  0.2112
   7823SM  H20F10393  -0.727   7.876  14.930 -2.4026 -1.4816  0.4350
   7823SM  H20G10394  -0.731   8.048  14.914 -1.7299  0.0244 -0.5647
   7823SM  C21F10395  -0.917   7.935  14.966  0.5697 -0.0802 -0.4093
   7823SM  H21F10396  -0.958   7.929  14.863 -0.9345 -0.8977  0.1939
   7823SM  H21G10397  -0.980   8.002  15.031  3.0698  3.7659 -1.6086
   7823SM  C22F10398  -0.934   7.788  15.010  0.3921  0.2577  0.0183
   7823SM  H22F10399  -0.901   7.774  15.115 -0.5254 -1.2840  0.1210
   7823SM  H22G10400  -0.870   7.723  14.947  1.1429  1.7625 -0.8483
   7823SM  C23F10401  -1.080   7.725  15.011 -0.2645 -0.5504 -0.1507
   7823SM  H23F10402  -1.080   7.659  14.922  2.4305  1.3159 -1.7014
   7823SM  H23G10403  -1.154   7.807  14.997 -1.2222 -1.6572 -1.8979
   7823SM  H23H10404  -1.093   7.664  15.102  1.1980 -0.6431  0.0243
   7923SM     N10405   6.721   0.603  17.368 -0.1737  0.4145  0.1990
   7923SM   C1510406   6.816   0.493  17.415  0.1468  0.2637  0.2084
   7923SM  H15A10407   6.917   0.503  17.379 -0.4162 -0.0058 -1.5159
   7923SM  H15B10408   6.780   0.399  17.377  0.1207 -0.2230  1.3972
   7923SM  H15C10409   6.822   0.497  17.523  1.5347  0.9774  0.1312
   7923SM   C1410410   6.775   0.731  17.414  0.7612 -0.1748  0.2261
   7923SM  H14A10411   6.722   0.815  17.373 -0.1885 -0.4423  0.8858
   7923SM  H14B10412   6.876   0.733  17.375  0.8044  0.9339  0.3670
   7923SM  H14C10413   6.774   0.730  17.522 -0.8230  0.0274  0.2259
   7923SM   C1310414   6.713   0.603  17.217 -0.0987 -0.8832 -0.0389
   7923SM  H13A10415   6.804   0.608  17.159  0.3690  1.6138  0.7553
   7923SM  H13B10416   6.671   0.698  17.184  1.5695  0.2886  1.0338
   7923SM  H13C10417   6.651   0.522  17.181 -0.8750  0.3628 -1.6602
   7923SM   C1210418   6.585   0.583  17.424  0.0202 -0.5222  0.0748
   7923SM  H12A10419   6.526   0.674  17.427  0.6326 -0.0982  3.4971
   7923SM  H12B10420   6.585   0.563  17.530  0.1609  2.8443  0.8368
   7923SM   C1110421   6.501   0.474  17.350  0.2880  0.1506 -0.5087
   7923SM  H11A10422   6.417   0.428  17.406 -2.2614  4.1485 -0.6614
   7923SM  H11B10423   6.554   0.381  17.321  0.7221  0.5136 -0.9134
   7923SM     P10424   6.310   0.615  17.260  0.1185  0.0951 -0.0118
   7923SM   O1310425   6.184   0.535  17.258 -0.4977  0.4002  0.2232
   7923SM   O1410426   6.334   0.706  17.377  0.1554  0.4537 -0.5179
   7923SM   O1110427   6.316   0.704  17.138  0.4695  0.0055  0.5067
   7923SM   O1210428   6.435   0.523  17.233 -0.3272 -0.4744  0.2797
   7923SM   C1S10429   6.289   0.637  17.006 -0.8393  0.2437  0.6345
   7923SM   H1S10430   6.185   0.605  16.983 -0.2075 -1.0123 -0.6376
   7923SM   H1T10431   6.349   0.544  17.001  1.5846  1.6069  2.2572
   7923SM    NF10432   6.323   0.643  16.765 -0.2655  0.0616 -0.0016
   7923SM   HNF10433   6.403   0.625  16.708 -1.1330  0.2058 -1.3118
   7923SM   C2S10434   6.341   0.718  16.885 -0.1169 -0.2791  0.1082
   7923SM   H2S10435   6.270   0.803  16.889 -1.4060 -1.3823  2.4195
   7923SM   C3S10436   6.479   0.786  16.916 -0.5057  0.0383  0.2388
   7923SM   H3S10437   6.553   0.704  16.927 -0.7868 -0.2466  0.0077
   7923SM    O310438   6.485   0.863  17.034  0.0496  0.7773  0.0583
   7923SM   HO310439   6.422   0.820  17.093  3.3528 -1.5440  2.3081
   7923SM   C4S10440   6.525   0.875  16.801 -0.1463  0.6138 -0.1349
   7923SM   H4S10441   6.550   0.809  16.717 -2.7495 -2.8021  1.5295
   7923SM   C5S10442   6.522   1.007  16.780  0.0048 -0.5371  0.0216
   7923SM   H5S10443   6.486   1.078  16.856 -3.9151  0.2457 -2.2561
   7923SM   C6S10444   6.564   1.084  16.651 -0.2849 -0.2232 -0.4002
   7923SM   H6S10445   6.652   1.149  16.670  0.4092 -1.4754  0.8769
   7923SM   H6T10446   6.477   1.148  16.625  0.9747  2.3843  1.4013
   7923SM   C7S10447   6.596   0.995  16.529 -1.2927 -0.0863  0.3249
   7923SM   H7S10448   6.508   0.928  16.522 -0.5372 -1.0295 -0.4917
   7923SM   H7T10449   6.685   0.932  16.552 -1.3105  0.4479  1.9573
   7923SM   C8S10450   6.630   1.087  16.405 -0.2191 -0.2703 -0.1700
   7923SM   H8S10451   6.724   1.139  16.433  0.8851 -2.7164  0.9393
   7923SM   H8T10452   6.547   1.160  16.396  0.6915  0.6371 -1.6350
   7923SM   C9S10453   6.636   1.013  16.272  0.7587 -0.0611 -0.1452
   7923SM   H9S10454   6.539   0.965  16.246  1.7193 -2.4661  0.5004
   7923SM   H9T10455   6.722   0.943  16.276 -0.0252 -1.0645 -0.3923
   7923SM  C10S10456   6.664   1.099  16.154  0.0883 -0.1896  0.1981
   7923SM  H10S10457   6.766   1.138  16.175  0.4095 -1.1338  0.4187
   7923SM  H10T10458   6.583   1.172  16.132 -0.6831 -1.6943 -2.4321
   7923SM  C11S10459   6.685   1.022  16.022  0.6884  0.1581  0.3947
   7923SM  H11S10460   6.581   0.991  16.000 -0.4423  3.6335  0.1040
   7923SM  H11T10461   6.761   0.944  16.043  1.3538  0.2521 -1.5154
   7923SM  C12S10462   6.730   1.106  15.894  0.1350 -0.3090 -0.3149
   7923SM  H12S10463   6.841   1.117  15.900  0.4773 -1.9948 -2.3705
   7923SM  H12T10464   6.684   1.207  15.895  1.8878  0.5354 -0.1229
   7923SM  C13S10465   6.693   1.037  15.762 -0.6683  0.3231 -0.5460
   7923SM  H13S10466   6.588   1.007  15.744 -0.6646  0.7829 -1.3804
   7923SM  H13T10467   6.738   0.936  15.775 -0.7706  0.4526  1.0257
   7923SM  C14S10468   6.745   1.094  15.634  0.0714 -0.3917  0.1062
   7923SM  H14S10469   6.727   1.023  15.551  2.8851  1.4583 -2.2827
   7923SM  H14T10470   6.855   1.100  15.652  0.3160 -1.4650 -0.9061
   7923SM  C15S10471   6.687   1.230  15.601 -0.7339  0.4145  0.8979
   7923SM  H15S10472   6.724   1.297  15.682  3.1208 -1.1764  0.6682
   7923SM  H15T10473   6.576   1.224  15.611 -0.9539  1.3865 -0.6568
   7923SM  C16S10474   6.732   1.274  15.466  0.1494  0.4311 -0.5436
   7923SM  H16S10475   6.712   1.201  15.385  0.6226 -0.1405 -0.1537
   7923SM  H16T10476   6.839   1.301  15.457  0.4738 -0.1519  1.1406
   7923SM  C17S10477   6.655   1.405  15.439 -0.1077 -0.7317 -0.1813
   7923SM  H17S10478   6.707   1.482  15.500 -2.8895  1.3767 -0.2356
   7923SM  H17T10479   6.550   1.391  15.471 -0.5371  1.3579 -0.5192
   7923SM  C18S10480   6.651   1.449  15.292 -0.2256  0.4023 -0.2814
   7923SM  H18S10481   6.751   1.426  15.251  0.7404  2.5599  0.6921
   7923SM  H18T10482   6.638   1.559  15.281  0.2025  0.4928  0.0897
   7923SM  H18U10483   6.595   1.377  15.229 -0.8453 -0.6100  1.3610
   7923SM   C1F10484   6.203   0.598  16.730  0.9299 -0.2902 -0.9717
   7923SM    OF10485   6.102   0.658  16.767  0.1492 -0.0651  0.3527
   7923SM   C2F10486   6.189   0.481  16.644  0.2265  0.8615 -0.2853
   7923SM   H2F10487   6.177   0.387  16.702  0.1501  0.3153 -1.1633
   7923SM   H2G10488   6.278   0.471  16.578  0.4826 -1.0589  0.2775
   7923SM   C3F10489   6.064   0.489  16.549  0.6315 -0.2585  0.3532
   7923SM   H3F10490   5.973   0.511  16.610  1.6747  2.5354  1.0437
   7923SM   H3G10491   6.062   0.385  16.511  0.3879  0.4703 -1.7508
   7923SM   C4F10492   6.068   0.607  16.450  1.1631 -0.1498 -0.2910
   7923SM   H4F10493   6.069   0.702  16.508  0.5950 -1.0478  1.2545
   7923SM   H4G10494   5.972   0.601  16.396  1.6226 -2.1438 -0.9563
   7923SM   C5F10495   6.169   0.608  16.334  0.3390  0.2310  0.8340
   7923SM   H5F10496   6.162   0.502  16.300 -0.0669 -0.1137  1.9260
   7923SM   H5G10497   6.267   0.625  16.384  0.6301 -0.5661  0.5553
   7923SM   C6F10498   6.135   0.698  16.213  0.5764 -0.4460 -0.6827
   7923SM   H6F10499   6.091   0.795  16.246  1.8730 -0.0402 -0.0504
   7923SM   H6G10500   6.056   0.669  16.141  0.0719  3.8662 -2.1812
   7923SM   C7F10501   6.259   0.721  16.127  0.5105  0.4934 -0.1874
   7923SM   H7F10502   6.299   0.618  16.112  1.7831  0.3556  3.4270
   7923SM   H7G10503   6.341   0.772  16.180 -0.8339  1.7827  0.7237
   7923SM   C8F10504   6.224   0.790  15.993  0.5509  0.2020 -1.0374
   7923SM   H8F10505   6.168   0.881  16.021  1.2247  0.5401 -0.7589
   7923SM   H8G10506   6.155   0.725  15.935  0.5596 -1.0848  0.3216
   7923SM   C9F10507   6.353   0.824  15.929 -0.1503 -0.9263  0.1741
   7923SM   H9F10508   6.432   0.747  15.930  0.6257 -0.2074 -1.9042
   7923SM   H9G10509   6.394   0.904  15.995  1.9162 -2.4578  0.8577
   7923SM  C10F10510   6.326   0.872  15.785 -0.5563 -0.6235  0.0188
   7923SM  H10F10511   6.426   0.913  15.758 -0.4986  0.0444  1.1685
   7923SM  H10G10512   6.243   0.945  15.778 -0.4926 -0.3831  1.4025
   7923SM  C11F10513   6.309   0.755  15.686 -0.1623  0.1787  0.2410
   7923SM  H11F10514   6.228   0.701  15.740  0.0037  0.4447  0.7598
   7923SM  H11G10515   6.405   0.700  15.676  0.1582  1.1487 -2.9742
   7923SM  C12F10516   6.258   0.789  15.544  0.2544 -0.0088 -0.2642
   7923SM  H12F10517   6.339   0.841  15.488  1.7550 -0.4335  1.3976
   7923SM  H12G10518   6.160   0.841  15.542  1.0172  1.4364 -1.8104
   7923SM  C13F10519   6.240   0.657  15.474  0.2567 -0.0211  0.3194
   7923SM  H13F10520   6.211   0.691  15.372 -2.1878  0.1451  0.9848
   7923SM  H13G10521   6.151   0.606  15.516 -1.0715  1.9918  0.1251
   7923SM  C14F10522   6.369   0.568  15.446  0.0999  0.0710  0.2635
   7923SM  H14F10523   6.391   0.517  15.542  2.6594 -0.7579 -0.6673
   7923SM  H14G10524   6.453   0.637  15.420 -0.9038  1.7578  1.3336
   7923SM  C15F10525   6.347   0.468  15.335  0.1997 -0.0625 -0.2104
   7923SM  H15F10526   6.321   0.521  15.241 -0.0337  0.4423  0.1368
   7923SM  H15G10527   6.260   0.408  15.368 -0.2359  0.4202 -0.4758
   7923SM  C16F10528   6.471   0.378  15.300  0.1842  0.9331  0.2056
   7923SM  H16F10529   6.559   0.446  15.300  0.7615  0.2107 -0.9922
   7923SM  H16G10530   6.460   0.326  15.203  1.4297  0.2303  0.4130
   7923SM  C17F10531   6.487   0.259  15.401 -0.0863  0.2103 -0.6015
   7923SM  H17F10532   6.413   0.177  15.405  2.2883 -2.0359  2.1525
   7923SM  H17G10533   6.481   0.311  15.499  2.5661 -0.8501  0.2158
   7923SM  C18F10534   6.618   0.185  15.397  0.4631 -0.2597  0.4256
   7923SM  H18F10535   6.702   0.257  15.404  0.1525  0.0427  1.1112
   7923SM  H18G10536   6.633   0.132  15.300 -1.0478  2.2892 -1.3365
   7923SM  C19F10537   6.634   0.100  15.519 -0.4055  0.5381  0.5770
   7923SM  H19F10538   6.576   0.005  15.517 -0.7427  0.7463 -1.2803
   7923SM  H19G10539   6.608   0.154  15.612  0.7584  0.5109  0.9398
   7923SM  C20F10540   6.782   0.064  15.556  0.5547 -0.1771  0.0050
   7923SM  H20F10541   6.799  -0.011  15.637  0.3391  0.0621  0.2720
   7923SM  H20G10542   6.841   0.155  15.580 -1.1558  1.0409 -0.1993
   7923SM  C21F10543   6.847  -0.003  15.434 -0.7753  0.7386 -0.2871
   7923SM  H21F10544   6.958  -0.001  15.445 -0.9115  1.1157  1.2898
   7923SM  H21G10545   6.826   0.051  15.339 -0.4790 -0.3768 -1.0033
   7923SM  C22F10546   6.804  -0.151  15.414  0.4497 -0.3133 -0.0341
   7923SM  H22F10547   6.696  -0.154  15.389  0.8515 -0.5897 -1.8466
   7923SM  H22G10548   6.817  -0.215  15.504  0.2193  0.6409  0.6926
   7923SM  C23F10549   6.891  -0.213  15.299  0.6450 -0.5496  0.0563
   7923SM  H23F10550   6.994  -0.225  15.339  0.4174  1.3084  1.3458
   7923SM  H23G10551   6.887  -0.151  15.206 -1.7240 -1.8455 -0.7855
   7923SM  H23H10552   6.847  -0.314  15.283  0.8307 -0.7900  1.0282
   8023SM     N10553   0.023   0.181  17.547 -0.0228  0.7940 -0.1396
   8023SM   C1510554   0.165   0.140  17.541  0.7864 -0.3793 -0.2358
   8023SM  H15A10555   0.172   0.034  17.522 -1.2462 -0.6263  0.1224
   8023SM  H15B10556   0.217   0.161  17.633  0.8922 -1.3962 -0.0530
   8023SM  H15C10557   0.223   0.188  17.464  1.5009 -2.2671 -0.9342
   8023SM   C1410558  -0.046   0.120  17.426 -0.2176 -0.6128 -0.2803
   8023SM  H14A10559  -0.146   0.162  17.418 -0.6985 -1.0982  2.2054
   8023SM  H14B10560  -0.044   0.012  17.427 -1.8883 -0.6734  0.9033
   8023SM  H14C10561   0.021   0.140  17.345  0.4097  1.0169  0.5851
   8023SM   C1310562  -0.043   0.124  17.671 -0.4427  0.0650 -0.1848
   8023SM  H13A10563  -0.148   0.146  17.669 -1.1672 -3.0812 -0.8495
   8023SM  H13B10564  -0.009   0.162  17.766 -0.4992  0.1068 -0.1810
   8023SM  H13C10565  -0.031   0.017  17.665  0.9498  0.0517  1.8163
   8023SM   C1210566   0.016   0.333  17.542  0.3207  0.1408 -0.2458
   8023SM  H12A10567   0.077   0.374  17.621 -1.3696 -0.6502  1.5705
   8023SM  H12B10568  -0.084   0.352  17.578 -0.1141 -1.9513 -0.2151
   8023SM   C1110569   0.060   0.395  17.412  0.5437  0.3305  0.4317
   8023SM  H11A10570   0.014   0.496  17.411  1.6942  0.8680  0.4084
   8023SM  H11B10571   0.021   0.351  17.318 -0.4273  0.3397  0.8242
   8023SM     P10572   0.264   0.504  17.282  0.4706  0.1809 -0.1193
   8023SM   O1310573   0.219   0.636  17.334 -0.0796 -0.3341  0.0188
   8023SM   O1410574   0.405   0.479  17.276  0.4574  0.1007  0.2154
   8023SM   O1110575   0.189   0.465  17.145 -0.0464  0.0794 -0.9894
   8023SM   O1210576   0.204   0.399  17.394 -0.4330  0.1035 -0.0335
   8023SM   C1S10577   0.148   0.571  17.052  0.1289  0.6265 -0.0823
   8023SM   H1S10578   0.231   0.641  17.028  0.7001  0.0366  0.1452
   8023SM   H1T10579   0.064   0.635  17.088 -0.7810 -0.2414 -0.5931
   8023SM    NF10580   0.064   0.616  16.827 -0.2482  0.1272 -0.2037
   8023SM   HNF10581  -0.032   0.618  16.801 -0.2755 -0.2755 -0.1441
   8023SM   C2S10582   0.104   0.512  16.921  0.0192  0.4216  1.1431
   8023SM   H2S10583   0.194   0.460  16.882 -0.2944 -1.2116  2.4419
   8023SM   C3S10584  -0.006   0.400  16.938 -0.1256  0.6381  1.0041
   8023SM   H3S10585  -0.094   0.448  16.985 -0.7510  1.5327 -0.9558
   8023SM    O310586   0.034   0.286  17.022  0.1607 -0.1367 -0.8398
   8023SM   HO310587   0.115   0.318  17.061  0.2361 -0.2455 -0.9088
   8023SM   C4S10588  -0.039   0.337  16.805  0.2966  0.7746 -0.0013
   8023SM   H4S10589   0.054   0.313  16.751  1.0634  4.2891 -0.4709
   8023SM   C5S10590  -0.155   0.329  16.735 -0.1394 -0.5201  0.2058
   8023SM   H5S10591  -0.246   0.349  16.793  0.3803 -0.0784  0.8838
   8023SM   C6S10592  -0.173   0.278  16.599 -0.3425  0.7321  0.0024
   8023SM   H6S10593  -0.217   0.363  16.543 -1.5460 -0.4909 -0.9937
   8023SM   H6T10594  -0.256   0.204  16.601 -1.5600  2.0147  2.8462
   8023SM   C7S10595  -0.057   0.223  16.520 -0.2342  0.0254 -0.1069
   8023SM   H7S10596  -0.027   0.132  16.577  0.3515  0.9721  1.1291
   8023SM   H7T10597   0.032   0.290  16.521 -1.9225  2.4215  1.9767
   8023SM   C8S10598  -0.097   0.173  16.381  0.1802 -0.2281  0.0578
   8023SM   H8S10599  -0.083   0.250  16.302  3.4532 -0.1622  0.5442
   8023SM   H8T10600  -0.204   0.145  16.375 -0.0810  0.6210  0.4957
   8023SM   C9S10601  -0.027   0.045  16.326  0.1718 -0.6687 -0.1767
   8023SM   H9S10602  -0.063   0.025  16.223  1.4635  1.9631 -1.2263
   8023SM   H9T10603  -0.054  -0.045  16.385  0.6973  0.2725  1.5603
   8023SM  C10S10604   0.125   0.071  16.320  0.1760  0.3369  0.5760
   8023SM  H10S10605   0.178  -0.022  16.291  2.0711  0.9348  1.9372
   8023SM  H10T10606   0.163   0.092  16.423  0.6548  1.3294  0.2085
   8023SM  C11S10607   0.164   0.186  16.230 -0.4134 -0.4403 -0.3083
   8023SM  H11S10608   0.272   0.207  16.241  0.0681 -2.6705 -0.2857
   8023SM  H11T10609   0.109   0.278  16.258  1.2848  0.2762  0.7868
   8023SM  C12S10610   0.157   0.153  16.076 -0.1129 -0.0481 -0.1331
   8023SM  H12S10611   0.053   0.140  16.041  0.5243  1.2311 -2.7000
   8023SM  H12T10612   0.202   0.051  16.064 -1.7766 -0.5709 -2.6160
   8023SM  C13S10613   0.229   0.260  15.987 -0.2579  1.1060 -0.5718
   8023SM  H13S10614   0.281   0.326  16.061 -1.7924  0.5276  1.0981
   8023SM  H13T10615   0.156   0.327  15.936 -1.4195  0.8990  0.7569
   8023SM  C14S10616   0.328   0.200  15.899 -0.4216 -0.1838  1.2491
   8023SM  H14S10617   0.268   0.124  15.844  0.3827 -1.2674  1.8377
   8023SM  H14T10618   0.409   0.148  15.952 -0.0447 -2.8961 -1.6860
   8023SM  C15S10619   0.380   0.297  15.792  0.3155  0.1950  0.1381
   8023SM  H15S10620   0.458   0.364  15.836 -0.6000 -0.0285  2.2021
   8023SM  H15T10621   0.298   0.366  15.764 -1.5213  0.7333  5.5928
   8023SM  C16S10622   0.419   0.214  15.663  0.2393  0.3780  0.2887
   8023SM  H16S10623   0.337   0.143  15.636  0.1896 -0.0486  1.4991
   8023SM  H16T10624   0.505   0.147  15.686  0.2731  0.2570 -0.1924
   8023SM  C17S10625   0.452   0.304  15.542 -0.1714  0.1005  0.3919
   8023SM  H17S10626   0.389   0.395  15.530  0.4218  0.5588  0.6803
   8023SM  H17T10627   0.446   0.240  15.452 -0.3822  0.2414  0.3074
   8023SM  C18S10628   0.599   0.361  15.541  0.3234  0.3805  0.1515
   8023SM  H18S10629   0.609   0.455  15.599  0.6839 -0.4127  1.4223
   8023SM  H18T10630   0.651   0.383  15.446  0.1308  3.5942  0.6791
   8023SM  H18U10631   0.650   0.287  15.607  1.8946  0.8950 -0.4394
   8023SM   C1F10632   0.149   0.704  16.794  0.2170 -0.3403 -0.3534
   8023SM    OF10633   0.269   0.684  16.801  0.1007  0.5645  0.3722
   8023SM   C2F10634   0.082   0.833  16.755  0.1041 -0.0261 -0.4792
   8023SM   H2F10635   0.001   0.859  16.825 -0.8214 -1.3176 -1.0195
   8023SM   H2G10636   0.030   0.817  16.658 -0.4784 -0.9715 -0.0219
   8023SM   C3F10637   0.181   0.948  16.760 -0.2637  0.4268 -0.1844
   8023SM   H3F10638   0.237   0.948  16.856 -0.6574  2.2131  0.0804
   8023SM   H3G10639   0.126   1.045  16.762  1.3061  1.3583 -0.3176
   8023SM   C4F10640   0.270   0.950  16.631 -0.2765  0.5706 -0.3780
   8023SM   H4F10641   0.206   0.999  16.554  0.4707  0.2561 -1.2213
   8023SM   H4G10642   0.303   0.847  16.604  0.2401  0.4025  0.8530
   8023SM   C5F10643   0.394   1.044  16.644  0.3138  0.3752  0.4608
   8023SM   H5F10644   0.450   0.994  16.725  0.0150 -1.4699 -0.4142
   8023SM   H5G10645   0.365   1.151  16.655 -0.1089  0.5751 -1.9051
   8023SM   C6F10646   0.484   1.040  16.523 -0.2347  0.3892  0.6033
   8023SM   H6F10647   0.497   0.937  16.483  1.4020 -0.1027  2.2599
   8023SM   H6G10648   0.587   1.073  16.546 -0.0642  0.5344 -0.3113
   8023SM   C7F10649   0.437   1.120  16.401 -0.4694 -0.0287  0.9201
   8023SM   H7F10650   0.453   1.228  16.424  0.9207 -0.0526  0.1534
   8023SM   H7G10651   0.328   1.114  16.377  0.1109  1.0208 -2.5412
   8023SM   C8F10652   0.508   1.087  16.270  0.2060 -0.5191  0.7469
   8023SM   H8F10653   0.485   0.984  16.234  1.5588 -0.4842 -0.2880
   8023SM   H8G10654   0.617   1.083  16.290  0.2916 -1.3188  0.1602
   8023SM   C9F10655   0.473   1.184  16.158  0.7078  0.5046  0.7720
   8023SM   H9F10656   0.520   1.283  16.180  1.0544  0.9748 -1.7901
   8023SM   H9G10657   0.364   1.194  16.141  0.8071  1.9488  0.8544
   8023SM  C10F10658   0.545   1.151  16.029 -0.2334 -0.2668 -0.0238
   8023SM  H10F10659   0.519   1.047  15.999 -0.8911  0.0921 -0.7386
   8023SM  H10G10660   0.652   1.167  16.052 -0.7075  0.4892  1.8624
   8023SM  C11F10661   0.515   1.246  15.913 -0.0013  0.1008 -0.9955
   8023SM  H11F10662   0.567   1.340  15.942 -0.5419 -0.4005  1.8279
   8023SM  H11G10663   0.406   1.265  15.902 -0.0750  0.4965  0.2458
   8023SM  C12F10664   0.556   1.196  15.773 -0.2424  0.1561 -0.6030
   8023SM  H12F10665   0.475   1.122  15.756  0.2548 -0.2795 -1.0975
   8023SM  H12G10666   0.651   1.139  15.782  0.1531  0.8068 -0.6089
   8023SM  C13F10667   0.563   1.302  15.661  0.1733  0.5950 -0.2327
   8023SM  H13F10668   0.610   1.394  15.701 -3.3241  2.2986  0.4304
   8023SM  H13G10669   0.459   1.339  15.642  0.3661  1.0531 -0.4065
   8023SM  C14F10670   0.628   1.250  15.535  0.3958 -0.0140  0.4952
   8023SM  H14F10671   0.580   1.158  15.495 -1.0630  1.2471 -0.8120
   8023SM  H14G10672   0.730   1.222  15.569 -0.0426 -0.0344  1.8575
   8023SM  C15F10673   0.629   1.359  15.425  0.1122  0.2247 -0.1083
   8023SM  H15F10674   0.684   1.436  15.482 -1.2940  1.5953 -0.5381
   8023SM  H15G10675   0.524   1.393  15.410 -0.7982 -2.5970 -0.7921
   8023SM  C16F10676   0.685   1.323  15.288 -0.3645 -0.0223 -0.1021
   8023SM  H16F10677   0.792   1.303  15.310 -0.8363 -1.3997  1.1165
   8023SM  H16G10678   0.679   1.404  15.212  1.2883 -0.2222 -0.4640
   8023SM  C17F10679   0.620   1.193  15.237  0.4011  0.4830  0.2958
   8023SM  H17F10680   0.510   1.208  15.226  0.3779 -0.7468 -2.0142
   8023SM  H17G10681   0.637   1.107  15.305 -1.9614  0.9394  1.5646
   8023SM  C18F10682   0.675   1.142  15.104 -0.6980  0.7054  0.0212
   8023SM  H18F10683   0.781   1.110  15.096 -0.8969  0.5040 -3.2967
   8023SM  H18G10684   0.665   1.216  15.022  2.1643  1.1230 -0.0454
   8023SM  C19F10685   0.600   1.006  15.063  0.3042 -0.0692  0.1478
   8023SM  H19F10686   0.490   1.021  15.069  0.2278  0.2895 -1.5817
   8023SM  H19G10687   0.636   0.921  15.125  0.8112 -1.4357 -1.9277
   8023SM  C20F10688   0.623   0.966  14.922  0.0245  0.0245  0.4395
   8023SM  H20F10689   0.726   0.946  14.885  0.5245 -0.7275  2.1816
   8023SM  H20G10690   0.577   1.042  14.855 -0.9757 -0.7012  0.2829
   8023SM  C21F10691   0.549   0.831  14.882 -0.2804 -0.3106 -0.6526
   8023SM  H21F10692   0.443   0.849  14.911  0.0821 -0.3214  0.7031
   8023SM  H21G10693   0.587   0.746  14.943 -1.7067 -0.0046  0.7431
   8023SM  C22F10694   0.554   0.791  14.737  0.1915 -0.0037  0.6175
   8023SM  H22F10695   0.587   0.881  14.681  2.2297 -0.0261  1.6921
   8023SM  H22G10696   0.453   0.764  14.698  0.7529 -1.0388 -0.1567
   8023SM  C23F10697   0.649   0.675  14.697  0.0476 -0.1356 -0.6865
   8023SM  H23F10698   0.612   0.589  14.756 -0.6487 -0.0825 -1.0339
   8023SM  H23G10699   0.754   0.707  14.710 -0.6005  2.3617 -0.9769
   8023SM  H23H10700   0.642   0.645  14.590 -2.4749 -0.3131 -0.5521
   8123SM     N10701   4.012   4.951  12.516 -0.2814  0.0935 -0.3217
   8123SM   C1510702   4.005   5.095  12.490  0.5128  0.5351 -0.1414
   8123SM  H15A10703   3.994   5.104  12.383  2.6882 -2.8733 -0.8079
   8123SM  H15B10704   4.096   5.145  12.517  0.4911 -0.1678  1.3141
   8123SM  H15C10705   3.921   5.141  12.540  1.2817  2.4580 -0.5071
   8123SM   C1410706   3.879   4.885  12.494 -0.0549 -0.1930  0.3356
   8123SM  H14A10707   3.864   4.886  12.387 -1.2471  1.2658  0.4738
   8123SM  H14B10708   3.792   4.936  12.533  0.1026 -1.0001  1.7966
   8123SM  H14C10709   3.890   4.782  12.521 -0.8639 -0.6823 -1.0851
   8123SM   C1310710   4.114   4.896  12.415  0.1285  0.1988 -0.5229
   8123SM  H13A10711   4.088   4.918  12.312 -2.3507 -0.0949 -0.0253
   8123SM  H13B10712   4.119   4.791  12.439  1.5300  0.2630 -0.4487
   8123SM  H13C10713   4.207   4.939  12.446  0.6886 -0.6097 -1.0448
   8123SM   C1210714   4.067   4.925  12.655  1.2618  0.2280 -0.0273
   8123SM  H12A10715   4.011   4.986  12.724  2.1601  1.4076 -0.3028
   8123SM  H12B10716   4.167   4.966  12.664  2.1786 -1.8222 -0.1732
   8123SM   C1110717   4.060   4.780  12.705 -0.0668  0.2719  0.4606
   8123SM  H11A10718   3.955   4.747  12.690  0.0519  0.8624 -2.2230
   8123SM  H11B10719   4.070   4.798  12.814  0.0051 -0.1620  0.5261
   8123SM     P10720   4.116   4.548  12.612  0.2436 -0.3153 -0.2862
   8123SM   O1310721   3.997   4.555  12.525  0.1661 -0.4130 -0.3749
   8123SM   O1410722   4.229   4.478  12.550  0.2454 -0.6916 -0.0775
   8123SM   O1110723   4.075   4.462  12.743 -0.2934 -0.4697  0.4073
   8123SM   O1210724   4.154   4.697  12.651 -0.3571  0.2058  0.3970
   8123SM   C1S10725   4.113   4.507  12.877  0.3380  0.6432 -0.1628
   8123SM   H1S10726   4.041   4.587  12.904 -0.2264  0.4951 -1.1591
   8123SM   H1T10727   4.216   4.546  12.891  0.6079 -0.0567 -0.1527
   8123SM    NF10728   4.084   4.439  13.112 -0.9815  0.4440  0.2388
   8123SM   HNF10729   4.173   4.431  13.156 -1.6770 -2.1300  1.3911
   8123SM   C2S10730   4.090   4.391  12.980 -0.0192 -0.0179 -0.0967
   8123SM   H2S10731   3.991   4.345  12.956  0.9997 -2.1481 -0.4910
   8123SM   C3S10732   4.198   4.285  12.948 -0.4264  0.0663  0.0639
   8123SM   H3S10733   4.295   4.338  12.955 -1.1333  1.3261  0.7953
   8123SM    O310734   4.175   4.237  12.817  0.5717  0.3683 -0.5452
   8123SM   HO310735   4.121   4.310  12.787  0.9263  0.3030 -1.4039
   8123SM   C4S10736   4.204   4.164  13.044 -0.3754  0.3703 -0.0052
   8123SM   H4S10737   4.123   4.091  13.030 -0.5977  0.3033  1.5047
   8123SM   C5S10738   4.296   4.142  13.138  0.0650  0.3056 -0.0790
   8123SM   H5S10739   4.383   4.207  13.153 -0.2805  0.7603 -0.0415
   8123SM   C6S10740   4.296   4.022  13.227  0.3399  0.7079 -0.7241
   8123SM   H6S10741   4.378   3.954  13.195 -0.4583 -0.6693  0.0565
   8123SM   H6T10742   4.203   3.963  13.219  1.0084 -0.6984  1.2114
   8123SM   C7S10743   4.323   4.063  13.373  0.2102 -0.2396  0.6667
   8123SM   H7S10744   4.415   4.124  13.387  1.1166 -1.6830  1.1847
   8123SM   H7T10745   4.354   3.971  13.426  1.2301  0.2157  0.8914
   8123SM   C8S10746   4.205   4.138  13.447  0.3302 -0.0120  0.7568
   8123SM   H8S10747   4.108   4.104  13.405  0.6187 -0.4688  0.4488
   8123SM   H8T10748   4.211   4.247  13.427 -2.2880  0.4353  2.0058
   8123SM   C9S10749   4.203   4.106  13.601 -1.6505 -0.0520 -0.2473
   8123SM   H9S10750   4.146   4.012  13.620  1.2849 -2.0371 -0.4715
   8123SM   H9T10751   4.147   4.189  13.649  0.5010  1.8154 -0.8093
   8123SM  C10S10752   4.344   4.106  13.670  0.5619 -0.2118 -0.8517
   8123SM  H10S10753   4.420   4.167  13.618 -1.2071 -0.2785 -3.6934
   8123SM  H10T10754   4.394   4.007  13.657 -0.3362 -0.6861 -0.8224
   8123SM  C11S10755   4.346   4.145  13.821  0.8947  0.7377 -0.1310
   8123SM  H11S10756   4.279   4.233  13.826 -0.6910 -0.3028 -2.0726
   8123SM  H11T10757   4.445   4.172  13.864  2.2069 -3.5163 -0.0213
   8123SM  C12S10758   4.278   4.035  13.911 -0.5352 -0.5386  0.9385
   8123SM  H12S10759   4.343   3.946  13.896  1.1886  1.0217 -1.7305
   8123SM  H12T10760   4.176   4.023  13.869 -0.7151  1.9896  0.4777
   8123SM  C13S10761   4.284   4.052  14.062 -0.4945 -0.3270 -0.4920
   8123SM  H13S10762   4.387   4.077  14.097 -0.3889 -0.4950 -0.6794
   8123SM  H13T10763   4.265   3.955  14.112  1.7625 -0.8937 -0.6029
   8123SM  C14S10764   4.180   4.147  14.121  0.4131 -0.1414  1.5101
   8123SM  H14S10765   4.080   4.101  14.109 -0.1418  0.9702  1.7063
   8123SM  H14T10766   4.163   4.243  14.068 -1.2664 -1.5137 -0.6100
   8123SM  C15S10767   4.201   4.176  14.268 -0.2020  0.2242 -0.0344
   8123SM  H15S10768   4.285   4.248  14.275 -1.2584  1.4799  0.1211
   8123SM  H15T10769   4.229   4.079  14.314  3.3127  0.4491 -1.3946
   8123SM  C16S10770   4.086   4.229  14.346  0.1304  0.2439  0.0330
   8123SM  H16S10771   3.998   4.162  14.332  0.5081 -0.1807 -0.3570
   8123SM  H16T10772   4.063   4.330  14.306  3.7736  1.0567 -0.3471
   8123SM  C17S10773   4.116   4.236  14.494 -0.4732 -0.1313 -0.2130
   8123SM  H17S10774   4.176   4.327  14.515 -2.7681  1.8361 -1.6329
   8123SM  H17T10775   4.171   4.147  14.530 -0.4859 -0.6903 -1.4879
   8123SM  C18S10776   3.986   4.247  14.573 -0.2484  0.0469  0.1882
   8123SM  H18S10777   3.916   4.170  14.533 -0.1112 -0.8972  1.6977
   8123SM  H18T10778   3.933   4.343  14.561  2.1008  1.4385  0.2150
   8123SM  H18U10779   4.007   4.245  14.682 -0.7616  3.4056  0.4288
   8123SM   C1F10780   3.972   4.491  13.158  0.0721  0.2867 -0.4768
   8123SM    OF10781   3.870   4.493  13.091 -0.1869  0.0335  0.3507
   8123SM   C2F10782   3.988   4.551  13.299 -0.6075 -0.0191  0.4233
   8123SM   H2F10783   4.089   4.595  13.304 -0.4691 -0.4929  3.4280
   8123SM   H2G10784   3.992   4.471  13.376 -0.9919  0.2583  0.7350
   8123SM   C3F10785   3.888   4.655  13.339 -0.9494  0.1306 -0.6292
   8123SM   H3F10786   3.795   4.605  13.374  1.3613 -2.8183  1.9528
   8123SM   H3G10787   3.866   4.723  13.254  1.3373 -0.2544 -1.5869
   8123SM   C4F10788   3.944   4.740  13.461 -0.0865  0.0282 -0.3674
   8123SM   H4F10789   4.034   4.793  13.425  0.4716 -1.7316 -1.7171
   8123SM   H4G10790   3.979   4.666  13.536  1.3748 -0.3273 -1.3457
   8123SM   C5F10791   3.839   4.833  13.518 -0.1740  0.5512 -0.8720
   8123SM   H5F10792   3.747   4.783  13.555  0.5634  0.0177  0.3034
   8123SM   H5G10793   3.805   4.903  13.439 -1.5906 -0.8548 -1.5718
   8123SM   C6F10794   3.892   4.915  13.637  0.2406 -0.6530  0.8350
   8123SM   H6F10795   3.980   4.975  13.608 -0.2853 -1.1396 -2.1145
   8123SM   H6G10796   3.909   4.841  13.718 -0.2913  0.4804  2.0208
   8123SM   C7F10797   3.779   4.998  13.702 -0.1827 -0.6028 -0.1223
   8123SM   H7F10798   3.690   4.937  13.729  0.5712 -2.1994 -1.1028
   8123SM   H7G10799   3.744   5.069  13.623 -5.1191 -1.2100  1.1860
   8123SM   C8F10800   3.832   5.067  13.832  0.0144  0.2558  0.2997
   8123SM   H8F10801   3.875   5.164  13.798  1.0307 -0.3194 -0.1163
   8123SM   H8G10802   3.919   5.007  13.868 -1.0503 -1.7045 -0.2529
   8123SM   C9F10803   3.731   5.086  13.940  1.2250  0.0183  0.1236
   8123SM   H9F10804   3.684   4.988  13.965 -1.1915  0.9230 -0.5258
   8123SM   H9G10805   3.647   5.146  13.898 -0.8184 -1.7363  1.4513
   8123SM  C10F10806   3.779   5.155  14.068  0.1567 -0.4566  0.8593
   8123SM  H10F10807   3.688   5.193  14.118  1.4631  2.2306  1.3639
   8123SM  H10G10808   3.824   5.253  14.041 -2.6401  0.6624 -0.1235
   8123SM  C11F10809   3.873   5.071  14.150  0.8455  0.4011  0.5426
   8123SM  H11F10810   3.878   4.974  14.098 -3.9887  1.3490 -2.2362
   8123SM  H11G10811   3.822   5.048  14.246 -2.1608  1.4631 -0.6851
   8123SM  C12F10812   4.011   5.143  14.176  0.3305  0.9712 -0.8803
   8123SM  H12F10813   4.000   5.229  14.246 -1.2042 -0.3924  0.6288
   8123SM  H12G10814   4.049   5.184  14.080  1.2206  1.3605 -0.3723
   8123SM  C13F10815   4.107   5.034  14.225 -0.5599 -0.3296  0.2446
   8123SM  H13F10816   4.094   4.938  14.171 -1.4824  1.2912 -2.6541
   8123SM  H13G10817   4.068   5.020  14.328 -2.3466 -0.8573 -0.4735
   8123SM  C14F10818   4.254   5.075  14.236 -0.2048  0.3387 -0.2224
   8123SM  H14F10819   4.269   5.182  14.262  2.0430 -0.0161  0.1068
   8123SM  H14G10820   4.303   5.072  14.136 -1.3767  0.8920 -0.8385
   8123SM  C15F10821   4.335   4.995  14.343 -0.3418 -0.4903 -0.0600
   8123SM  H15F10822   4.321   4.889  14.314 -2.9027  0.3068 -2.1078
   8123SM  H15G10823   4.291   5.007  14.444 -0.9840 -1.1469 -0.2586
   8123SM  C16F10824   4.480   5.042  14.350 -0.2124 -0.2137 -0.0506
   8123SM  H16F10825   4.501   5.114  14.267 -0.4852 -0.1891 -0.0978
   8123SM  H16G10826   4.534   4.947  14.327  1.3715  0.9170 -1.2955
   8123SM  C17F10827   4.537   5.081  14.489  0.2249  1.4206  0.1429
   8123SM  H17F10828   4.523   4.994  14.556 -1.3187  1.6504  0.1661
   8123SM  H17G10829   4.479   5.167  14.529 -1.4528  0.3946  0.0284
   8123SM  C18F10830   4.681   5.129  14.471  0.6437  0.8210 -0.2394
   8123SM  H18F10831   4.682   5.213  14.398  3.5949  2.3543  1.3548
   8123SM  H18G10832   4.742   5.041  14.445  0.0068  0.2640  0.1329
   8123SM  C19F10833   4.730   5.194  14.604 -0.2453 -0.0603  0.8753
   8123SM  H19F10834   4.840   5.181  14.596 -0.3490  0.1081 -1.2873
   8123SM  H19G10835   4.712   5.132  14.695  0.2138 -0.5000  0.6698
   8123SM  C20F10836   4.679   5.336  14.631  0.2097 -0.7001  0.0430
   8123SM  H20F10837   4.733   5.364  14.724 -0.7678 -1.1225  0.7508
   8123SM  H20G10838   4.569   5.330  14.645  0.2566 -0.5787  0.4820
   8123SM  C21F10839   4.720   5.429  14.520  0.3555 -0.2632 -0.3109
   8123SM  H21F10840   4.682   5.392  14.423 -1.0834 -1.1347  0.5407
   8123SM  H21G10841   4.830   5.443  14.519  0.3344 -0.1085 -0.5115
   8123SM  C22F10842   4.670   5.577  14.535  0.0517  0.0249  0.3872
   8123SM  H22F10843   4.711   5.638  14.452 -3.7541  2.1803 -0.1030
   8123SM  H22G10844   4.696   5.620  14.634 -0.7585  2.1128 -0.2500
   8123SM  C23F10845   4.515   5.572  14.526 -0.5805 -0.9338 -0.1940
   8123SM  H23F10846   4.473   5.545  14.626 -1.6219  2.0006  0.2498
   8123SM  H23G10847   4.489   5.494  14.451  2.0573 -2.2678  0.1286
   8123SM  H23H10848   4.466   5.668  14.503  0.5852 -0.8105 -2.4236
   8223SM     N10849   3.385   5.103  12.405  0.5033 -0.1229  0.2239
   8223SM   C1510850   3.403   5.049  12.263 -0.5014 -0.7767  0.4737
   8223SM  H15A10851   3.476   4.970  12.266  1.2639  0.6598 -1.4141
   8223SM  H15B10852   3.438   5.127  12.196  0.4542 -1.5350  0.0654
   8223SM  H15C10853   3.308   5.014  12.225 -1.3699  0.2460  1.6063
   8223SM   C1410854   3.517   5.156  12.454  0.4934 -0.6555  0.4310
   8223SM  H14A10855   3.589   5.076  12.449 -0.4885 -1.5013 -0.7683
   8223SM  H14B10856   3.518   5.184  12.559 -2.3446  0.0167  0.3812
   8223SM  H14C10857   3.555   5.244  12.405 -1.2093  0.0416  0.2707
   8223SM   C1310858   3.284   5.209  12.417 -0.1058  0.0164 -0.1783
   8223SM  H13A10859   3.184   5.174  12.396 -0.3813  1.8211 -2.1875
   8223SM  H13B10860   3.289   5.294  12.350 -1.4170  0.3312  0.1067
   8223SM  H13C10861   3.289   5.254  12.515  0.4615 -0.1200 -0.1402
   8223SM   C1210862   3.345   4.986  12.492  0.4354  0.3906  0.3586
   8223SM  H12A10863   3.416   4.906  12.477 -0.7173 -0.3101 -1.7471
   8223SM  H12B10864   3.251   4.944  12.458  0.1047  2.8375 -2.0872
   8223SM   C1110865   3.319   5.005  12.646 -0.8799  0.3691  0.3620
   8223SM  H11A10866   3.274   4.913  12.690  0.9216 -0.2833  0.9087
   8223SM  H11B10867   3.242   5.086  12.645 -1.0974  0.1820 -1.9140
   8223SM     P10868   3.532   4.926  12.752  0.2637 -0.2643  0.1086
   8223SM   O1310869   3.462   4.829  12.842 -0.0937  0.0139  0.4823
   8223SM   O1410870   3.598   4.876  12.631 -0.4994 -0.9950  0.3586
   8223SM   O1110871   3.638   5.007  12.833 -0.2683  0.3858  0.4246
   8223SM   O1210872   3.437   5.046  12.711  0.1446  0.2768 -0.6445
   8223SM   C1S10873   3.605   5.079  12.950  0.0223 -0.1017 -0.7349
   8223SM   H1S10874   3.510   5.044  12.998  2.5779 -2.2085  3.3567
   8223SM   H1T10875   3.594   5.187  12.925 -0.8431 -0.3841 -1.6595
   8223SM    NF10876   3.679   5.116  13.189 -0.6302 -0.4214 -0.1195
   8223SM   HNF10877   3.725   5.200  13.216 -1.4108 -0.8622  2.9541
   8223SM   C2S10878   3.719   5.065  13.060 -0.5511  0.2268  0.4497
   8223SM   H2S10879   3.728   4.957  13.085 -0.3808  0.2041  0.2904
   8223SM   C3S10880   3.862   5.105  13.003  0.4841  0.3557  0.1327
   8223SM   H3S10881   3.856   5.215  13.003 -2.7915  0.2808  1.2000
   8223SM    O310882   3.889   5.065  12.869  0.3216  0.5496 -0.1383
   8223SM   HO310883   3.801   5.044  12.837  1.2466 -0.7651 -2.0043
   8223SM   C4S10884   3.975   5.052  13.087  0.2815  0.6385  0.3355
   8223SM   H4S10885   3.986   5.114  13.177 -0.1678  2.3644 -0.7545
   8223SM   C5S10886   4.040   4.934  13.081  0.0283  0.6160 -0.1274
   8223SM   H5S10887   4.017   4.871  12.994 -1.2599  0.8634  0.0169
   8223SM   C6S10888   4.163   4.891  13.171 -0.3131  0.1728 -0.1002
   8223SM   H6S10889   4.244   4.859  13.102 -2.6043  2.9414 -4.6014
   8223SM   H6T10890   4.132   4.807  13.237  3.7332 -0.5740  1.1034
   8223SM   C7S10891   4.206   5.005  13.268 -0.5096 -0.1719 -0.0284
   8223SM   H7S10892   4.120   5.049  13.323 -0.8229  1.0239 -1.4160
   8223SM   H7T10893   4.249   5.079  13.197 -0.8268  0.7254  0.6881
   8223SM   C8S10894   4.317   4.952  13.356  0.3696  0.2254  0.0666
   8223SM   H8S10895   4.403   4.906  13.303  0.7060  3.1035 -2.1299
   8223SM   H8T10896   4.268   4.870  13.413 -1.3077 -0.4098 -2.1356
   8223SM   C9S10897   4.378   5.070  13.437 -0.4143 -0.5778  0.1255
   8223SM   H9S10898   4.294   5.130  13.475  0.9463  1.7713 -0.3830
   8223SM   H9T10899   4.423   5.137  13.361 -4.3582  0.3492 -1.6475
   8223SM  C10S10900   4.477   5.023  13.542 -0.6744 -0.6327  0.0106
   8223SM  H10S10901   4.551   4.963  13.485  0.6080 -1.2818  2.2530
   8223SM  H10T10902   4.419   4.954  13.607  0.7542 -0.0450  1.9973
   8223SM  C11S10903   4.539   5.135  13.620 -0.0068  0.7337  0.0568
   8223SM  H11S10904   4.461   5.204  13.658 -1.4348 -0.6859 -0.2088
   8223SM  H11T10905   4.596   5.195  13.546  1.4923 -2.8960 -1.9863
   8223SM  C12S10906   4.630   5.087  13.728 -0.0469  0.5229 -0.5002
   8223SM  H12S10907   4.711   5.161  13.748  0.8732 -0.8464  1.1263
   8223SM  H12T10908   4.687   4.998  13.693  0.9403  1.6573 -1.8869
   8223SM  C13S10909   4.563   5.079  13.865 -0.4064  0.0149 -0.6531
   8223SM  H13S10910   4.473   5.141  13.846  0.3316  1.6637  0.8843
   8223SM  H13T10911   4.624   5.128  13.944 -0.5652 -0.2075 -0.3919
   8223SM  C14S10912   4.535   4.934  13.899 -0.9310  0.1233  0.2311
   8223SM  H14S10913   4.531   4.878  13.803 -1.3767  0.1320  0.2393
   8223SM  H14T10914   4.429   4.926  13.933 -1.5248 -3.8642 -1.9402
   8223SM  C15S10915   4.639   4.881  13.996 -0.1396  0.9970 -0.4999
   8223SM  H15S10916   4.619   4.937  14.090  0.3246  1.0713 -0.4428
   8223SM  H15T10917   4.743   4.904  13.963  2.0118 -1.7307  3.6220
   8223SM  C16S10918   4.625   4.730  14.023 -0.4250  0.2534 -0.5467
   8223SM  H16S10919   4.523   4.714  14.065 -0.7151  1.5923 -0.6887
   8223SM  H16T10920   4.694   4.701  14.105 -0.2618 -1.0182 -1.1016
   8223SM  C17S10921   4.643   4.641  13.902 -0.0818  0.1308 -0.5371
   8223SM  H17S10922   4.749   4.644  13.867  1.1739 -0.2603  2.8748
   8223SM  H17T10923   4.577   4.678  13.821 -0.4385  1.3192  0.2722
   8223SM  C18S10924   4.610   4.492  13.926  0.8515  0.2223 -0.0880
   8223SM  H18S10925   4.502   4.475  13.946  0.7079  1.4410  0.2542
   8223SM  H18T10926   4.669   4.457  14.013  0.1412  2.7857  1.5574
   8223SM  H18U10927   4.627   4.435  13.833 -0.5101 -1.2006  0.4976
   8223SM   C1F10928   3.587   5.062  13.276  0.0361  0.0284 -0.0142
   8223SM    OF10929   3.560   4.945  13.268  0.5009 -0.1490 -0.4271
   8223SM   C2F10930   3.513   5.146  13.372  0.2192 -0.0499 -0.2050
   8223SM   H2F10931   3.464   5.228  13.315  2.2192  1.8464  0.6665
   8223SM   H2G10932   3.582   5.188  13.448  0.3744 -3.4600  1.7826
   8223SM   C3F10933   3.405   5.061  13.456  0.5950 -0.1822 -0.3753
   8223SM   H3F10934   3.341   5.010  13.381  0.4296 -0.9955  0.3124
   8223SM   H3G10935   3.340   5.134  13.510  0.1362 -1.0418  0.2547
   8223SM   C4F10936   3.466   4.977  13.570  0.1923  0.1637 -0.2175
   8223SM   H4F10937   3.511   5.043  13.647 -0.9572  0.3394  0.3260
   8223SM   H4G10938   3.541   4.903  13.535  2.1454  1.5558  0.8259
   8223SM   C5F10939   3.351   4.898  13.645  0.2754 -0.6756  0.2952
   8223SM   H5F10940   3.393   4.809  13.696  0.2103  0.0670  1.6943
   8223SM   H5G10941   3.291   4.856  13.562  0.1462 -0.8039  0.4553
   8223SM   C6F10942   3.266   4.977  13.752  0.1658 -0.2278  0.3483
   8223SM   H6F10943   3.193   4.905  13.795 -3.3062  2.6605 -0.1963
   8223SM   H6G10944   3.200   5.052  13.705 -1.7156 -2.2447 -0.3739
   8223SM   C7F10945   3.332   5.034  13.878 -0.4366 -0.3073 -0.0093
   8223SM   H7F10946   3.402   5.118  13.856 -0.0252  0.1200  2.6738
   8223SM   H7G10947   3.393   4.951  13.919 -0.1059  0.8718  1.9874
   8223SM   C8F10948   3.247   5.086  13.985  0.9650  0.0113  0.0150
   8223SM   H8F10949   3.180   5.161  13.937 -0.6281 -0.6469  1.1427
   8223SM   H8G10950   3.310   5.136  14.062  1.9516 -0.7389 -0.2912
   8223SM   C9F10951   3.152   4.982  14.045  0.2540 -0.3657 -0.0722
   8223SM   H9F10952   3.217   4.903  14.088  0.1791 -0.2179  0.3177
   8223SM   H9G10953   3.090   4.940  13.963  0.3779 -1.2977  0.3033
   8223SM  C10F10954   3.077   5.038  14.168 -0.0879 -0.5184 -0.4284
   8223SM  H10F10955   2.997   4.966  14.194 -0.2556 -0.1076  0.2122
   8223SM  H10G10956   3.032   5.136  14.142 -0.4915 -0.5235  0.2379
   8223SM  C11F10957   3.161   5.060  14.295 -0.4240 -0.5045 -0.0734
   8223SM  H11F10958   3.253   5.120  14.277  0.2877 -0.6908  2.4780
   8223SM  H11G10959   3.212   4.969  14.335  0.3277  1.6110  4.4426
   8223SM  C12F10960   3.090   5.141  14.411 -0.7794 -0.6336 -0.1422
   8223SM  H12F10961   3.049   5.238  14.376  1.6609  1.0171  1.2497
   8223SM  H12G10962   3.173   5.166  14.481 -0.1407 -2.2910 -0.2655
   8223SM  C13F10963   2.993   5.066  14.499  0.0740 -0.3723  0.4887
   8223SM  H13F10964   3.054   4.978  14.530 -0.6737 -1.3973 -0.8183
   8223SM  H13G10965   2.913   5.029  14.431  1.3491 -0.6679 -0.9016
   8223SM  C14F10966   2.947   5.135  14.623  0.1378 -0.1256  0.2749
   8223SM  H14F10967   2.888   5.225  14.597  0.6094  0.3785  0.9117
   8223SM  H14G10968   3.022   5.174  14.695 -1.0669  1.4050  0.7384
   8223SM  C15F10969   2.858   5.035  14.700 -0.1824 -0.3282 -0.3855
   8223SM  H15F10970   2.931   4.974  14.758 -2.5533  0.2256  3.4802
   8223SM  H15G10971   2.802   4.966  14.633  0.1610 -1.1119  0.1187
   8223SM  C16F10972   2.762   5.099  14.803  0.5653 -0.1283 -0.0872
   8223SM  H16F10973   2.697   5.172  14.750 -0.7208 -1.3953 -0.3291
   8223SM  H16G10974   2.816   5.159  14.880 -2.3769  1.4216  0.9445
   8223SM  C17F10975   2.678   5.011  14.895  0.6495  0.2754 -0.1944
   8223SM  H17F10976   2.622   4.936  14.836  0.1095  0.9689 -0.5716
   8223SM  H17G10977   2.599   5.066  14.950  1.2464 -1.1934  2.2581
   8223SM  C18F10978   2.765   4.937  14.999 -0.0637 -0.4749 -0.0566
   8223SM  H18F10979   2.799   5.000  15.084  2.6250 -0.1258 -1.2732
   8223SM  H18G10980   2.855   4.905  14.941  1.1496 -0.7411  1.8930
   8223SM  C19F10981   2.698   4.809  15.050  0.2189 -0.2037  0.4013
   8223SM  H19F10982   2.777   4.758  15.108 -0.0989  1.0333  1.9810
   8223SM  H19G10983   2.671   4.753  14.958  1.4097  0.8794 -0.6462
   8223SM  C20F10984   2.570   4.829  15.128  0.1640  0.3834 -0.5337
   8223SM  H20F10985   2.524   4.729  15.146  0.3280  0.6961  1.9516
   8223SM  H20G10986   2.502   4.900  15.076  0.2656  1.4978  0.7970
   8223SM  C21F10987   2.585   4.886  15.271 -0.6233  0.9183  0.3974
   8223SM  H21F10988   2.651   4.976  15.267 -0.4840  0.8067  0.1548
   8223SM  H21G10989   2.633   4.815  15.342 -3.1357  0.2553  1.5461
   8223SM  C22F10990   2.452   4.915  15.345 -0.3419 -0.3020 -0.5323
   8223SM  H22F10991   2.390   4.981  15.281 -0.8631 -0.0180  0.2397
   8223SM  H22G10992   2.467   4.967  15.442  2.0408 -1.0829 -0.4176
   8223SM  C23F10993   2.371   4.790  15.377 -0.0178  0.0426  0.3693
   8223SM  H23F10994   2.416   4.725  15.455 -1.5896 -1.4372  0.1138
   8223SM  H23G10995   2.360   4.731  15.283 -1.8004  1.2886 -0.2484
   8223SM  H23H10996   2.273   4.809  15.425 -0.7420 -3.0269  0.3595
   8323SM     N10997   4.593   4.503  12.609  0.0103  0.0770  0.2078
   8323SM   C1510998   4.534   4.577  12.495 -0.4420 -0.7128  0.7568
   8323SM  H15A10999   4.592   4.577  12.404 -1.9840  2.7372 -0.4293
   8323SM  H15B11000   4.531   4.680  12.529 -0.1003 -0.6388  0.5658
   8323SM  H15C11001   4.432   4.548  12.475 -0.9222  0.1784  1.7817
   8323SM   C1411002   4.619   4.358  12.569 -0.4970 -0.1084  0.5086
   8323SM  H14A11003   4.683   4.359  12.482 -0.0879  2.5228  0.7636
   8323SM  H14B11004   4.528   4.306  12.541  0.0722 -2.1216  2.1324
   8323SM  H14C11005   4.675   4.303  12.643  1.9724 -1.1394 -1.9428
   8323SM   C1311006   4.721   4.563  12.645 -0.2358 -0.2912 -0.1148
   8323SM  H13A11007   4.793   4.579  12.566  1.4546  0.5567  1.5174
   8323SM  H13B11008   4.770   4.496  12.714  1.4963 -0.6666 -1.6029
   8323SM  H13C11009   4.708   4.662  12.683  0.7090  0.4641 -1.6446
   8323SM   C1211010   4.486   4.502  12.724 -0.5904  0.1588  0.2918
   8323SM  H12A11011   4.403   4.436  12.705 -0.7688  0.5339 -0.2459
   8323SM  H12B11012   4.438   4.599  12.731  0.9753  1.2346 -2.2794
   8323SM   C1111013   4.546   4.467  12.859  0.2245  0.4327 -0.1188
   8323SM  H11A11014   4.602   4.371  12.857 -1.7729 -0.7945  0.4554
   8323SM  H11B11015   4.472   4.447  12.938  1.9171 -0.4320  1.3096
   8323SM     P11016   4.561   4.713  12.942  0.0301  0.1299  0.0095
   8323SM   O1311017   4.671   4.812  12.923 -0.2915 -0.5241 -0.4099
   8323SM   O1411018   4.427   4.749  12.886  0.2621  0.4122 -0.6142
   8323SM   O1111019   4.539   4.709  13.098 -0.0185  0.2389 -0.2110
   8323SM   O1211020   4.625   4.571  12.906 -0.0092 -0.2328 -0.1527
   8323SM   C1S11021   4.621   4.617  13.180  0.6828  0.0045 -0.2081
   8323SM   H1S11022   4.725   4.653  13.193  0.9752 -0.2958 -1.5770
   8323SM   H1T11023   4.630   4.516  13.135  2.1501 -0.1136  0.3009
   8323SM    NF11024   4.677   4.573  13.422 -0.6870 -0.6561 -0.6306
   8323SM   HNF11025   4.694   4.481  13.455 -2.7764 -0.1535  2.2023
   8323SM   C2S11026   4.564   4.598  13.329 -0.1515 -0.6619  0.0547
   8323SM   H2S11027   4.511   4.690  13.362 -1.6786 -1.5799  0.2500
   8323SM   C3S11028   4.466   4.488  13.326  0.2109 -0.0249  0.4466
   8323SM   H3S11029   4.520   4.395  13.298 -0.4076 -0.3360  0.2713
   8323SM    O311030   4.365   4.505  13.223  0.5101 -0.1750  1.0466
   8323SM   HO311031   4.391   4.589  13.185  0.0927 -0.6375 -0.3088
   8323SM   C4S11032   4.404   4.462  13.457 -0.6911  1.1134  0.1163
   8323SM   H4S11033   4.445   4.371  13.502 -1.5910 -0.1666 -1.5199
   8323SM   C5S11034   4.308   4.535  13.513 -0.1597  0.0165 -0.6814
   8323SM   H5S11035   4.279   4.633  13.473  0.3175  0.2637 -0.4310
   8323SM   C6S11036   4.251   4.495  13.644 -0.0888 -0.1703  0.9024
   8323SM   H6S11037   4.326   4.428  13.691 -0.4708 -0.2475  1.4229
   8323SM   H6T11038   4.153   4.445  13.633 -0.2967  0.4157 -0.0053
   8323SM   C7S11039   4.219   4.613  13.738 -0.1686 -0.0167  0.2323
   8323SM   H7S11040   4.158   4.675  13.670  0.2857 -0.2666 -0.4082
   8323SM   H7T11041   4.312   4.664  13.769 -0.0658 -1.7324  3.2542
   8323SM   C8S11042   4.136   4.587  13.868 -0.2775 -0.5254 -0.6193
   8323SM   H8S11043   4.051   4.515  13.859 -0.2754 -0.6516  0.2973
   8323SM   H8T11044   4.100   4.688  13.898  0.4704  0.0651 -1.6498
   8323SM   C9S11045   4.218   4.527  13.985  0.6023 -0.6701 -0.0831
   8323SM   H9S11046   4.315   4.579  13.996  0.7880 -1.2624  1.2406
   8323SM   H9T11047   4.246   4.424  13.956  2.2006  0.1406 -1.5437
   8323SM  C10S11048   4.143   4.523  14.123 -0.4218  1.0457 -0.1484
   8323SM  H10S11049   4.211   4.452  14.175 -0.8192 -1.0541 -2.3203
   8323SM  H10T11050   4.043   4.473  14.125 -0.4956  1.2000  0.0542
   8323SM  C11S11051   4.142   4.657  14.208  0.2067 -0.2977 -0.1920
   8323SM  H11S11052   4.062   4.724  14.170 -0.3247 -0.3140  0.8362
   8323SM  H11T11053   4.237   4.710  14.188  0.2735 -1.0838 -2.1002
   8323SM  C12S11054   4.124   4.627  14.361  0.6695 -0.1669  0.0602
   8323SM  H12S11055   4.219   4.578  14.390 -0.0598 -1.2531  0.6702
   8323SM  H12T11056   4.046   4.548  14.362  1.5606 -1.0655  0.7439
   8323SM  C13S11057   4.090   4.745  14.443 -0.7700 -0.1379  0.4209
   8323SM  H13S11058   4.004   4.800  14.400 -0.7799 -0.9927 -0.7075
   8323SM  H13T11059   4.177   4.811  14.463 -0.7723  0.0198 -0.0854
   8323SM  C14S11060   4.052   4.692  14.580 -0.4450  0.0717  0.1054
   8323SM  H14S11061   4.139   4.659  14.641 -1.3814  0.0891  1.4860
   8323SM  H14T11062   3.964   4.625  14.580 -0.3384 -0.0750  0.6899
   8323SM  C15S11063   4.009   4.814  14.669  0.1916  0.2903  0.0398
   8323SM  H15S11064   3.967   4.889  14.599  1.0064  1.8865  1.2135
   8323SM  H15T11065   4.110   4.849  14.697  0.0624  2.1314 -1.6197
   8323SM  C16S11066   3.920   4.773  14.788 -0.3933 -0.2634  0.1513
   8323SM  H16S11067   3.970   4.701  14.857  1.0968  2.2787  1.8971
   8323SM  H16T11068   3.834   4.718  14.744 -0.0073 -0.0100 -0.9398
   8323SM  C17S11069   3.854   4.889  14.869 -0.0175 -0.2635 -0.1976
   8323SM  H17S11070   3.746   4.869  14.889  0.5205 -1.0740  2.3573
   8323SM  H17T11071   3.863   4.987  14.817  1.2555 -1.3716 -2.1719
   8323SM  C18S11072   3.914   4.901  15.010  0.5713  0.2502  0.1651
   8323SM  H18S11073   4.022   4.930  15.017  0.2196  1.9653 -0.7843
   8323SM  H18T11074   3.894   4.814  15.075  2.5596  0.3790  1.0254
   8323SM  H18U11075   3.876   4.991  15.062 -1.6679  0.5531 -1.8434
   8323SM   C1F11076   4.765   4.671  13.451 -0.0775 -0.7625  0.6302
   8323SM    OF11077   4.735   4.787  13.423  0.0072  0.4869 -0.3374
   8323SM   C2F11078   4.897   4.634  13.506  0.0512  0.1916  0.5967
   8323SM   H2F11079   4.954   4.590  13.421 -0.6385  1.5240 -0.5905
   8323SM   H2G11080   4.888   4.562  13.590 -0.5476 -0.1516  0.2480
   8323SM   C3F11081   4.976   4.769  13.540 -0.1504  0.0678 -0.0449
   8323SM   H3F11082   4.926   4.813  13.629  0.3256  0.0071  0.2572
   8323SM   H3G11083   4.983   4.831  13.448 -3.0659 -0.5118 -0.7756
   8323SM   C4F11084   5.123   4.750  13.582 -0.6855  1.2080  0.2816
   8323SM   H4F11085   5.176   4.847  13.570  0.1578  0.7240  0.0660
   8323SM   H4G11086   5.176   4.674  13.521 -0.3815  1.9869 -0.4466
   8323SM   C5F11087   5.130   4.712  13.732  0.9032 -0.7540 -0.2776
   8323SM   H5F11088   5.066   4.627  13.765  1.2556 -1.7483 -2.0044
   8323SM   H5G11089   5.097   4.801  13.789  1.1969 -0.7951 -0.0387
   8323SM   C6F11090   5.278   4.688  13.772 -0.2854 -0.1816 -0.6499
   8323SM   H6F11091   5.349   4.770  13.748  1.2604 -0.7253  1.7755
   8323SM   H6G11092   5.307   4.592  13.724 -0.8559 -0.6844 -0.0129
   8323SM   C7F11093   5.296   4.661  13.919 -0.0575 -0.5700 -0.2728
   8323SM   H7F11094   5.211   4.601  13.956 -1.4117  0.9298 -0.8712
   8323SM   H7G11095   5.292   4.754  13.980  1.4332 -0.3813 -0.4075
   8323SM   C8F11096   5.437   4.600  13.961  0.5000  0.1879  0.0601
   8323SM   H8F11097   5.517   4.674  13.938  0.7389  0.3491  1.3319
   8323SM   H8G11098   5.463   4.512  13.898 -1.5578 -0.6127  0.2499
   8323SM   C9F11099   5.446   4.563  14.117  0.2355  0.3324  0.6126
   8323SM   H9F11100   5.397   4.465  14.132 -0.7288  0.7634  0.3710
   8323SM   H9G11101   5.385   4.632  14.179 -1.0202 -0.5416  0.3973
   8323SM  C10F11102   5.581   4.580  14.178 -1.0058 -0.0684 -0.5716
   8323SM  H10F11103   5.625   4.678  14.147 -0.2569  0.0000  0.6586
   8323SM  H10G11104   5.654   4.507  14.137 -1.3212 -0.6081 -0.1893
   8323SM  C11F11105   5.589   4.570  14.336 -0.7165  0.1543  0.4471
   8323SM  H11F11106   5.534   4.652  14.387 -1.1589  0.8535 -1.0854
   8323SM  H11G11107   5.691   4.579  14.378 -0.5938  1.5024 -0.1056
   8323SM  C12F11108   5.550   4.424  14.376 -0.1131  0.4162 -0.6339
   8323SM  H12F11109   5.622   4.349  14.337  0.0620  0.7251 -0.9121
   8323SM  H12G11110   5.454   4.402  14.326  0.0844  0.6873 -1.1431
   8323SM  C13F11111   5.542   4.404  14.530  0.5165 -0.1328 -0.3025
   8323SM  H13F11112   5.499   4.492  14.584  0.9417 -0.0993 -0.0195
   8323SM  H13G11113   5.647   4.398  14.563  1.0452 -0.1793 -1.9158
   8323SM  C14F11114   5.481   4.267  14.573 -0.2632  0.7804  0.2113
   8323SM  H14F11115   5.536   4.193  14.511  0.5274  1.4313  0.1132
   8323SM  H14G11116   5.374   4.256  14.543 -0.9075  2.1974  1.7925
   8323SM  C15F11117   5.473   4.223  14.725  0.7829 -0.0881  0.7352
   8323SM  H15F11118   5.429   4.121  14.716  0.0400  0.3824 -1.5551
   8323SM  H15G11119   5.411   4.299  14.779  1.6362  0.4030  1.0394
   8323SM  C16F11120   5.612   4.232  14.788 -0.0812 -0.3613  0.4994
   8323SM  H16F11121   5.629   4.342  14.794  0.9723 -0.5800  2.4828
   8323SM  H16G11122   5.692   4.187  14.725 -0.0301 -1.6226  1.4200
   8323SM  C17F11123   5.616   4.175  14.930 -0.5662  0.3884  0.6652
   8323SM  H17F11124   5.556   4.082  14.929 -0.5792  0.3977  0.4395
   8323SM  H17G11125   5.557   4.236  15.002 -1.6509 -0.1629  0.2701
   8323SM  C18F11126   5.756   4.144  14.976 -0.0826  0.3266  0.6168
   8323SM  H18F11127   5.813   4.239  14.982 -0.5520  0.8935 -2.3757
   8323SM  H18G11128   5.800   4.078  14.898  0.2356  1.2799 -0.0165
   8323SM  C19F11129   5.762   4.069  15.117 -0.2348  0.1404  0.7285
   8323SM  H19F11130   5.725   3.965  15.110 -0.9471  0.4098  0.4200
   8323SM  H19G11131   5.693   4.121  15.187  0.5574 -1.0062  2.4398
   8323SM  C20F11132   5.909   4.060  15.174 -0.6423 -0.4857  0.2459
   8323SM  H20F11133   5.905   4.042  15.283 -1.4472 -1.0910  0.1204
   8323SM  H20G11134   5.949   4.164  15.171 -1.8225 -0.0444 -1.4472
   8323SM  C21F11135   5.989   3.955  15.101  0.2006 -0.1916 -0.1565
   8323SM  H21F11136   5.981   3.970  14.991  3.2146  1.2707 -0.2813
   8323SM  H21G11137   5.942   3.855  15.113  0.0755 -0.3743 -1.9179
   8323SM  C22F11138   6.139   3.948  15.143  0.6431 -0.3065  0.2668
   8323SM  H22F11139   6.178   4.048  15.113 -0.3825 -0.1179 -0.5104
   8323SM  H22G11140   6.192   3.871  15.084 -0.4233  0.3255 -1.6107
   8323SM  C23F11141   6.163   3.918  15.292 -0.1761  0.1849  0.4764
   8323SM  H23F11142   6.267   3.898  15.325 -0.7928 -0.2078  2.2598
   8323SM  H23G11143   6.106   3.825  15.314  2.0860 -1.2246  0.6875
   8323SM  H23H11144   6.128   3.998  15.360  0.1958  2.1184 -1.4982
   8423SM     N11145   4.383   3.526  12.684  0.0936 -0.2195 -0.2909
   8423SM   C1511146   4.317   3.434  12.587  0.3680 -0.4370 -0.8148
   8423SM  H15A11147   4.300   3.336  12.629 -0.6112 -0.0376 -0.2211
   8423SM  H15B11148   4.373   3.429  12.495  1.6214  1.8021 -0.2595
   8423SM  H15C11149   4.217   3.466  12.562 -0.0269 -0.5724  0.4940
   8423SM   C1411150   4.509   3.463  12.731 -0.8748 -0.0886  0.1122
   8423SM  H14A11151   4.487   3.377  12.794 -2.4689 -0.3118 -0.6913
   8423SM  H14B11152   4.575   3.520  12.794 -0.5166 -2.0534  1.6298
   8423SM  H14C11153   4.567   3.424  12.649 -0.6564  0.6295 -0.0782
   8423SM   C1311154   4.416   3.655  12.628  0.1190 -0.3911  0.1973
   8423SM  H13A11155   4.494   3.636  12.555  0.5019  1.0431  0.2166
   8423SM  H13B11156   4.464   3.724  12.695  0.4597 -0.0130 -0.4300
   8423SM  H13C11157   4.342   3.706  12.568 -2.3519 -4.1955 -0.3318
   8423SM   C1211158   4.291   3.550  12.802 -0.0998 -0.5176 -0.4215
   8423SM  H12A11159   4.189   3.553  12.767  0.2819  1.3853 -1.4892
   8423SM  H12B11160   4.304   3.651  12.838  0.1571 -0.2847 -1.1605
   8423SM   C1111161   4.287   3.452  12.912 -0.1715  1.0870 -0.8669
   8423SM  H11A11162   4.233   3.498  12.997 -1.5099  2.4513 -2.3904
   8423SM  H11B11163   4.384   3.426  12.960 -1.9958  0.7633  3.0824
   8423SM     P11164   4.092   3.277  12.917 -0.1508  0.0561 -0.4704
   8423SM   O1311165   3.987   3.357  12.855  0.5636 -0.3246 -0.0047
   8423SM   O1411166   4.082   3.131  12.895 -0.1089  0.2779 -0.1581
   8423SM   O1111167   4.098   3.309  13.071 -0.0732 -0.2222  0.3677
   8423SM   O1211168   4.232   3.327  12.862  0.1534 -0.3783 -0.1859
   8423SM   C1S11169   4.193   3.235  13.153 -0.2938  0.5796 -0.3514
   8423SM   H1S11170   4.284   3.299  13.158 -0.0954  0.1752  2.3425
   8423SM   H1T11171   4.216   3.138  13.104  0.6151  0.7584 -0.2943
   8423SM    NF11172   4.237   3.125  13.375 -0.6700  0.3164 -1.0967
   8423SM   HNF11173   4.218   3.028  13.387 -2.4961  0.5535 -1.6849
   8423SM   C2S11174   4.139   3.197  13.296  0.1610 -0.7744  0.6145
   8423SM   H2S11175   4.117   3.297  13.339 -1.1903 -0.5897 -0.4347
   8423SM   C3S11176   4.000   3.127  13.284 -0.1988  0.2690 -0.6049
   8423SM   H3S11177   4.019   3.031  13.231  1.6630  1.2287 -1.7793
   8423SM    O311178   3.906   3.185  13.196 -0.2154 -0.1511 -0.8603
   8423SM   HO311179   3.966   3.243  13.148  0.4639  0.7697  1.0253
   8423SM   C4S11180   3.929   3.095  13.416 -0.3403 -0.2436  0.2341
   8423SM   H4S11181   3.942   2.992  13.451 -2.4092 -0.8703 -0.7070
   8423SM   C5S11182   3.861   3.178  13.496  0.4740 -0.2589  0.0889
   8423SM   H5S11183   3.855   3.284  13.466  2.1341 -0.1761 -0.0207
   8423SM   C6S11184   3.815   3.148  13.636 -0.3620  0.0741 -0.4377
   8423SM   H6S11185   3.874   3.058  13.663 -0.7287 -0.6382 -1.8905
   8423SM   H6T11186   3.710   3.114  13.645 -0.3281 -0.5306 -1.9796
   8423SM   C7S11187   3.847   3.266  13.738 -0.0912  0.5860  0.4275
   8423SM   H7S11188   3.784   3.354  13.710 -1.2870 -0.7745 -1.3914
   8423SM   H7T11189   3.957   3.280  13.743  0.2496 -1.9323  1.1296
   8423SM   C8S11190   3.809   3.219  13.876  0.1721  0.3628 -0.1322
   8423SM   H8S11191   3.872   3.132  13.904 -0.3319 -0.3331 -1.0920
   8423SM   H8T11192   3.703   3.186  13.868  0.6148 -0.9174 -0.9813
   8423SM   C9S11193   3.818   3.333  13.977 -0.8474 -0.2797 -0.4950
   8423SM   H9S11194   3.751   3.418  13.952 -0.2336 -0.2821 -2.2898
   8423SM   H9T11195   3.919   3.379  13.973 -0.4767 -0.7868  1.8228
   8423SM  C10S11196   3.782   3.283  14.118  0.4231  0.4140  0.1669
   8423SM  H10S11197   3.834   3.185  14.127  1.3488  0.8948  0.2004
   8423SM  H10T11198   3.674   3.257  14.117 -0.0859  2.3797  0.2756
   8423SM  C11S11199   3.812   3.382  14.235  0.6182  0.8047  0.2747
   8423SM  H11S11200   3.755   3.476  14.222 -2.7372 -0.9714  0.8724
   8423SM  H11T11201   3.921   3.400  14.231  0.4281  1.8117 -1.7013
   8423SM  C12S11202   3.781   3.321  14.376  0.7745 -0.2605  0.3417
   8423SM  H12S11203   3.818   3.398  14.447  0.6273  0.0303  0.1060
   8423SM  H12T11204   3.843   3.230  14.389 -1.4321 -1.6567  1.7196
   8423SM  C13S11205   3.633   3.274  14.408 -0.2686  0.4469  0.6673
   8423SM  H13S11206   3.608   3.213  14.318  0.5875  2.1715 -0.8028
   8423SM  H13T11207   3.559   3.354  14.390 -2.1668 -1.7222 -2.1118
   8423SM  C14S11208   3.600   3.213  14.550  0.1990 -0.1636  0.4861
   8423SM  H14S11209   3.628   3.296  14.619 -0.8277  0.9686 -0.4018
   8423SM  H14T11210   3.652   3.117  14.567  0.6051 -0.0582 -0.1291
   8423SM  C15S11211   3.452   3.196  14.582  0.2312  0.5521  0.3118
   8423SM  H15S11212   3.424   3.117  14.509  1.0211 -0.2570  0.8573
   8423SM  H15T11213   3.383   3.276  14.549 -0.2768 -0.6784 -1.8246
   8423SM  C16S11214   3.418   3.138  14.713  0.1990 -0.4259  0.0850
   8423SM  H16S11215   3.479   3.046  14.724 -0.0924 -0.6019  0.2211
   8423SM  H16T11216   3.309   3.120  14.707 -0.2382  1.9411 -0.1924
   8423SM  C17S11217   3.431   3.241  14.824 -0.6088 -0.0606  0.2676
   8423SM  H17S11218   3.540   3.253  14.844 -0.3231 -1.4325 -0.3303
   8423SM  H17T11219   3.391   3.193  14.916 -0.7723 -0.4045  0.0209
   8423SM  C18S11220   3.358   3.379  14.808  0.3523  0.2576 -0.2766
   8423SM  H18S11221   3.376   3.451  14.890  0.7094  1.9414 -1.7599
   8423SM  H18T11222   3.248   3.369  14.797  0.3240  0.6164 -0.3141
   8423SM  H18U11223   3.400   3.428  14.717  1.0863 -0.0555 -0.1116
   8423SM   C1F11224   4.350   3.188  13.411 -0.3970  0.6999 -1.0392
   8423SM    OF11225   4.378   3.302  13.377  0.2239  0.7750 -0.0017
   8423SM   C2F11226   4.435   3.113  13.509  0.6817 -0.0616 -0.5113
   8423SM   H2F11227   4.524   3.074  13.455 -0.0225 -1.6934 -0.5544
   8423SM   H2G11228   4.380   3.020  13.537  2.3420 -1.8463 -2.7747
   8423SM   C3F11229   4.477   3.191  13.636 -0.0002 -0.0089  0.3317
   8423SM   H3F11230   4.552   3.270  13.616 -2.4876  2.8821  1.6956
   8423SM   H3G11231   4.520   3.120  13.711 -0.1876  0.7930  1.2051
   8423SM   C4F11232   4.359   3.258  13.707 -0.0306 -0.3479  0.8520
   8423SM   H4F11233   4.282   3.178  13.713 -0.5401  0.0170 -0.4529
   8423SM   H4G11234   4.326   3.343  13.644  2.1306 -1.6679 -2.2835
   8423SM   C5F11235   4.409   3.317  13.840  0.2462 -0.3065  0.2634
   8423SM   H5F11236   4.387   3.426  13.848  1.5714  0.1465 -1.5156
   8423SM   H5G11237   4.520   3.320  13.840  0.3554 -2.5773  0.7593
   8423SM   C6F11238   4.375   3.227  13.966  0.2183 -0.5932  0.4680
   8423SM   H6F11239   4.425   3.269  14.056 -0.0858 -0.5265  0.6039
   8423SM   H6G11240   4.418   3.126  13.949  1.2014 -0.0936 -0.1903
   8423SM   C7F11241   4.223   3.220  13.998  0.6843 -0.2693 -0.0165
   8423SM   H7F11242   4.160   3.186  13.914 -0.3847  0.0884  0.6200
   8423SM   H7G11243   4.181   3.322  14.017 -0.0156 -0.7221  0.9208
   8423SM   C8F11244   4.190   3.146  14.129 -0.0283 -0.6353  0.3395
   8423SM   H8F11245   4.244   3.049  14.120  1.7156  0.0459  2.5143
   8423SM   H8G11246   4.082   3.127  14.146 -0.0824 -0.0940  0.6177
   8423SM   C9F11247   4.228   3.223  14.255  0.2230  0.4228  0.0693
   8423SM   H9F11248   4.151   3.300  14.275 -0.6956 -0.8994  1.9139
   8423SM   H9G11249   4.330   3.268  14.249  1.5997 -2.5908 -1.3802
   8423SM  C10F11250   4.226   3.135  14.392  0.8882  0.1551  0.1752
   8423SM  H10F11251   4.301   3.055  14.373 -1.2421 -2.5395  2.4593
   8423SM  H10G11252   4.127   3.088  14.403  0.3687  1.1829  0.0260
   8423SM  C11F11253   4.257   3.221  14.508 -0.9248  0.3732 -1.0586
   8423SM  H11F11254   4.194   3.313  14.506  0.3911  1.3444  0.0004
   8423SM  H11G11255   4.365   3.250  14.500 -0.9004  0.1500 -1.5849
   8423SM  C12F11256   4.230   3.139  14.629 -0.1688  0.2104 -0.4097
   8423SM  H12F11257   4.278   3.164  14.725 -1.3773 -0.3758  0.3714
   8423SM  H12G11258   4.255   3.032  14.610 -1.1597 -0.2871  0.9536
   8423SM  C13F11259   4.083   3.158  14.663 -0.0800  0.2316  0.2501
   8423SM  H13F11260   4.019   3.145  14.573 -1.8558  3.1095  0.9700
   8423SM  H13G11261   4.069   3.266  14.686  1.5281  0.4323  0.3700
   8423SM  C14F11262   4.040   3.065  14.784  0.2734 -0.0620  0.2200
   8423SM  H14F11263   4.057   3.113  14.883  0.5824 -1.9535  1.1181
   8423SM  H14G11264   4.098   2.971  14.780  1.1605  0.4498  0.5900
   8423SM  C15F11265   3.891   3.029  14.777 -0.1256  0.0149  0.0624
   8423SM  H15F11266   3.878   2.939  14.842 -0.2601 -0.2426 -0.3158
   8423SM  H15G11267   3.875   3.004  14.670  0.8613  0.7748 -0.2825
   8423SM  C16F11268   3.798   3.148  14.821 -0.2941  0.0410 -0.2012
   8423SM  H16F11269   3.696   3.115  14.794 -0.1250 -0.8539  0.2252
   8423SM  H16G11270   3.811   3.246  14.771 -1.9881  0.2451 -0.3002
   8423SM  C17F11271   3.803   3.190  14.972 -0.9575  0.4674  0.0191
   8423SM  H17F11272   3.724   3.263  14.997 -1.4846 -0.6272  1.7706
   8423SM  H17G11273   3.904   3.235  14.982 -0.9319  0.3755  0.1779
   8423SM  C18F11274   3.782   3.079  15.070 -0.0880  0.0539 -0.2958
   8423SM  H18F11275   3.821   3.103  15.172 -0.2578  1.6316 -0.5847
   8423SM  H18G11276   3.854   2.997  15.048  0.0634  0.4592 -1.3307
   8423SM  C19F11277   3.635   3.036  15.085 -0.8793  0.2007  0.7827
   8423SM  H19F11278   3.597   3.037  14.980 -0.0697  3.2086  0.4285
   8423SM  H19G11279   3.578   3.108  15.147 -0.0509  0.7812  0.8735
   8423SM  C20F11280   3.622   2.890  15.134 -0.8818  0.7670  0.1689
   8423SM  H20F11281   3.712   2.832  15.102 -1.0574  0.6017 -0.0280
   8423SM  H20G11282   3.533   2.832  15.100 -0.0172 -0.3715 -0.2211
   8423SM  C21F11283   3.620   2.894  15.286 -0.1672 -1.0772  0.2270
   8423SM  H21F11284   3.533   2.954  15.320  1.2838  1.1830  0.1772
   8423SM  H21G11285   3.709   2.957  15.311 -1.9288  1.7419 -0.1322
   8423SM  C22F11286   3.609   2.758  15.351 -1.0205 -0.1046  0.2184
   8423SM  H22F11287   3.518   2.705  15.313 -0.7662 -0.3974  0.0074
   8423SM  H22G11288   3.590   2.769  15.460  0.5369  3.2282  0.2568
   8423SM  C23F11289   3.733   2.669  15.335  0.1827  0.5652  0.0769
   8423SM  H23F11290   3.764   2.669  15.228 -1.1695  0.9327 -0.3302
   8423SM  H23G11291   3.706   2.566  15.366  1.6251  0.4911  1.2136
   8423SM  H23H11292   3.821   2.707  15.391 -0.1857  3.2044 -0.9804
   8523SM     N11293   5.645   4.044  13.013  0.0026 -0.1711 -0.2180
   8523SM   C1511294   5.519   3.994  13.074 -0.5412 -0.2844 -0.5416
   8523SM  H15A11295   5.460   4.065  13.129 -2.0453 -0.3849 -1.9429
   8523SM  H15B11296   5.536   3.915  13.146 -0.2907  1.8579  1.8984
   8523SM  H15C11297   5.451   3.959  12.997 -0.0628  0.0644 -1.1351
   8523SM   C1411298   5.723   3.933  12.948 -0.0973  0.0912  0.5079
   8523SM  H14A11299   5.730   3.850  13.017 -2.0921 -1.8888 -1.4849
   8523SM  H14B11300   5.820   3.968  12.918  0.5207 -0.5320  1.7396
   8523SM  H14C11301   5.662   3.901  12.865 -2.2353  0.6565  1.7751
   8523SM   C1311302   5.621   4.149  12.902  0.2580 -0.4952 -0.1712
   8523SM  H13A11303   5.710   4.198  12.867  0.3158  0.6985  1.5123
   8523SM  H13B11304   5.553   4.223  12.943  0.1377 -1.9557  2.4994
   8523SM  H13C11305   5.568   4.110  12.817 -0.7561  0.2790  0.0889
   8523SM   C1211306   5.731   4.106  13.125 -0.0052 -0.6539  0.1265
   8523SM  H12A11307   5.824   4.138  13.080  0.4350 -0.0178  1.4363
   8523SM  H12B11308   5.751   4.026  13.195  1.5530  1.4672  2.2945
   8523SM   C1111309   5.685   4.232  13.202  0.1273  0.3503 -0.3645
   8523SM  H11A11310   5.737   4.232  13.300 -2.7079  0.1019  1.2641
   8523SM  H11B11311   5.579   4.222  13.234  0.9831 -3.4479  1.9391
   8523SM     P11312   5.843   4.421  13.090  0.2972  0.0478 -0.3590
   8523SM   O1311313   5.932   4.311  13.055 -0.5736  0.3009  0.5325
   8523SM   O1411314   5.823   4.536  12.997 -0.1581 -0.2766 -0.4768
   8523SM   O1111315   5.887   4.487  13.228 -0.1770  0.2038  0.6518
   8523SM   O1211316   5.702   4.356  13.128  0.7402  0.5115  0.4367
   8523SM   C1S11317   6.011   4.562  13.221  0.3512  0.6128 -1.1594
   8523SM   H1S11318   5.998   4.658  13.167  0.4987  1.5051  0.3482
   8523SM   H1T11319   6.084   4.504  13.160  0.4136 -0.6149  0.0292
   8523SM    NF11320   6.190   4.683  13.337  0.3629  1.3007  0.0616
   8523SM   HNF11321   6.277   4.635  13.347 -0.7491 -1.1532 -1.0773
   8523SM   C2S11322   6.064   4.602  13.360 -0.0432 -0.0879 -0.0139
   8523SM   H2S11323   5.991   4.671  13.407  1.9488  0.3553  2.6993
   8523SM   C3S11324   6.089   4.477  13.452  0.4216 -0.6025 -0.7591
   8523SM   H3S11325   6.162   4.405  13.410  0.9189 -1.1069  0.9134
   8523SM    O311326   5.973   4.392  13.465 -0.0464 -0.2194 -0.6009
   8523SM   HO311327   5.919   4.429  13.395 -0.5295  2.1689  0.8948
   8523SM   C4S11328   6.128   4.522  13.593  0.2200 -1.1596  0.7598
   8523SM   H4S11329   6.031   4.536  13.643 -1.5543 -2.1127 -2.1326
   8523SM   C5S11330   6.244   4.549  13.658 -0.2289  0.1199 -0.4135
   8523SM   H5S11331   6.337   4.542  13.600 -1.5444  1.1884 -2.7741
   8523SM   C6S11332   6.250   4.585  13.807 -0.1917  0.4743  0.0505
   8523SM   H6S11333   6.150   4.592  13.855 -0.1931  1.9233 -0.1305
   8523SM   H6T11334   6.296   4.686  13.803  1.2404 -0.1937 -1.4375
   8523SM   C7S11335   6.315   4.475  13.895 -0.0352 -0.5656  0.1047
   8523SM   H7S11336   6.418   4.459  13.855  0.2918  0.6471  0.3999
   8523SM   H7T11337   6.255   4.382  13.894  1.1950 -1.3985 -1.2191
   8523SM   C8S11338   6.323   4.510  14.051  0.6506 -0.3262  0.5656
   8523SM   H8S11339   6.219   4.531  14.081  0.6119  0.7477 -0.2659
   8523SM   H8T11340   6.377   4.607  14.059  2.1056 -0.8884 -1.5303
   8523SM   C9S11341   6.373   4.393  14.136  0.1605 -1.0241  0.5926
   8523SM   H9S11342   6.478   4.376  14.107  0.3898  0.9295  0.1003
   8523SM   H9T11343   6.324   4.300  14.099 -0.7955 -1.2208  2.2657
   8523SM  C10S11344   6.363   4.419  14.285  0.6404 -0.2889  0.5306
   8523SM  H10S11345   6.369   4.320  14.336  0.9402  0.8226  2.7680
   8523SM  H10T11346   6.260   4.462  14.288  0.8407  0.2522 -0.1513
   8523SM  C11S11347   6.463   4.514  14.347 -0.8649  0.1116  0.9113
   8523SM  H11S11348   6.434   4.618  14.324  0.0945  0.5788  1.7648
   8523SM  H11T11349   6.562   4.493  14.300 -1.2756  1.9128 -0.8775
   8523SM  C12S11350   6.464   4.505  14.494  0.0542  0.1931  0.5515
   8523SM  H12S11351   6.515   4.410  14.522  0.5307  0.9679  2.4965
   8523SM  H12T11352   6.362   4.517  14.537  0.1774 -0.1850  0.9577
   8523SM  C13S11353   6.563   4.602  14.557  1.1448 -0.2672  0.2772
   8523SM  H13S11354   6.537   4.708  14.538  0.4956 -0.1297  1.7578
   8523SM  H13T11355   6.663   4.590  14.509  0.3314 -1.2356 -1.2185
   8523SM  C14S11356   6.574   4.579  14.707 -0.7935  0.4034 -0.0526
   8523SM  H14S11357   6.628   4.482  14.716  0.7018  0.7991 -3.2620
   8523SM  H14T11358   6.470   4.579  14.745  0.1957  1.1854  2.8494
   8523SM  C15S11359   6.661   4.685  14.768 -0.0281  0.1979 -0.4730
   8523SM  H15S11360   6.607   4.781  14.755 -1.0984 -0.4229 -0.7859
   8523SM  H15T11361   6.757   4.704  14.716  1.5978 -0.0140  2.2663
   8523SM  C16S11362   6.708   4.667  14.906  0.5780  0.1913  0.1941
   8523SM  H16S11363   6.744   4.563  14.921 -1.2798 -0.3909  0.8271
   8523SM  H16T11364   6.626   4.683  14.979 -0.2166  0.8365 -0.8109
   8523SM  C17S11365   6.816   4.762  14.957 -0.6905  0.9969  0.1785
   8523SM  H17S11366   6.911   4.743  14.903 -1.3936  0.7537 -1.0078
   8523SM  H17T11367   6.838   4.730  15.061  0.6302  0.5237 -0.2160
   8523SM  C18S11368   6.780   4.905  14.943 -0.5657  0.1285  0.4622
   8523SM  H18S11369   6.758   4.928  14.837  0.2481 -2.0964 -0.2378
   8523SM  H18T11370   6.867   4.963  14.979  1.5475 -2.5347 -0.0953
   8523SM  H18U11371   6.689   4.915  15.007 -0.1872 -1.3113  1.2533
   8523SM   C1F11372   6.181   4.805  13.299 -1.1474  0.6384 -0.3901
   8523SM    OF11373   6.077   4.843  13.260  0.1231  0.1773  0.3897
   8523SM   C2F11374   6.300   4.897  13.314 -0.0063 -0.5552  0.6854
   8523SM   H2F11375   6.265   5.002  13.301 -1.1705 -1.1096 -1.0439
   8523SM   H2G11376   6.377   4.866  13.240  0.1315  0.5913  0.3307
   8523SM   C3F11377   6.366   4.888  13.454  0.8800 -0.1109  0.4838
   8523SM   H3F11378   6.439   4.805  13.443  0.8859  0.1515 -2.1457
   8523SM   H3G11379   6.293   4.862  13.534  1.9375 -0.3971  1.3715
   8523SM   C4F11380   6.452   5.011  13.502 -0.5198 -0.5332 -1.0428
   8523SM   H4F11381   6.381   5.095  13.520 -2.0207 -1.7100 -1.2043
   8523SM   H4G11382   6.505   5.042  13.410 -0.4739  0.8959 -0.5661
   8523SM   C5F11383   6.549   4.966  13.613 -0.1700 -0.4160 -1.0005
   8523SM   H5F11384   6.599   5.063  13.635  0.1142 -0.9983  1.1506
   8523SM   H5G11385   6.630   4.907  13.564  0.4049 -1.2173  0.8353
   8523SM   C6F11386   6.476   4.908  13.734  0.1867 -0.6362 -0.0672
   8523SM   H6F11387   6.431   4.814  13.695 -3.7017  1.8991 -2.4600
   8523SM   H6G11388   6.385   4.964  13.764  0.3779 -0.8784  0.9883
   8523SM   C7F11389   6.567   4.874  13.855 -0.0458  0.4527  0.5069
   8523SM   H7F11390   6.646   4.804  13.822 -0.5259  0.0631  0.1687
   8523SM   H7G11391   6.497   4.814  13.917 -1.4134  2.5323  1.0836
   8523SM   C8F11392   6.619   5.003  13.926  0.0375  0.2174  0.5097
   8523SM   H8F11393   6.684   5.073  13.869  2.9296 -2.2066  0.5570
   8523SM   H8G11394   6.688   4.962  14.003 -0.0554 -3.7992 -1.3106
   8523SM   C9F11395   6.506   5.080  13.995 -0.5967 -0.3864 -0.2364
   8523SM   H9F11396   6.418   5.018  14.020 -0.4618 -0.0256  1.2609
   8523SM   H9G11397   6.468   5.166  13.934  0.4868  0.3192  0.0546
   8523SM  C10F11398   6.564   5.133  14.130  0.6683 -0.0008  0.0569
   8523SM  H10F11399   6.654   5.196  14.120 -0.4434  1.6987  0.4522
   8523SM  H10G11400   6.587   5.037  14.181 -1.5048 -0.0176  1.1240
   8523SM  C11F11401   6.461   5.195  14.221  0.7197 -0.5608  0.8005
   8523SM  H11F11402   6.385   5.118  14.247  0.6853 -0.2709  1.6045
   8523SM  H11G11403   6.406   5.283  14.180  2.1343  0.1379  0.3539
   8523SM  C12F11404   6.529   5.235  14.350 -0.8349  0.0108  0.2762
   8523SM  H12F11405   6.610   5.306  14.320  0.9234 -1.9265  0.1894
   8523SM  H12G11406   6.568   5.140  14.393 -2.7633 -1.0706 -0.2552
   8523SM  C13F11407   6.437   5.299  14.453 -0.5163  0.3079  0.0212
   8523SM  H13F11408   6.397   5.385  14.395 -0.8153  0.1418 -0.0227
   8523SM  H13G11409   6.488   5.339  14.544 -0.7934  2.5998 -0.7672
   8523SM  C14F11410   6.332   5.200  14.501  0.2375 -0.0083  0.1690
   8523SM  H14F11411   6.270   5.156  14.420 -0.3636 -2.1418  1.7173
   8523SM  H14G11412   6.253   5.260  14.552 -1.1833 -0.9285 -0.8959
   8523SM  C15F11413   6.388   5.092  14.592  0.2523 -0.7159 -0.4333
   8523SM  H15F11414   6.444   5.140  14.674  0.0385  0.6737 -1.0763
   8523SM  H15G11415   6.455   5.022  14.539  1.6364 -0.6535  1.1574
   8523SM  C16F11416   6.281   5.017  14.667 -0.1656  0.1001  0.5104
   8523SM  H16F11417   6.227   4.959  14.588  1.5700 -1.9312  0.7096
   8523SM  H16G11418   6.211   5.078  14.728  1.0964  1.1930  0.9096
   8523SM  C17F11419   6.348   4.907  14.760 -0.1658 -0.2369  0.8586
   8523SM  H17F11420   6.429   4.955  14.819  0.1315  0.6147 -0.2038
   8523SM  H17G11421   6.391   4.824  14.701 -2.8087 -1.7788  0.9535
   8523SM  C18F11422   6.254   4.836  14.855 -0.2334  0.1632 -0.4920
   8523SM  H18F11423   6.199   4.760  14.794  0.8816 -2.8533  1.9919
   8523SM  H18G11424   6.187   4.907  14.907 -1.7823 -0.4952 -1.5299
   8523SM  C19F11425   6.324   4.747  14.963 -0.4197 -0.0939  0.4139
   8523SM  H19F11426   6.355   4.817  15.044 -3.2211  1.1487  0.5128
   8523SM  H19G11427   6.411   4.704  14.908 -1.6192  0.0607 -1.7028
   8523SM  C20F11428   6.249   4.621  15.013  0.1630 -0.3060 -0.5987
   8523SM  H20F11429   6.226   4.559  14.924 -2.6485 -1.8587  1.0718
   8523SM  H20G11430   6.152   4.652  15.057  0.8649 -0.7074  1.3459
   8523SM  C21F11431   6.325   4.544  15.121  0.5688 -0.1570  0.4722
   8523SM  H21F11432   6.346   4.615  15.203 -1.1964  0.1291  0.7092
   8523SM  H21G11433   6.408   4.489  15.070 -1.7205 -1.6329 -1.9079
   8523SM  C22F11434   6.230   4.436  15.178 -0.1602 -0.5723  0.4199
   8523SM  H22F11435   6.180   4.383  15.094 -0.6148  2.5844 -1.4762
   8523SM  H22G11436   6.140   4.477  15.229 -0.1044  0.5029 -0.2906
   8523SM  C23F11437   6.299   4.338  15.268  0.0047  0.7591  0.6860
   8523SM  H23F11438   6.234   4.255  15.306 -0.1391  0.9819  0.9298
   8523SM  H23G11439   6.362   4.387  15.345 -0.8923  0.0474  1.9186
   8523SM  H23H11440   6.366   4.294  15.192  0.2601  3.7641 -0.9534
   8623SM     N11441   4.852   2.432  12.640  0.1028  0.6229  0.5324
   8623SM   C1511442   4.798   2.338  12.537 -0.5019  0.1190  0.6712
   8623SM  H15A11443   4.726   2.382  12.470 -0.1828  0.9793  0.8738
   8623SM  H15B11444   4.736   2.263  12.584 -1.9351  0.9885  0.2311
   8623SM  H15C11445   4.872   2.283  12.482  0.0918 -0.2952  1.8371
   8623SM   C1411446   4.932   2.355  12.738  0.0498 -0.2285 -0.0611
   8623SM  H14A11447   4.957   2.424  12.818 -0.5357  0.7941 -0.7243
   8623SM  H14B11448   5.023   2.329  12.686 -0.1789  0.5592 -0.8830
   8623SM  H14C11449   4.887   2.263  12.771 -1.8779  0.6750  0.0208
   8623SM   C1311450   4.941   2.531  12.575 -0.8131 -0.5239  0.0079
   8623SM  H13A11451   4.978   2.599  12.650  0.5980  0.0729 -1.1862
   8623SM  H13B11452   4.896   2.591  12.497 -0.0946 -1.7906 -1.4405
   8623SM  H13C11453   5.014   2.474  12.519  0.6023  0.1132  1.1242
   8623SM   C1211454   4.726   2.496  12.699 -0.0408 -0.2724 -0.3391
   8623SM  H12A11455   4.745   2.554  12.788 -1.5732 -0.0316 -0.1372
   8623SM  H12B11456   4.676   2.406  12.731  0.7082 -0.3178  0.7601
   8623SM   C1111457   4.622   2.568  12.615 -0.0855 -0.5920  0.2993
   8623SM  H11A11458   4.664   2.647  12.549 -1.1212 -1.7875 -1.8616
   8623SM  H11B11459   4.571   2.627  12.695 -0.0475  2.7520 -1.9199
   8623SM     P11460   4.388   2.457  12.576  0.2461  0.0886 -0.6453
   8623SM   O1311461   4.323   2.588  12.563  0.0246  0.0308  0.5760
   8623SM   O1411462   4.329   2.347  12.496 -0.2185 -0.1583  0.2011
   8623SM   O1111463   4.379   2.405  12.722 -0.0306  0.2192  0.2262
   8623SM   O1211464   4.543   2.469  12.544 -0.0710  0.4791 -0.4805
   8623SM   C1S11465   4.441   2.277  12.759  0.3227  0.4486 -0.3274
   8623SM   H1S11466   4.549   2.281  12.732  0.7433  3.4938  1.3322
   8623SM   H1T11467   4.398   2.197  12.695  2.7505 -0.1980 -1.2724
   8623SM    NF11468   4.533   2.168  12.979 -0.2151 -0.6602  0.0679
   8623SM   HNF11469   4.511   2.073  13.001  0.0953 -0.7570 -0.0273
   8623SM   C2S11470   4.425   2.249  12.917 -0.0629 -0.2270 -0.1464
   8623SM   H2S11471   4.444   2.343  12.973  2.4257 -0.3571 -0.6191
   8623SM   C3S11472   4.281   2.207  12.950  0.2309 -0.0026 -0.3867
   8623SM   H3S11473   4.266   2.107  12.904 -0.4909  1.1679 -2.8609
   8623SM    O311474   4.183   2.283  12.879 -0.2720 -0.2706  0.2989
   8623SM   HO311475   4.224   2.326  12.803  0.2917 -1.1385  0.0902
   8623SM   C4S11476   4.248   2.201  13.099  0.6223  0.6276  0.1083
   8623SM   H4S11477   4.299   2.114  13.144 -1.1526  0.1977  1.3880
   8623SM   C5S11478   4.195   2.294  13.180  0.1048 -0.0911 -0.2180
   8623SM   H5S11479   4.158   2.390  13.140 -0.1584 -1.5280 -3.7908
   8623SM   C6S11480   4.190   2.285  13.331 -0.0131 -0.6411  0.3211
   8623SM   H6S11481   4.260   2.207  13.368  0.7421  0.6391  1.6908
   8623SM   H6T11482   4.091   2.242  13.359  0.3793 -0.2717  2.4096
   8623SM   C7S11483   4.226   2.422  13.402 -0.2754 -0.1349 -0.1935
   8623SM   H7S11484   4.168   2.506  13.357  0.5799  0.4698 -0.1956
   8623SM   H7T11485   4.334   2.438  13.382 -0.6634  0.8393 -1.7146
   8623SM   C8S11486   4.207   2.425  13.557 -0.4821  0.2349  1.2163
   8623SM   H8S11487   4.283   2.365  13.612  0.2673 -0.8746 -0.9442
   8623SM   H8T11488   4.107   2.382  13.574 -0.2415 -0.3171  1.2611
   8623SM   C9S11489   4.196   2.578  13.599 -0.3119 -0.1253  0.2376
   8623SM   H9S11490   4.106   2.619  13.549 -1.1155  0.0050  1.7489
   8623SM   H9T11491   4.290   2.627  13.565 -0.2282 -1.1220 -1.0686
   8623SM  C10S11492   4.173   2.601  13.751 -0.5344  0.3313 -0.1564
   8623SM  H10S11493   4.235   2.526  13.804 -1.0780  0.0103  0.0331
   8623SM  H10T11494   4.069   2.564  13.761 -0.8083  1.1855  0.2397
   8623SM  C11S11495   4.198   2.746  13.797  0.4962 -0.3667 -0.0449
   8623SM  H11S11496   4.293   2.788  13.759  0.9632 -0.9205  0.4874
   8623SM  H11T11497   4.192   2.728  13.907  0.0350 -0.8749 -0.1440
   8623SM  C12S11498   4.074   2.831  13.775  1.0145 -0.0129 -0.0569
   8623SM  H12S11499   4.038   2.816  13.671  0.5271 -1.0916  0.2554
   8623SM  H12T11500   4.092   2.941  13.778 -2.2861  0.7825 -2.7234
   8623SM  C13S11501   3.967   2.804  13.875  1.0569  0.1063 -0.2318
   8623SM  H13S11502   3.926   2.701  13.876  0.6127  0.2845  0.1352
   8623SM  H13T11503   3.876   2.860  13.845  2.4067  1.5615 -1.8002
   8623SM  C14S11504   3.987   2.854  14.015 -0.5186  0.1633 -0.6954
   8623SM  H14S11505   3.923   2.943  14.029 -1.3410 -0.4061 -0.7442
   8623SM  H14T11506   4.092   2.888  14.024  0.8462 -3.7261  0.2140
   8623SM  C15S11507   3.947   2.753  14.117  0.4413 -0.1454 -0.0461
   8623SM  H15S11508   4.007   2.660  14.122 -0.4886 -1.0742 -3.5336
   8623SM  H15T11509   3.848   2.708  14.093  0.7554 -0.2315 -1.2333
   8623SM  C16S11510   3.944   2.802  14.261  0.7215  0.3936 -0.4152
   8623SM  H16S11511   4.038   2.853  14.291  0.0149  2.0850 -0.9955
   8623SM  H16T11512   3.944   2.710  14.325 -0.3311  0.1047 -0.8086
   8623SM  C17S11513   3.831   2.903  14.312 -0.0618 -0.3323  0.2156
   8623SM  H17S11514   3.863   3.001  14.269 -1.0127  0.1799  0.6442
   8623SM  H17T11515   3.826   2.918  14.422 -0.2299 -0.0932  0.1769
   8623SM  C18S11516   3.686   2.881  14.270 -0.4082  0.1048  0.3346
   8623SM  H18S11517   3.673   2.898  14.161  0.0411 -1.1804  0.0683
   8623SM  H18T11518   3.619   2.948  14.328  1.7963  0.1614  3.0021
   8623SM  H18U11519   3.653   2.778  14.293 -2.7017  0.4850 -0.9167
   8623SM   C1F11520   4.655   2.212  12.981 -0.4676  0.3680 -1.1849
   8623SM    OF11521   4.683   2.324  12.947  0.0677  0.9000  0.3014
   8623SM   C2F11522   4.755   2.109  13.017  0.1643  0.0449  0.8046
   8623SM   H2F11523   4.807   2.085  12.922 -1.3933  2.3804 -0.7418
   8623SM   H2G11524   4.715   2.024  13.076 -0.3802  0.5150  1.1309
   8623SM   C3F11525   4.861   2.174  13.110 -0.4222 -1.1179 -0.5801
   8623SM   H3F11526   4.913   2.265  13.071  1.9973 -2.0587  0.2330
   8623SM   H3G11527   4.940   2.097  13.119  0.3352 -0.5164 -1.7854
   8623SM   C4F11528   4.809   2.219  13.246 -1.5190  0.6674 -0.1069
   8623SM   H4F11529   4.733   2.297  13.225 -1.7246  0.0846 -1.6562
   8623SM   H4G11530   4.892   2.267  13.302  1.8469 -2.7597 -1.6850
   8623SM   C5F11531   4.756   2.104  13.332 -0.0113 -0.1983  0.4179
   8623SM   H5F11532   4.824   2.016  13.333 -1.0791 -1.0554  2.2104
   8623SM   H5G11533   4.665   2.063  13.284 -0.1281  0.7596 -0.2128
   8623SM   C6F11534   4.721   2.160  13.472 -0.4316 -0.1025 -0.9502
   8623SM   H6F11535   4.811   2.202  13.522 -0.9719 -0.8605  0.7330
   8623SM   H6G11536   4.694   2.076  13.539  0.8556  1.0438  1.1121
   8623SM   C7F11537   4.608   2.263  13.483 -0.3771 -0.7339 -0.1286
   8623SM   H7F11538   4.514   2.208  13.464  0.1369 -1.2373 -1.3153
   8623SM   H7G11539   4.622   2.330  13.396 -0.6860 -0.3808  0.0900
   8623SM   C8F11540   4.601   2.346  13.609 -0.4824  0.0132 -0.2721
   8623SM   H8F11541   4.530   2.428  13.587  1.5950  2.1741  0.5346
   8623SM   H8G11542   4.697   2.403  13.612 -0.8669  0.6247  0.8918
   8623SM   C9F11543   4.578   2.283  13.741  0.4526 -0.0911  0.3425
   8623SM   H9F11544   4.637   2.190  13.738  0.3399 -0.2192  1.5599
   8623SM   H9G11545   4.471   2.255  13.743  0.2866  0.4209 -0.6969
   8623SM  C10F11546   4.621   2.354  13.865  0.0800 -0.4510 -0.2151
   8623SM  H10F11547   4.729   2.342  13.885  0.7339  0.2540 -2.8760
   8623SM  H10G11548   4.562   2.312  13.949 -0.8350 -1.5859 -1.3916
   8623SM  C11F11549   4.584   2.499  13.868  0.7213 -1.0158 -0.1268
   8623SM  H11F11550   4.473   2.502  13.863  0.7889  0.5782 -3.8917
   8623SM  H11G11551   4.620   2.550  13.776 -0.2504 -0.6427 -0.3191
   8623SM  C12F11552   4.620   2.578  13.998 -0.3495  0.2432 -0.0728
   8623SM  H12F11553   4.730   2.572  14.004  0.0022  2.5831 -2.2602
   8623SM  H12G11554   4.575   2.536  14.091  2.6030  0.1801  1.4388
   8623SM  C13F11555   4.583   2.728  13.988  0.4256  0.4057 -0.9441
   8623SM  H13F11556   4.473   2.735  13.980  0.3612  1.3305  0.4046
   8623SM  H13G11557   4.622   2.763  13.890  1.5563 -0.5300 -0.8507
   8623SM  C14F11558   4.623   2.814  14.108  0.0634  0.2353 -0.6826
   8623SM  H14F11559   4.590   2.921  14.111 -1.2560 -0.1536  2.1079
   8623SM  H14G11560   4.733   2.805  14.112 -0.0024 -0.1874  0.7727
   8623SM  C15F11561   4.557   2.773  14.238 -0.3386  0.1819 -0.5357
   8623SM  H15F11562   4.590   2.670  14.263 -2.4359 -0.4026 -0.0117
   8623SM  H15G11563   4.448   2.764  14.224 -0.9603 -0.3169  3.5190
   8623SM  C16F11564   4.580   2.862  14.353 -0.5530  0.0387 -0.6262
   8623SM  H16F11565   4.495   2.934  14.352  0.0030  0.7026 -1.4265
   8623SM  H16G11566   4.682   2.905  14.347 -0.2051 -0.1149  2.4759
   8623SM  C17F11567   4.580   2.788  14.487  0.0730 -0.1385  0.0633
   8623SM  H17F11568   4.671   2.727  14.506  0.1316  0.2013  0.9028
   8623SM  H17G11569   4.493   2.719  14.490 -0.2302  0.1989 -0.7443
   8623SM  C18F11570   4.564   2.866  14.617 -0.1813  0.1181  0.3554
   8623SM  H18F11571   4.461   2.909  14.614  0.5478  2.0205  0.8246
   8623SM  H18G11572   4.644   2.941  14.635 -1.0451  0.7928  1.5054
   8623SM  C19F11573   4.572   2.769  14.735 -0.0772 -0.1245 -0.4121
   8623SM  H19F11574   4.675   2.728  14.734 -0.3477 -0.8139 -0.8661
   8623SM  H19G11575   4.509   2.679  14.719 -1.0779  0.3478  0.6952
   8623SM  C20F11576   4.539   2.836  14.871  0.3196 -0.0389  0.2092
   8623SM  H20F11577   4.429   2.852  14.881  0.4553  2.2103 -1.2535
   8623SM  H20G11578   4.580   2.938  14.882 -1.3162  0.6864 -0.1422
   8623SM  C21F11579   4.583   2.749  14.988 -0.3746  0.5075  0.2697
   8623SM  H21F11580   4.687   2.715  14.971  0.2865  1.7134  1.6442
   8623SM  H21G11581   4.519   2.661  15.008  1.4902 -0.6074  1.6913
   8623SM  C22F11582   4.581   2.832  15.117  0.1983 -0.6753 -0.1559
   8623SM  H22F11583   4.482   2.881  15.126 -0.1731 -1.2935 -0.7047
   8623SM  H22G11584   4.654   2.915  15.119 -1.1045  0.6648 -2.7926
   8623SM  C23F11585   4.613   2.744  15.230  0.2462 -0.1299 -0.0578
   8623SM  H23F11586   4.718   2.709  15.228 -0.2490 -1.6754 -0.9488
   8623SM  H23G11587   4.536   2.667  15.250 -0.6462  0.3771 -1.3593
   8623SM  H23H11588   4.592   2.808  15.318  2.0978  0.7060 -0.1715
   8723SM     N11589   4.201   2.767  12.913  0.1082  0.6957  0.0703
   8723SM   C1511590   4.108   2.779  13.034  0.1141 -0.3988  0.2679
   8723SM  H15A11591   4.169   2.800  13.120  1.3038 -0.5127 -0.5093
   8723SM  H15B11592   4.058   2.685  13.054  0.5258 -0.6410  0.1671
   8723SM  H15C11593   4.035   2.855  13.011 -1.3692 -1.2645  1.8492
   8723SM   C1411594   4.290   2.645  12.915 -0.4473  0.1614 -0.0559
   8723SM  H14A11595   4.318   2.617  12.815 -1.0488  1.9673 -0.7650
   8723SM  H14B11596   4.241   2.561  12.963 -1.7278 -0.3128 -2.0550
   8723SM  H14C11597   4.390   2.657  12.952  0.0245 -0.7972 -0.9534
   8723SM   C1311598   4.110   2.751  12.794 -0.5858  0.1575 -0.1715
   8723SM  H13A11599   4.045   2.668  12.819  1.0859 -0.6777  1.7447
   8723SM  H13B11600   4.173   2.746  12.707 -0.6871 -0.4766 -0.2103
   8723SM  H13C11601   4.060   2.846  12.779  0.6777  1.1132  1.3259
   8723SM   C1211602   4.279   2.896  12.904 -0.0864  0.4540  0.0912
   8723SM  H12A11603   4.208   2.977  12.896 -1.2670 -0.5564  0.0411
   8723SM  H12B11604   4.324   2.882  12.807 -2.9200 -1.4517 -1.0792
   8723SM   C1111605   4.379   2.920  13.027  0.4452  0.3320 -0.1146
   8723SM  H11A11606   4.314   2.924  13.117  1.6149 -1.9778  0.9143
   8723SM  H11B11607   4.413   3.024  13.009 -1.0596  0.9848  0.6293
   8723SM     P11608   4.611   2.846  12.959 -0.2226  0.2534 -0.6844
   8723SM   O1311609   4.694   2.725  12.969 -0.3299  0.2417 -0.4620
   8723SM   O1411610   4.577   2.885  12.820  0.0403  0.1919  0.4315
   8723SM   O1111611   4.677   2.966  13.042  0.4264  0.0904 -0.4436
   8723SM   O1211612   4.478   2.815  13.042  0.6527 -0.1407  0.6747
   8723SM   C1S11613   4.689   2.948  13.187  0.0510 -0.4299  0.0385
   8723SM   H1S11614   4.634   2.856  13.216 -3.7326  1.4705 -0.4468
   8723SM   H1T11615   4.637   3.031  13.240  1.2110  1.0235 -1.0307
   8723SM    NF11616   4.849   2.947  13.374  0.5185 -0.8237 -0.4431
   8723SM   HNF11617   4.883   3.027  13.421 -0.7339 -0.0038 -0.8685
   8723SM   C2S11618   4.840   2.949  13.229  0.5991 -0.2819 -0.3594
   8723SM   H2S11619   4.886   2.851  13.202 -0.1684  0.4516 -5.3833
   8723SM   C3S11620   4.923   3.064  13.164 -0.3345  0.1346  0.4607
   8723SM   H3S11621   4.872   3.161  13.186 -3.1597 -0.3102 -3.1077
   8723SM    O311622   4.931   3.053  13.020  0.3959 -0.2934  0.6935
   8723SM   HO311623   4.856   2.996  13.001  0.1481  0.0506  0.6505
   8723SM   C4S11624   5.061   3.057  13.220  0.4059 -0.5730  0.4765
   8723SM   H4S11625   5.099   3.150  13.266 -0.3584  0.5211 -1.0426
   8723SM   C5S11626   5.147   2.951  13.201 -0.1500  0.4318  0.2847
   8723SM   H5S11627   5.121   2.863  13.139 -0.1017  1.2558 -0.9325
   8723SM   C6S11628   5.286   2.930  13.254  0.0742 -0.5669  0.5227
   8723SM   H6S11629   5.354   3.018  13.252  0.5331 -0.9129 -1.4920
   8723SM   H6T11630   5.338   2.876  13.172  0.0570 -1.7200  1.2407
   8723SM   C7S11631   5.308   2.851  13.383 -0.7943 -0.2457  0.7452
   8723SM   H7S11632   5.241   2.762  13.386 -2.1850  0.7737  1.4962
   8723SM   H7T11633   5.263   2.910  13.466 -2.2108  0.5793 -0.5341
   8723SM   C8S11634   5.457   2.819  13.408  0.5644 -0.5234 -0.0884
   8723SM   H8S11635   5.512   2.914  13.425  1.4275 -1.2839  1.7152
   8723SM   H8T11636   5.503   2.763  13.324  0.8198  0.7591 -0.8293
   8723SM   C9S11637   5.466   2.753  13.542 -0.4683  0.2201 -0.8348
   8723SM   H9S11638   5.404   2.663  13.522  1.7654 -1.2475 -1.5020
   8723SM   H9T11639   5.414   2.804  13.627 -0.4767 -1.4881  0.2361
   8723SM  C10S11640   5.605   2.702  13.571 -0.3999  0.0744  0.0005
   8723SM  H10S11641   5.678   2.775  13.529 -1.7988  1.9413  0.6572
   8723SM  H10T11642   5.623   2.603  13.523  2.8413  1.1641 -1.3449
   8723SM  C11S11643   5.637   2.689  13.719 -0.2439 -0.5396  0.8262
   8723SM  H11S11644   5.632   2.794  13.755  1.2517 -0.2754  0.3509
   8723SM  H11T11645   5.739   2.645  13.730 -0.0948 -0.9758 -1.6768
   8723SM  C12S11646   5.539   2.615  13.808 -0.0769 -0.3124 -0.1972
   8723SM  H12S11647   5.521   2.511  13.772 -1.3679 -0.7070  1.4346
   8723SM  H12T11648   5.439   2.664  13.813  0.4887  0.9711 -1.0686
   8723SM  C13S11649   5.583   2.604  13.954 -0.4783  0.7254 -0.1177
   8723SM  H13S11650   5.597   2.703  14.002 -0.3767  0.9737 -0.6641
   8723SM  H13T11651   5.685   2.560  13.958 -1.1192 -1.0319 -1.5010
   8723SM  C14S11652   5.492   2.506  14.035 -1.6313 -0.3602  0.4261
   8723SM  H14S11653   5.502   2.407  13.985 -0.5625  0.2249 -0.5641
   8723SM  H14T11654   5.386   2.538  14.025 -1.9846 -1.3631  0.8256
   8723SM  C15S11655   5.527   2.498  14.182 -0.2319  0.0726  0.4941
   8723SM  H15S11656   5.638   2.492  14.189 -0.2379  0.7585  1.1411
   8723SM  H15T11657   5.481   2.407  14.227 -0.3304 -0.3234 -0.3756
   8723SM  C16S11658   5.466   2.619  14.262 -0.8296  0.8903  0.1199
   8723SM  H16S11659   5.355   2.613  14.254 -1.1240  1.0108  2.8890
   8723SM  H16T11660   5.490   2.714  14.211  0.3507  2.3624  3.1792
   8723SM  C17S11661   5.510   2.636  14.408  0.1253  0.6962  0.1355
   8723SM  H17S11662   5.460   2.731  14.437 -1.0294  0.4537 -0.9662
   8723SM  H17T11663   5.618   2.661  14.407  0.3479 -0.1928 -1.7278
   8723SM  C18S11664   5.477   2.521  14.499  0.4466  0.3742  0.1392
   8723SM  H18S11665   5.522   2.426  14.464 -0.4600  0.2369 -0.7020
   8723SM  H18T11666   5.366   2.512  14.503  0.4598 -0.0077 -0.3286
   8723SM  H18U11667   5.503   2.536  14.606 -1.0484 -1.7023  0.8676
   8723SM   C1F11668   4.801   2.844  13.441  0.1432  0.2254 -0.1531
   8723SM    OF11669   4.774   2.734  13.383 -0.1529 -0.3937 -0.0313
   8723SM   C2F11670   4.792   2.860  13.587 -0.4345  0.3111 -0.4519
   8723SM   H2F11671   4.686   2.838  13.609  0.2926 -0.4355  2.8266
   8723SM   H2G11672   4.808   2.965  13.622 -1.5527  0.5503 -0.6130
   8723SM   C3F11673   4.875   2.757  13.661 -0.6179  0.4703 -0.1615
   8723SM   H3F11674   4.855   2.651  13.637 -0.3926  0.4509 -0.2558
   8723SM   H3G11675   4.855   2.748  13.770  1.3386 -1.9160  0.0772
   8723SM   C4F11676   5.031   2.759  13.644 -0.2650 -0.5386 -0.6710
   8723SM   H4F11677   5.059   2.745  13.537  0.4439  3.2148 -1.1214
   8723SM   H4G11678   5.074   2.676  13.703 -1.3934  0.2350  1.3135
   8723SM   C5F11679   5.108   2.889  13.703 -0.0352  0.2438 -0.3311
   8723SM   H5F11680   5.065   2.974  13.646 -0.7014 -1.0665 -1.8705
   8723SM   H5G11681   5.219   2.881  13.697 -0.0981 -0.1937 -1.1192
   8723SM   C6F11682   5.085   2.897  13.861 -0.2874  0.6540 -0.3861
   8723SM   H6F11683   5.179   2.932  13.909  0.2354 -0.8660 -0.2753
   8723SM   H6G11684   5.050   2.802  13.906  0.2696 -0.6209 -2.5133
   8723SM   C7F11685   4.968   2.994  13.896 -0.6293 -0.0363  0.4360
   8723SM   H7F11686   4.871   2.945  13.875 -0.6938 -0.1838  1.0764
   8723SM   H7G11687   4.967   3.073  13.817 -1.3413 -0.4481  0.0237
   8723SM   C8F11688   4.978   3.058  14.036  0.7729 -0.7688  0.0449
   8723SM   H8F11689   5.062   3.129  14.043 -0.5101  1.1990 -2.7712
   8723SM   H8G11690   4.988   2.973  14.108  1.3715 -1.4356 -0.8144
   8723SM   C9F11691   4.846   3.137  14.066 -0.5333  0.3439 -0.3262
   8723SM   H9F11692   4.759   3.072  14.043  0.4679 -0.7777 -1.0882
   8723SM   H9G11693   4.855   3.228  14.004  1.3775  0.1749 -0.3494
   8723SM  C10F11694   4.843   3.177  14.214 -0.5262  0.3205 -0.3752
   8723SM  H10F11695   4.937   3.232  14.236 -0.6139 -0.0997  1.1678
   8723SM  H10G11696   4.841   3.084  14.275 -0.6387 -0.0518 -0.9379
   8723SM  C11F11697   4.731   3.267  14.256  0.2116 -1.0536 -0.2488
   8723SM  H11F11698   4.638   3.209  14.239 -0.0779 -1.3823  2.1538
   8723SM  H11G11699   4.741   3.354  14.188 -0.4041 -1.4101 -0.8024
   8723SM  C12F11700   4.736   3.312  14.400 -0.3794  0.0211  0.1907
   8723SM  H12F11701   4.836   3.359  14.409 -0.1025 -0.9077  2.4893
   8723SM  H12G11702   4.747   3.229  14.473 -0.1071  1.8772  2.3556
   8723SM  C13F11703   4.622   3.394  14.450 -0.1382 -0.7756  0.3350
   8723SM  H13F11704   4.532   3.342  14.410  0.9047 -2.1802 -0.2787
   8723SM  H13G11705   4.635   3.499  14.415  0.4255 -0.4363  1.5082
   8723SM  C14F11706   4.607   3.407  14.605  0.0513 -0.4130  0.0199
   8723SM  H14F11707   4.696   3.459  14.646  1.2065 -2.8015  0.7424
   8723SM  H14G11708   4.607   3.301  14.639 -0.8276 -1.0068 -1.7111
   8723SM  C15F11709   4.483   3.484  14.644  0.2335 -0.1620  0.4479
   8723SM  H15F11710   4.393   3.432  14.604 -0.0379  0.8917 -0.3446
   8723SM  H15G11711   4.496   3.590  14.613  1.7638  0.9127  4.1495
   8723SM  C16F11712   4.454   3.493  14.799 -0.1614  0.5032  0.0595
   8723SM  H16F11713   4.535   3.544  14.857  1.2645 -1.5485 -0.0124
   8723SM  H16G11714   4.461   3.387  14.832  1.9162  0.7289  0.4929
   8723SM  C17F11715   4.317   3.549  14.825  0.1060  0.0936 -0.1477
   8723SM  H17F11716   4.244   3.494  14.762 -1.3883  1.4587  0.3193
   8723SM  H17G11717   4.316   3.653  14.785  2.6807  0.3251  0.2054
   8723SM  C18F11718   4.283   3.549  14.979 -0.3256 -0.5627 -0.4890
   8723SM  H18F11719   4.312   3.456  15.032  1.5950  0.2836  0.0391
   8723SM  H18G11720   4.172   3.547  14.987 -0.2789 -2.0726  0.0773
   8723SM  C19F11721   4.335   3.671  15.058  0.2487  0.3849 -0.0451
   8723SM  H19F11722   4.307   3.756  14.991 -2.1509 -0.0376  0.3066
   8723SM  H19G11723   4.445   3.659  15.055  0.0511 -1.8381 -0.4780
   8723SM  C20F11724   4.284   3.676  15.200 -0.4104  0.5285  0.5830
   8723SM  H20F11725   4.321   3.595  15.266 -0.0593 -1.8544 -2.3460
   8723SM  H20G11726   4.177   3.646  15.198  0.2114 -1.9457 -2.0431
   8723SM  C21F11727   4.293   3.815  15.261 -0.2339 -0.3241  0.4212
   8723SM  H21F11728   4.232   3.887  15.202  0.1839 -0.0149  0.3615
   8723SM  H21G11729   4.397   3.854  15.263  0.2974 -1.6310 -0.0439
   8723SM  C22F11730   4.245   3.811  15.411 -0.0451 -0.6560  0.3758
   8723SM  H22F11731   4.265   3.912  15.454 -0.2392 -0.8019  0.8125
   8723SM  H22G11732   4.306   3.748  15.479  1.5502  0.2295 -0.1709
   8723SM  C23F11733   4.094   3.789  15.426 -0.3363 -0.5731  0.0801
   8723SM  H23F11734   4.042   3.866  15.365 -0.7843 -1.1774 -0.3090
   8723SM  H23G11735   4.065   3.809  15.532  1.3669  0.9772  0.2987
   8723SM  H23H11736   4.071   3.688  15.386  0.2813 -0.2869 -1.0369
   8823SM     N11737   1.526   2.768  12.457 -0.1393  0.1324  0.7588
   8823SM   C1511738   1.501   2.655  12.357 -0.0348 -0.1759  0.5978
   8823SM  H15A11739   1.583   2.587  12.347  1.1889  1.4820 -1.5996
   8823SM  H15B11740   1.494   2.701  12.259 -1.2380 -1.5735 -0.0120
   8823SM  H15C11741   1.409   2.601  12.375 -0.6160  0.1412 -1.1732
   8823SM   C1411742   1.406   2.856  12.447  0.0151 -0.2277 -0.0794
   8823SM  H14A11743   1.317   2.800  12.473  0.1727 -0.3329  0.2386
   8823SM  H14B11744   1.392   2.891  12.346 -1.6515 -1.5359 -0.3514
   8823SM  H14C11745   1.423   2.940  12.512  0.9527 -1.0305  0.7439
   8823SM   C1311746   1.541   2.708  12.594  0.6175 -0.1604 -0.7577
   8823SM  H13A11747   1.611   2.626  12.601  0.2320 -0.8369 -3.5373
   8823SM  H13B11748   1.447   2.660  12.616  1.1987 -0.8219  0.3565
   8823SM  H13C11749   1.562   2.779  12.672 -0.2481 -1.5479  0.8172
   8823SM   C1211750   1.650   2.845  12.411  0.6606  0.5629 -0.0307
   8823SM  H12A11751   1.641   2.869  12.306 -3.0788 -1.9916 -0.4878
   8823SM  H12B11752   1.737   2.781  12.424  0.1109 -0.4742 -1.2999
   8823SM   C1111753   1.671   2.973  12.494  0.1722  0.9480 -0.0249
   8823SM  H11A11754   1.582   3.038  12.481 -1.8347 -1.4423  0.9643
   8823SM  H11B11755   1.754   3.032  12.450  1.6522 -2.2197 -1.7942
   8823SM     P11756   1.836   2.895  12.686  0.5078  0.0641  0.3733
   8823SM   O1311757   1.883   2.783  12.598 -0.2358  0.0815 -0.1379
   8823SM   O1411758   1.934   3.005  12.696  0.5306  0.1083  0.2054
   8823SM   O1111759   1.792   2.847  12.828 -0.5875 -0.3143 -0.8954
   8823SM   O1211760   1.695   2.943  12.637 -0.0207  0.7828  0.4778
   8823SM   C1S11761   1.902   2.800  12.920 -0.1097  0.5669  0.4404
   8823SM   H1S11762   2.001   2.783  12.873  0.7380  0.2052  2.2605
   8823SM   H1T11763   1.867   2.706  12.968 -1.3078  1.6717  1.8394
   8823SM    NF11764   2.013   2.840  13.142  0.5968 -0.0775 -0.4854
   8823SM   HNF11765   1.977   2.776  13.210 -1.1074  0.2125 -1.0626
   8823SM   C2S11766   1.909   2.885  13.051  0.0313 -0.4190  0.0901
   8823SM   H2S11767   1.927   2.991  13.022 -2.4579  0.5822  1.8414
   8823SM   C3S11768   1.773   2.898  13.115 -0.1963 -0.2292  0.1084
   8823SM   H3S11769   1.750   2.798  13.157 -2.3669  0.4386  0.6860
   8823SM    O311770   1.663   2.935  13.042  0.3910  0.1038 -0.5731
   8823SM   HO311771   1.686   2.932  12.949 -1.7921  1.6344 -1.2488
   8823SM   C4S11772   1.777   2.988  13.238 -0.1371 -0.4558  0.2460
   8823SM   H4S11773   1.803   2.950  13.338 -1.3208  0.8833  1.1026
   8823SM   C5S11774   1.745   3.117  13.244 -0.2569 -0.5469 -0.2037
   8823SM   H5S11775   1.700   3.164  13.155 -2.1673  2.4363  2.1331
   8823SM   C6S11776   1.739   3.210  13.371 -0.2908  0.2133  0.8564
   8823SM   H6S11777   1.642   3.265  13.372  0.2618  1.2310  0.3591
   8823SM   H6T11778   1.824   3.280  13.360 -0.9725  0.8771 -0.5454
   8823SM   C7S11779   1.737   3.140  13.505 -0.5272  0.4467  0.4614
   8823SM   H7S11780   1.837   3.100  13.535 -0.1808 -0.7080 -2.0003
   8823SM   H7T11781   1.671   3.050  13.501  0.3530 -0.2036 -0.0168
   8823SM   C8S11782   1.690   3.230  13.619 -0.4030  0.3767 -0.6429
   8823SM   H8S11783   1.580   3.235  13.611 -0.5113  2.0825  1.2909
   8823SM   H8T11784   1.733   3.331  13.609  1.7645 -0.6228 -2.3583
   8823SM   C9S11785   1.722   3.176  13.759  0.6709 -0.0972  1.2560
   8823SM   H9S11786   1.675   3.076  13.771 -0.0220  0.0121 -0.2572
   8823SM   H9T11787   1.666   3.243  13.828  0.3816  0.3383  0.6098
   8823SM  C10S11788   1.871   3.190  13.811  0.3850 -0.4069 -0.4167
   8823SM  H10S11789   1.925   3.252  13.737 -0.2995  0.9065  0.1583
   8823SM  H10T11790   1.902   3.083  13.814  0.8243 -0.2670  1.5094
   8823SM  C11S11791   1.881   3.256  13.953  1.0061 -0.5742 -0.0472
   8823SM  H11S11792   1.790   3.221  14.007 -1.7050  0.8747 -3.3322
   8823SM  H11T11793   1.877   3.366  13.944 -0.2666 -0.6818 -1.0740
   8823SM  C12S11794   2.000   3.214  14.037 -0.5620 -0.3281  0.1952
   8823SM  H12S11795   2.092   3.245  13.983 -2.1202  2.6338 -1.0001
   8823SM  H12T11796   1.992   3.104  14.050  2.0944 -0.5676  0.4230
   8823SM  C13S11797   1.999   3.273  14.180 -0.0890  0.3893  0.6230
   8823SM  H13S11798   1.913   3.235  14.240  0.1201  0.8454  1.2248
   8823SM  H13T11799   1.997   3.384  14.173  0.3089  0.3193 -0.9071
   8823SM  C14S11800   2.118   3.224  14.253 -0.3657 -0.0734  0.4561
   8823SM  H14S11801   2.212   3.255  14.202  0.1736 -1.8137  0.3315
   8823SM  H14T11802   2.122   3.114  14.264 -0.0863  0.0224  1.4795
   8823SM  C15S11803   2.136   3.286  14.391  0.6623  0.5039 -0.0216
   8823SM  H15S11804   2.035   3.315  14.426  0.0532  0.1395 -1.4065
   8823SM  H15T11805   2.188   3.383  14.377  0.3878  1.1265  2.6786
   8823SM  C16S11806   2.217   3.197  14.488  0.8689 -0.1538  0.3153
   8823SM  H16S11807   2.320   3.182  14.449  0.8032  1.2858 -0.4583
   8823SM  H16T11808   2.159   3.102  14.481 -1.1050  1.0364 -0.2789
   8823SM  C17S11809   2.217   3.260  14.634 -0.5116 -0.2165  0.7837
   8823SM  H17S11810   2.246   3.367  14.628  2.5566 -0.9146  1.3125
   8823SM  H17T11811   2.302   3.209  14.683 -1.7758 -2.4478  0.7735
   8823SM  C18S11812   2.083   3.253  14.713 -0.4954  0.8340  0.1228
   8823SM  H18S11813   1.997   3.304  14.665  0.0884 -0.2273 -2.1446
   8823SM  H18T11814   2.097   3.283  14.819 -2.0594  0.8158  0.3669
   8823SM  H18U11815   2.044   3.149  14.720  0.6096  0.3865 -0.2463
   8823SM   C1F11816   2.139   2.874  13.119  0.4608 -0.4364 -0.0679
   8823SM    OF11817   2.173   2.946  13.027  0.5444 -0.2892 -0.1233
   8823SM   C2F11818   2.236   2.820  13.216  0.0136  0.5083 -0.3289
   8823SM   H2F11819   2.332   2.830  13.162  0.4046  2.2060  0.6206
   8823SM   H2G11820   2.209   2.716  13.244 -1.1302  1.2724  1.5981
   8823SM   C3F11821   2.249   2.915  13.337  0.5288 -0.6008  0.1131
   8823SM   H3F11822   2.149   2.928  13.383  0.4209  0.6948 -0.4306
   8823SM   H3G11823   2.281   3.019  13.317  1.5920 -0.6666  1.3754
   8823SM   C4F11824   2.353   2.861  13.445  0.0473 -0.3214 -0.2647
   8823SM   H4F11825   2.382   2.942  13.516 -2.0198  0.0458  0.2297
   8823SM   H4G11826   2.442   2.840  13.382  0.6337  0.6725  0.1989
   8823SM   C5F11827   2.285   2.740  13.521  0.3422  0.4143 -0.4531
   8823SM   H5F11828   2.256   2.655  13.456  1.5263 -1.1701  1.0094
   8823SM   H5G11829   2.191   2.783  13.561  0.6036  0.0464  0.5901
   8823SM   C6F11830   2.376   2.678  13.633 -0.0169 -0.0163  0.2427
   8823SM   H6F11831   2.314   2.627  13.710 -3.2496 -1.0946 -2.7952
   8823SM   H6G11832   2.444   2.752  13.679  0.8671 -0.8731  0.3407
   8823SM   C7F11833   2.467   2.569  13.579 -0.8538  0.9371 -0.6456
   8823SM   H7F11834   2.546   2.608  13.512  0.0683 -0.4541 -0.4204
   8823SM   H7G11835   2.412   2.489  13.525  1.5994  0.2031 -2.2175
   8823SM   C8F11836   2.541   2.487  13.692  0.6519 -0.1722  0.1690
   8823SM   H8F11837   2.591   2.411  13.629 -0.0233 -0.5313  0.0610
   8823SM   H8G11838   2.465   2.433  13.754  1.7043  1.3412  2.9932
   8823SM   C9F11839   2.645   2.562  13.776 -0.2235  0.3954  0.4692
   8823SM   H9F11840   2.590   2.655  13.802  0.2759  1.1004 -0.9498
   8823SM   H9G11841   2.730   2.586  13.709 -1.3085  1.4357 -0.5876
   8823SM  C10F11842   2.692   2.468  13.900 -0.0940 -0.6247  1.0141
   8823SM  H10F11843   2.800   2.493  13.906  0.0946 -1.5192  1.5592
   8823SM  H10G11844   2.703   2.363  13.866 -0.7059 -0.2776 -0.3313
   8823SM  C11F11845   2.605   2.483  14.022 -0.6102  0.1969 -0.2560
   8823SM  H11F11846   2.538   2.394  14.022  2.5259 -2.3336  0.5102
   8823SM  H11G11847   2.551   2.580  14.010 -1.9215 -0.5136 -0.2562
   8823SM  C12F11848   2.679   2.464  14.159 -0.7186  0.2537 -0.0866
   8823SM  H12F11849   2.760   2.540  14.163  0.1605 -0.6882  2.6469
   8823SM  H12G11850   2.713   2.359  14.159 -0.1589  0.4307 -0.3366
   8823SM  C13F11851   2.597   2.489  14.290  0.5165 -0.0118 -0.2076
   8823SM  H13F11852   2.526   2.409  14.322  1.2610 -0.7136 -0.2665
   8823SM  H13G11853   2.538   2.582  14.276  1.7653  0.8056 -0.1669
   8823SM  C14F11854   2.689   2.528  14.413 -0.3914 -0.3884  0.6196
   8823SM  H14F11855   2.705   2.638  14.408 -0.6802 -0.2955  1.5338
   8823SM  H14G11856   2.790   2.481  14.409 -0.0075  0.4280  0.5816
   8823SM  C15F11857   2.615   2.515  14.560 -0.4589  0.5057  0.2797
   8823SM  H15F11858   2.582   2.409  14.571 -0.1702  0.5336  1.5712
   8823SM  H15G11859   2.525   2.580  14.562 -0.7984  0.1257 -1.2828
   8823SM  C16F11860   2.698   2.571  14.683 -0.1164  0.4328  0.5993
   8823SM  H16F11861   2.738   2.667  14.647 -0.5524  0.6380  0.6538
   8823SM  H16G11862   2.781   2.508  14.720 -0.3031 -0.0314  0.2379
   8823SM  C17F11863   2.593   2.610  14.787  0.0824 -0.2245 -0.2900
   8823SM  H17F11864   2.543   2.518  14.824  0.8685 -0.1821  0.9082
   8823SM  H17G11865   2.514   2.681  14.752  0.6361  0.2119 -0.6690
   8823SM  C18F11866   2.661   2.674  14.912 -0.7809  1.0110 -0.1615
   8823SM  H18F11867   2.694   2.779  14.897  0.5623  0.6129 -0.1479
   8823SM  H18G11868   2.757   2.623  14.935 -1.2548  0.9499  1.9505
   8823SM  C19F11869   2.570   2.668  15.039 -0.0172 -0.4290 -0.4218
   8823SM  H19F11870   2.541   2.562  15.054  2.6790 -1.0696  1.0153
   8823SM  H19G11871   2.471   2.712  15.016 -0.9938 -1.7333  1.0648
   8823SM  C20F11872   2.633   2.712  15.171 -0.4052  0.3060 -0.5793
   8823SM  H20F11873   2.687   2.809  15.165  2.6732 -1.2576 -0.2722
   8823SM  H20G11874   2.706   2.635  15.205 -1.0799 -0.0007  0.2159
   8823SM  C21F11875   2.528   2.716  15.276 -0.2141  0.6505  0.4811
   8823SM  H21F11876   2.578   2.714  15.376  0.4153 -1.1941  0.1671
   8823SM  H21G11877   2.471   2.621  15.269 -0.2561  0.6718  0.5285
   8823SM  C22F11878   2.431   2.835  15.266  0.4494 -0.3452 -0.5889
   8823SM  H22F11879   2.367   2.827  15.176 -0.9968  2.6587  0.0249
   8823SM  H22G11880   2.481   2.934  15.253  1.7602 -1.1824 -2.2894
   8823SM  C23F11881   2.330   2.852  15.380 -0.7372 -0.0994  0.1853
   8823SM  H23F11882   2.267   2.761  15.395 -0.4281 -0.3795 -0.2071
   8823SM  H23G11883   2.265   2.941  15.369 -0.1439  0.1133 -1.8247
   8823SM  H23H11884   2.393   2.868  15.470  0.2305 -0.2282 -0.4578
   8923SM     N11885   6.289   3.411  12.650  0.7157  0.4285 -0.4045
   8923SM   C1511886   6.378   3.508  12.580  0.3658  0.5128 -0.0831
   8923SM  H15A11887   6.372   3.603  12.630 -0.1191  0.2789  0.3202
   8923SM  H15B11888   6.353   3.522  12.476  1.0731  1.1399 -0.1739
   8923SM  H15C11889   6.483   3.487  12.595  0.0889 -0.0316  1.2498
   8923SM   C1411890   6.147   3.458  12.619 -0.1169  0.0102  0.3970
   8923SM  H14A11891   6.121   3.558  12.650 -3.4283 -0.3601 -0.8563
   8923SM  H14B11892   6.079   3.386  12.662  0.4964 -1.4176 -0.9414
   8923SM  H14C11893   6.133   3.453  12.512 -0.5374  1.7391  0.3376
   8923SM   C1311894   6.302   3.265  12.604 -0.1795 -0.2458  0.6303
   8923SM  H13A11895   6.286   3.259  12.498  1.5320  0.9388  0.2583
   8923SM  H13B11896   6.235   3.202  12.661  0.0678 -1.8554 -0.7992
   8923SM  H13C11897   6.406   3.241  12.622  0.0299 -0.6964 -1.0423
   8923SM   C1211898   6.307   3.424  12.797  0.2602 -0.2600 -0.0677
   8923SM  H12A11899   6.276   3.335  12.849  4.0165 -0.5999  1.9221
   8923SM  H12B11900   6.245   3.506  12.829  0.3890 -0.2763  0.2280
   8923SM   C1111901   6.450   3.452  12.844  0.0816 -0.1795 -0.1371
   8923SM  H11A11902   6.454   3.459  12.955  1.4664  0.7908 -0.2196
   8923SM  H11B11903   6.482   3.555  12.817 -2.4500  0.9532  0.8692
   8923SM     P11904   6.558   3.204  12.854 -0.2689  0.6823  0.4979
   8923SM   O1311905   6.569   3.101  12.746  0.2772  0.2298  0.3041
   8923SM   O1411906   6.671   3.216  12.946 -0.9227 -0.5191 -0.1810
   8923SM   O1111907   6.417   3.190  12.923 -0.3955 -0.3974 -0.2404
   8923SM   O1211908   6.543   3.357  12.791 -0.2479 -0.0440  0.0987
   8923SM   C1S11909   6.388   3.070  12.988 -0.9822  0.2391 -0.0834
   8923SM   H1S11910   6.454   2.983  12.966  0.3816  0.9040  1.1616
   8923SM   H1T11911   6.282   3.049  12.962 -0.8507  0.4812 -0.8347
   8923SM    NF11912   6.385   2.959  13.208  0.2610 -0.0249 -0.1528
   8923SM   HNF11913   6.318   2.954  13.281  0.9249 -0.4988  0.4408
   8923SM   C2S11914   6.407   3.083  13.140 -0.1356  0.0392 -0.6486
   8923SM   H2S11915   6.512   3.111  13.165  0.2258 -0.5122 -1.4990
   8923SM   C3S11916   6.321   3.201  13.195  0.1416  0.3963 -0.2530
   8923SM   H3S11917   6.216   3.185  13.163  0.3196  1.8125 -1.6630
   8923SM    O311918   6.354   3.335  13.163 -0.0815  0.3382  0.1165
   8923SM   HO311919   6.418   3.325  13.093 -0.9679  1.4373 -0.8802
   8923SM   C4S11920   6.314   3.202  13.343  0.6509  0.2965 -0.1530
   8923SM   H4S11921   6.411   3.185  13.392  0.5497  0.6197  0.1593
   8923SM   C5S11922   6.200   3.211  13.414 -0.3155 -0.4194 -0.3861
   8923SM   H5S11923   6.102   3.218  13.366 -0.8694  0.9925  0.8568
   8923SM   C6S11924   6.184   3.195  13.565  0.0844 -0.3413 -0.1677
   8923SM   H6S11925   6.124   3.105  13.589  0.1392 -0.6328 -1.1091
   8923SM   H6T11926   6.141   3.285  13.614  3.0503  1.8770 -1.3480
   8923SM   C7S11927   6.319   3.163  13.642  0.1892  0.1194  0.2624
   8923SM   H7S11928   6.395   3.243  13.646 -0.6706  0.9198  1.3442
   8923SM   H7T11929   6.361   3.068  13.604  0.8924  1.1646 -1.7109
   8923SM   C8S11930   6.276   3.140  13.785  0.3142 -0.4731 -0.0306
   8923SM   H8S11931   6.205   3.054  13.790  0.8033 -0.8674  0.2545
   8923SM   H8T11932   6.227   3.234  13.817  1.4071  0.0811  0.0626
   8923SM   C9S11933   6.386   3.109  13.887  0.0930  0.5197  0.1766
   8923SM   H9S11934   6.453   3.193  13.914  1.3764 -0.2164 -0.6095
   8923SM   H9T11935   6.440   3.031  13.829 -1.8014 -1.6509  1.1445
   8923SM  C10S11936   6.339   3.029  14.009 -0.8739 -0.2368 -0.2352
   8923SM  H10S11937   6.290   2.934  13.981  0.7787 -1.9713  2.3844
   8923SM  H10T11938   6.270   3.094  14.068  1.6890  1.1208  1.4391
   8923SM  C11S11939   6.463   2.989  14.100  0.1459 -0.0628  0.7338
   8923SM  H11S11940   6.521   3.076  14.138  1.1439 -0.8267  1.0146
   8923SM  H11T11941   6.533   2.919  14.049  0.4833  1.4185 -0.9245
   8923SM  C12S11942   6.406   2.933  14.229  1.0335 -0.5618  0.2569
   8923SM  H12S11943   6.326   2.864  14.195 -0.6273  0.7607  1.3001
   8923SM  H12T11944   6.356   3.024  14.268 -0.2403 -0.8512 -0.6348
   8923SM  C13S11945   6.507   2.872  14.320  0.1727 -0.2914 -0.2885
   8923SM  H13S11946   6.539   2.776  14.274  0.1620 -0.0628 -0.7830
   8923SM  H13T11947   6.456   2.848  14.415  0.9754  0.4045  0.3311
   8923SM  C14S11948   6.629   2.961  14.340 -0.9179 -0.3075 -0.3296
   8923SM  H14S11949   6.601   3.063  14.371  0.5073 -0.4392  1.5815
   8923SM  H14T11950   6.677   2.974  14.240  1.0969  2.6277  0.8806
   8923SM  C15S11951   6.741   2.890  14.424 -0.0595  0.0364  0.1818
   8923SM  H15S11952   6.804   2.820  14.366  2.7548  0.8209  2.0901
   8923SM  H15T11953   6.683   2.825  14.493 -0.8858  1.1041  0.5224
   8923SM  C16S11954   6.835   2.984  14.504  0.1162 -0.4362  0.2459
   8923SM  H16S11955   6.776   3.059  14.561  0.7384  2.6020 -2.8004
   8923SM  H16T11956   6.901   3.042  14.436  0.4218  0.0924  0.9751
   8923SM  C17S11957   6.924   2.917  14.610 -0.5693  0.3237 -0.0013
   8923SM  H17S11958   6.984   2.834  14.569  0.2963  0.2534  1.3398
   8923SM  H17T11959   6.863   2.861  14.684  3.1643 -0.7519  2.5572
   8923SM  C18S11960   7.015   3.024  14.668 -0.0846  0.3609  0.1047
   8923SM  H18S11961   7.100   2.982  14.725 -0.8948 -1.8532 -0.2178
   8923SM  H18T11962   6.961   3.087  14.741 -1.2971 -0.0110 -0.4419
   8923SM  H18U11963   7.046   3.093  14.587 -0.8622  0.0106 -0.5053
   8923SM   C1F11964   6.465   2.851  13.212  0.1708  0.3754  0.2704
   8923SM    OF11965   6.562   2.852  13.141 -0.8841  0.3599  0.0558
   8923SM   C2F11966   6.433   2.733  13.298 -0.2210  0.5266  0.7543
   8923SM   H2F11967   6.481   2.641  13.258  0.4874  0.5890  1.4288
   8923SM   H2G11968   6.322   2.722  13.298 -0.0095 -2.8648  0.1358
   8923SM   C3F11969   6.490   2.760  13.442 -0.1736 -0.8481  0.6097
   8923SM   H3F11970   6.424   2.829  13.499 -2.2555 -4.3297  2.8242
   8923SM   H3G11971   6.589   2.810  13.432 -0.4948 -0.0498  1.2947
   8923SM   C4F11972   6.509   2.633  13.529 -0.1717 -0.5916 -0.2167
   8923SM   H4F11973   6.584   2.565  13.482  0.9318 -1.5204  2.6498
   8923SM   H4G11974   6.415   2.575  13.534  0.0742 -1.0055 -0.3057
   8923SM   C5F11975   6.561   2.674  13.663 -0.1061  0.1042  0.0059
   8923SM   H5F11976   6.489   2.748  13.702  0.1956  0.8355 -0.7865
   8923SM   H5G11977   6.650   2.738  13.642  0.7015 -0.2832  1.9516
   8923SM   C6F11978   6.599   2.563  13.763 -0.1517 -0.0236 -0.0599
   8923SM   H6F11979   6.683   2.507  13.717 -1.3453 -2.3637  0.4720
   8923SM   H6G11980   6.513   2.500  13.791 -2.4262  4.0578  3.3665
   8923SM   C7F11981   6.663   2.614  13.900  0.2554  0.4578  0.5534
   8923SM   H7F11982   6.588   2.675  13.955 -0.4426  0.9920 -0.9114
   8923SM   H7G11983   6.753   2.674  13.873 -1.0532  2.9976  1.4531
   8923SM   C8F11984   6.705   2.492  13.985  0.0086  0.0814  0.9226
   8923SM   H8F11985   6.791   2.442  13.935 -0.7311 -0.2421 -0.0479
   8923SM   H8G11986   6.627   2.413  13.993 -0.1973 -0.1393 -2.1966
   8923SM   C9F11987   6.737   2.528  14.130 -0.2049  0.6810  0.6824
   8923SM   H9F11988   6.655   2.501  14.200  0.4933  2.1205  2.1125
   8923SM   H9G11989   6.745   2.638  14.146  2.9337  0.5548  0.7550
   8923SM  C10F11990   6.864   2.472  14.191  0.4198  0.6309 -0.1087
   8923SM  H10F11991   6.945   2.516  14.130 -0.9700  1.9199 -1.0892
   8923SM  H10G11992   6.869   2.362  14.175  1.6867  0.4283  1.3867
   8923SM  C11F11993   6.875   2.488  14.348 -0.9377 -0.0380  0.2229
   8923SM  H11F11994   6.800   2.424  14.398  0.9353 -1.8865  0.8217
   8923SM  H11G11995   6.864   2.597  14.369  1.1171  0.6161 -1.6253
   8923SM  C12F11996   7.009   2.441  14.412 -0.0040  0.4699 -0.2750
   8923SM  H12F11997   7.092   2.509  14.383  0.5149  0.3372  0.8450
   8923SM  H12G11998   7.037   2.338  14.379  0.6268 -0.1427  2.0159
   8923SM  C13F11999   6.996   2.426  14.564  0.3924  0.1315 -0.7520
   8923SM  H13F12000   6.962   2.524  14.603  0.7285  0.1287 -0.4484
   8923SM  H13G12001   7.100   2.415  14.603 -0.4714  1.7632  2.2844
   8923SM  C14F12002   6.899   2.318  14.610 -0.0854 -0.6235 -0.7207
   8923SM  H14F12003   6.939   2.222  14.570 -0.7684 -1.3280  0.2159
   8923SM  H14G12004   6.792   2.334  14.581 -0.2822 -0.4999  0.0620
   8923SM  C15F12005   6.893   2.276  14.757  0.2253 -0.0622  0.1005
   8923SM  H15F12006   6.847   2.176  14.772  0.0670 -0.2129 -1.2963
   8923SM  H15G12007   6.848   2.355  14.822 -0.9761 -0.8503  0.2514
   8923SM  C16F12008   7.046   2.268  14.806  0.8733 -0.4222  0.0052
   8923SM  H16F12009   7.085   2.372  14.798 -0.1753 -0.0100  0.0739
   8923SM  H16G12010   7.092   2.207  14.725 -2.7546 -0.5042 -2.2508
   8923SM  C17F12011   7.075   2.214  14.946 -0.6162 -0.4268 -0.5533
   8923SM  H17F12012   7.027   2.115  14.959 -1.2908  0.2296  3.2938
   8923SM  H17G12013   7.023   2.280  15.019  0.5409  0.9718 -0.9455
   8923SM  C18F12014   7.226   2.232  14.978 -0.1590 -0.3020 -0.6976
   8923SM  H18F12015   7.243   2.241  15.087  2.9807  0.8547 -1.1782
   8923SM  H18G12016   7.253   2.333  14.940 -1.4918  0.3552  0.0557
   8923SM  C19F12017   7.313   2.125  14.917  0.0440 -0.1317 -0.0883
   8923SM  H19F12018   7.299   2.129  14.806 -0.5579 -1.3756 -0.0741
   8923SM  H19G12019   7.266   2.028  14.944 -0.8429  0.2980 -0.0384
   8923SM  C20F12020   7.466   2.121  14.954 -0.0980 -0.2798  0.2136
   8923SM  H20F12021   7.456   2.126  15.064 -4.2811  2.8400 -0.0579
   8923SM  H20G12022   7.531   2.204  14.921 -0.7236 -0.1518 -0.7744
   8923SM  C21F12023   7.532   1.992  14.908 -0.5947  0.3076 -0.7254
   8923SM  H21F12024   7.466   1.904  14.922  0.0832  0.0297  1.0407
   8923SM  H21G12025   7.623   1.978  14.970  0.7579 -1.4273 -2.9470
   8923SM  C22F12026   7.561   1.993  14.756  0.4550  0.5081  0.4987
   8923SM  H22F12027   7.462   2.023  14.713 -0.7252 -2.3544  0.9879
   8923SM  H22G12028   7.584   1.892  14.715  0.0463  0.2555  0.8779
   8923SM  C23F12029   7.662   2.100  14.716  0.1860 -0.0481 -0.1632
   8923SM  H23F12030   7.660   2.195  14.774  0.9026 -0.6712  0.9069
   8923SM  H23G12031   7.643   2.139  14.614 -0.1783  2.1845  0.6804
   8923SM  H23H12032   7.761   2.052  14.725 -0.8094 -2.1307  0.4201
   9023SM     N12033   5.487   2.414  12.614  0.5833 -0.7805 -0.0020
   9023SM   C1512034   5.333   2.435  12.595 -0.1184  0.0776  0.5808
   9023SM  H15A12035   5.305   2.539  12.603 -1.6031 -0.2658  0.1852
   9023SM  H15B12036   5.274   2.381  12.667 -0.1251  0.2521  0.7065
   9023SM  H15C12037   5.319   2.415  12.490  1.2670 -0.6417  0.5066
   9023SM   C1412038   5.522   2.275  12.575  0.0927  0.8604  0.4340
   9023SM  H14A12039   5.532   2.267  12.468 -1.6952  0.2320  0.2822
   9023SM  H14B12040   5.444   2.209  12.610 -1.5716  0.9465 -2.7819
   9023SM  H14C12041   5.619   2.256  12.618 -0.5141  0.9308  1.8765
   9023SM   C1312042   5.563   2.505  12.514  0.0394 -0.1822  0.0750
   9023SM  H13A12043   5.553   2.607  12.550  0.9672  0.5119 -1.4852
   9023SM  H13B12044   5.533   2.499  12.410 -1.4364  3.6751  0.0769
   9023SM  H13C12045   5.668   2.482  12.515 -0.3266 -2.0134 -0.7066
   9023SM   C1212046   5.523   2.434  12.757  0.6386  0.2969 -0.0885
   9023SM  H12A12047   5.626   2.412  12.778  0.5340 -0.4610 -0.3321
   9023SM  H12B12048   5.458   2.373  12.818 -1.6558 -0.4226 -2.9826
   9023SM   C1112049   5.502   2.577  12.813  0.0668  0.2089  0.8450
   9023SM  H11A12050   5.504   2.575  12.924  1.8065 -0.1937  0.8288
   9023SM  H11B12051   5.398   2.607  12.784  0.1881  0.1252  0.3048
   9023SM     P12052   5.742   2.674  12.817  0.2792 -0.2418  0.6764
   9023SM   O1312053   5.827   2.571  12.746 -0.9358  0.4246  0.5568
   9023SM   O1412054   5.773   2.818  12.815  0.3553  0.4290  0.3845
   9023SM   O1112055   5.744   2.624  12.970  0.0440  0.2011  0.2095
   9023SM   O1212056   5.597   2.663  12.757 -0.4055 -0.5090  0.6422
   9023SM   C1S12057   5.844   2.667  13.061 -0.4391  0.3055 -0.6930
   9023SM   H1S12058   5.821   2.772  13.091  0.3414  0.3083 -0.0545
   9023SM   H1T12059   5.943   2.634  13.025  0.2555  1.3517  0.1755
   9023SM    NF12060   5.935   2.649  13.287  0.2424  0.2700 -0.2719
   9023SM   HNF12061   6.015   2.589  13.283  0.5093  0.6891 -2.3589
   9023SM   C2S12062   5.832   2.600  13.203 -0.4293 -0.8552  0.3545
   9023SM   H2S12063   5.740   2.648  13.241  1.0873  2.8285 -0.1855
   9023SM   C3S12064   5.810   2.448  13.201  0.4878  0.6909 -0.0696
   9023SM   H3S12065   5.900   2.387  13.180 -0.0869 -0.0970 -0.3075
   9023SM    O312066   5.716   2.404  13.108  0.0995  0.4653 -0.4487
   9023SM   HO312067   5.710   2.478  13.047 -0.4819 -0.2705 -1.3065
   9023SM   C4S12068   5.758   2.400  13.342 -0.1407 -0.4666 -0.4132
   9023SM   H4S12069   5.650   2.409  13.362 -0.1115  0.0944 -0.4886
   9023SM   C5S12070   5.834   2.352  13.438 -0.0080 -0.2235 -0.0146
   9023SM   H5S12071   5.938   2.348  13.402 -1.0111 -0.5607 -3.2191
   9023SM   C6S12072   5.793   2.304  13.575 -0.0523 -1.3272  0.5119
   9023SM   H6S12073   5.787   2.395  13.638 -1.2958 -0.4608 -0.8209
   9023SM   H6T12074   5.871   2.235  13.614  1.0035 -1.2576 -1.3633
   9023SM   C7S12075   5.654   2.251  13.588  0.5295  0.2676 -0.5223
   9023SM   H7S12076   5.627   2.167  13.521 -0.7346  1.0397 -1.0160
   9023SM   H7T12077   5.586   2.336  13.566  0.8120 -0.0101 -2.6824
   9023SM   C8S12078   5.632   2.209  13.732 -0.3148  0.8936 -0.3692
   9023SM   H8S12079   5.662   2.286  13.805 -0.5620  1.4520 -0.8524
   9023SM   H8T12080   5.704   2.126  13.745 -1.9714 -0.4936  0.4095
   9023SM   C9S12081   5.489   2.181  13.763  0.7610  0.1157 -0.7398
   9023SM   H9S12082   5.460   2.102  13.691  0.6735  0.1444 -0.7363
   9023SM   H9T12083   5.431   2.275  13.748 -2.0407 -1.0592  1.8786
   9023SM  C10S12084   5.454   2.131  13.903 -0.4728 -0.4212  0.0042
   9023SM  H10S12085   5.465   2.214  13.976 -2.5565  1.4174 -1.6587
   9023SM  H10T12086   5.524   2.045  13.915  0.0809 -0.5023 -3.1150
   9023SM  C11S12087   5.303   2.086  13.914  0.2976  0.1940  0.0807
   9023SM  H11S12088   5.284   2.012  13.833  1.7352  0.9247 -0.9691
   9023SM  H11T12089   5.232   2.170  13.903  1.6804  1.3544 -0.3425
   9023SM  C12S12090   5.275   2.009  14.043 -0.1674 -0.2772  0.3859
   9023SM  H12S12091   5.376   1.984  14.082  0.7099  1.3525 -0.7405
   9023SM  H12T12092   5.230   1.908  14.027  1.8422 -1.2674  0.6533
   9023SM  C13S12093   5.192   2.090  14.144  0.0636  0.6858  0.4673
   9023SM  H13S12094   5.143   2.021  14.216  0.2278 -2.6867 -2.3367
   9023SM  H13T12095   5.110   2.142  14.091 -0.0522  0.2426  0.2027
   9023SM  C14S12096   5.280   2.187  14.230  0.1436  0.1818  0.2681
   9023SM  H14S12097   5.333   2.255  14.160  1.6397 -1.9430 -0.8164
   9023SM  H14T12098   5.356   2.120  14.276 -1.9354 -2.9888 -0.5854
   9023SM  C15S12099   5.209   2.266  14.334  0.3707  0.0786  0.4179
   9023SM  H15S12100   5.126   2.320  14.283  0.3845 -2.9621 -3.2322
   9023SM  H15T12101   5.280   2.340  14.377  0.5778  0.7349 -0.9721
   9023SM  C16S12102   5.144   2.174  14.438 -0.5657 -0.1163 -0.4302
   9023SM  H16S12103   5.214   2.090  14.458 -0.0543  0.3862 -0.0939
   9023SM  H16T12104   5.051   2.131  14.394 -1.0069 -0.8625  1.1731
   9023SM  C17S12105   5.108   2.242  14.568  0.6383 -0.2998  0.1222
   9023SM  H17S12106   5.026   2.311  14.538  0.5193 -0.5489 -0.1372
   9023SM  H17T12107   5.200   2.293  14.602  0.1081  0.2883  0.7040
   9023SM  C18S12108   5.066   2.143  14.675  0.6150  0.5593  0.0197
   9023SM  H18S12109   5.133   2.055  14.686 -0.6942 -0.5072 -0.2391
   9023SM  H18T12110   4.970   2.093  14.653  1.1413 -0.6549  0.3693
   9023SM  H18U12111   5.057   2.193  14.774 -1.3205  1.0596 -0.3590
   9023SM   C1F12112   5.949   2.763  13.357  0.3672  0.1243 -0.3680
   9023SM    OF12113   5.861   2.847  13.349 -0.0912  0.2389 -0.4734
   9023SM   C2F12114   6.077   2.776  13.439 -0.4007 -0.0171 -0.8425
   9023SM   H2F12115   6.151   2.848  13.398 -1.2197  1.4535  0.1477
   9023SM   H2G12116   6.135   2.682  13.438  1.3131  0.9473  1.0450
   9023SM   C3F12117   6.041   2.805  13.588  0.0984  0.6502  0.0926
   9023SM   H3F12118   5.962   2.733  13.620 -2.1041  2.1675 -1.6089
   9023SM   H3G12119   6.008   2.911  13.588  1.2142  1.0441 -1.4661
   9023SM   C4F12120   6.141   2.788  13.700  0.9844  0.8859  0.0645
   9023SM   H4F12121   6.092   2.817  13.796 -1.0390  2.0647 -1.2387
   9023SM   H4G12122   6.226   2.857  13.681  1.7381  0.4333  1.6186
   9023SM   C5F12123   6.185   2.643  13.712  0.2005 -0.6380  0.4366
   9023SM   H5F12124   6.282   2.642  13.766 -1.1892  1.8778  3.2637
   9023SM   H5G12125   6.201   2.591  13.615 -1.1828 -1.2234  0.4980
   9023SM   C6F12126   6.085   2.562  13.793  0.5536 -0.2072  0.1882
   9023SM   H6F12127   5.984   2.575  13.750  0.7943  0.9024 -0.0803
   9023SM   H6G12128   6.091   2.597  13.898  2.7615  1.4744 -0.4256
   9023SM   C7F12129   6.133   2.419  13.806 -0.2071 -0.3091  0.3709
   9023SM   H7F12130   6.243   2.418  13.823 -0.3352 -1.4578  1.2254
   9023SM   H7G12131   6.118   2.374  13.705 -0.3777  1.3133 -0.3546
   9023SM   C8F12132   6.071   2.335  13.922  0.5939 -0.1014  0.2578
   9023SM   H8F12133   6.076   2.225  13.905  1.2934  0.0613 -0.6479
   9023SM   H8G12134   5.960   2.339  13.922  0.4350 -2.6280 -0.6875
   9023SM   C9F12135   6.125   2.378  14.055  0.4325  0.3141 -0.4726
   9023SM   H9F12136   6.146   2.487  14.061  1.0024  0.1523  1.3476
   9023SM   H9G12137   6.216   2.323  14.088 -0.5729 -0.8212  0.5484
   9023SM  C10F12138   6.021   2.354  14.164  0.3332 -0.5655 -0.2179
   9023SM  H10F12139   6.001   2.245  14.166  1.2281 -0.7511 -0.7693
   9023SM  H10G12140   5.922   2.400  14.146 -0.4363 -1.1906  2.0723
   9023SM  C11F12141   6.069   2.381  14.310  0.4274 -0.2368 -0.0882
   9023SM  H11F12142   6.105   2.485  14.324 -3.2906  1.1750  0.0715
   9023SM  H11G12143   6.154   2.311  14.325 -0.8588 -2.1187 -1.0904
   9023SM  C12F12144   5.981   2.343  14.417  0.3242 -0.3966  0.1868
   9023SM  H12F12145   5.951   2.237  14.398 -0.6084 -0.5242  2.0878
   9023SM  H12G12146   5.898   2.417  14.407  1.7361  1.3840  1.1465
   9023SM  C13F12147   6.050   2.350  14.552 -0.4200 -0.0400  1.4601
   9023SM  H13F12148   6.062   2.458  14.574 -1.2373  0.2803  0.4487
   9023SM  H13G12149   6.144   2.291  14.552 -0.5623 -0.6256 -2.6871
   9023SM  C14F12150   5.967   2.296  14.662  0.2932  0.5597  0.7718
   9023SM  H14F12151   5.939   2.190  14.644 -2.1340  1.2538  0.0801
   9023SM  H14G12152   5.865   2.338  14.671 -0.0799 -0.2799  0.6128
   9023SM  C15F12153   6.041   2.299  14.802  0.2155 -0.1373  0.5601
   9023SM  H15F12154   6.050   2.405  14.836 -3.5712  0.7457 -0.7162
   9023SM  H15G12155   6.143   2.272  14.768 -0.7820 -1.5159 -1.5145
   9023SM  C16F12156   5.968   2.223  14.909 -0.2509  0.1374 -0.7057
   9023SM  H16F12157   5.982   2.113  14.899 -1.6610 -0.2182  0.7552
   9023SM  H16G12158   5.858   2.227  14.894 -0.5904 -3.0745  0.2255
   9023SM  C17F12159   6.020   2.257  15.038  0.2183 -0.9150 -0.3278
   9023SM  H17F12160   6.017   2.367  15.052  0.6534 -1.1412  1.8958
   9023SM  H17G12161   6.122   2.216  15.054  0.0923 -0.6002  1.3969
   9023SM  C18F12162   5.940   2.198  15.149 -0.0732 -0.6245 -0.6383
   9023SM  H18F12163   5.943   2.088  15.138 -0.7846 -1.0387  2.2872
   9023SM  H18G12164   5.833   2.229  15.147 -0.7081 -2.6862 -1.7457
   9023SM  C19F12165   5.980   2.235  15.289 -0.2284  0.4746 -0.0577
   9023SM  H19F12166   6.066   2.168  15.309 -1.4286 -1.2793 -0.4633
   9023SM  H19G12167   5.904   2.201  15.362  0.6062 -0.4463  0.4033
   9023SM  C20F12168   6.015   2.373  15.322 -0.2266  0.1849 -0.6819
   9023SM  H20F12169   5.932   2.439  15.289  1.4960  2.8255 -0.0031
   9023SM  H20G12170   6.107   2.390  15.262 -1.2067  2.4473 -1.6641
   9023SM  C21F12171   6.057   2.396  15.472 -0.1611 -0.2784 -0.8698
   9023SM  H21F12172   6.153   2.343  15.483  0.7870  1.0387 -2.3708
   9023SM  H21G12173   5.972   2.357  15.532 -1.0459  2.5956 -0.0900
   9023SM  C22F12174   6.079   2.544  15.509 -1.1148 -0.5200  0.3199
   9023SM  H22F12175   5.980   2.593  15.504  0.0064  2.0456  1.2730
   9023SM  H22G12176   6.146   2.599  15.440  0.0893 -0.3640  1.5493
   9023SM  C23F12177   6.136   2.578  15.647  0.3358  0.3433  0.1311
   9023SM  H23F12178   6.072   2.548  15.733 -0.4933 -0.7202 -0.8296
   9023SM  H23G12179   6.160   2.686  15.657  2.1199 -0.0451  0.3181
   9023SM  H23H12180   6.237   2.538  15.670  0.1193  0.7335  1.9486
   9123SM     N12181   5.315   5.347  12.394  0.4391 -0.1584  0.1391
   9123SM   C1512182   5.371   5.464  12.465 -0.6653 -0.1163 -0.4542
   9123SM  H15A12183   5.302   5.547  12.462 -0.6625 -0.1108 -0.3711
   9123SM  H15B12184   5.461   5.493  12.412 -1.0159  0.2676 -0.8458
   9123SM  H15C12185   5.396   5.440  12.567  0.2015 -0.6561 -0.7830
   9123SM   C1412186   5.180   5.307  12.449 -1.2152  0.1219 -0.3004
   9123SM  H14A12187   5.124   5.249  12.378 -0.9906 -1.3827  0.7205
   9123SM  H14B12188   5.123   5.395  12.477  0.6155  0.9157  1.2063
   9123SM  H14C12189   5.200   5.249  12.538 -0.3575  2.7126  1.3461
   9123SM   C1312190   5.277   5.399  12.253 -0.0582 -0.2743  0.2724
   9123SM  H13A12191   5.224   5.321  12.202 -1.9610 -0.1065  1.8359
   9123SM  H13B12192   5.365   5.422  12.195  0.6586 -1.4534  0.8532
   9123SM  H13C12193   5.209   5.482  12.267  0.4597 -0.2866  3.7811
   9123SM   C1212194   5.403   5.227  12.375  0.8841  0.2610 -1.0377
   9123SM  H12A12195   5.350   5.149  12.322 -2.4675  0.9466  1.0270
   9123SM  H12B12196   5.402   5.179  12.472  0.2631 -0.8107 -1.5622
   9123SM   C1112197   5.544   5.248  12.321  0.3364  0.3545 -0.0533
   9123SM  H11A12198   5.534   5.293  12.220 -2.0891  1.7216  0.6868
   9123SM  H11B12199   5.591   5.153  12.289 -1.6637 -0.7036 -0.0414
   9123SM     P12200   5.753   5.413  12.345  0.0756  0.3161 -0.0483
   9123SM   O1312201   5.861   5.330  12.276  0.3349  0.6323  0.1858
   9123SM   O1412202   5.688   5.520  12.265  0.5629 -0.1440  0.4937
   9123SM   O1112203   5.817   5.483  12.475  0.7614  0.4745  0.5755
   9123SM   O1212204   5.641   5.318  12.404  0.1814 -0.2547  0.1298
   9123SM   C1S12205   5.736   5.493  12.594 -0.7067 -0.3451 -0.3329
   9123SM   H1S12206   5.712   5.390  12.628  1.2411 -0.5690  0.5092
   9123SM   H1T12207   5.647   5.554  12.569  0.8368  2.1095 -0.2041
   9123SM    NF12208   5.739   5.526  12.830 -0.1519  0.0193  0.1965
   9123SM   HNF12209   5.679   5.601  12.857 -1.3712 -1.0266  0.5122
   9123SM   C2S12210   5.811   5.556  12.710  0.4894 -0.2663 -0.0011
   9123SM   H2S12211   5.911   5.510  12.724  0.2002 -0.1970  2.9803
   9123SM   C3S12212   5.841   5.708  12.673  0.8489  0.3255  0.4729
   9123SM   H3S12213   5.745   5.764  12.668  0.9897  0.5122 -0.3677
   9123SM    O312214   5.884   5.729  12.535 -0.5309 -0.2098 -0.2708
   9123SM   HO312215   5.870   5.641  12.499 -2.7022 -1.2494  2.6565
   9123SM   C4S12216   5.925   5.781  12.785  0.2894  0.6751  0.0353
   9123SM   H4S12217   5.868   5.776  12.878  1.4564  0.7479  0.7693
   9123SM   C5S12218   6.050   5.831  12.784  0.4164 -0.0775 -0.8632
   9123SM   H5S12219   6.100   5.838  12.687  1.0753 -0.6001 -0.5718
   9123SM   C6S12220   6.122   5.892  12.905  0.6439  0.2441  0.3056
   9123SM   H6S12221   6.143   5.998  12.878 -2.1405  1.1175  1.2517
   9123SM   H6T12222   6.221   5.841  12.907  1.0161  0.9635  0.5571
   9123SM   C7S12223   6.046   5.887  13.042 -0.0621 -0.5990  0.6752
   9123SM   H7S12224   6.017   5.780  13.052  0.3162 -0.8099 -0.3962
   9123SM   H7T12225   5.960   5.958  13.040 -0.8239 -1.4678  1.3241
   9123SM   C8S12226   6.141   5.931  13.154 -0.0712 -0.0035  0.4560
   9123SM   H8S12227   6.123   6.040  13.168 -1.0607  0.3148 -2.6393
   9123SM   H8T12228   6.244   5.920  13.114 -0.6232 -0.0590 -1.0048
   9123SM   C9S12229   6.134   5.838  13.273  0.5426  0.2274  0.8621
   9123SM   H9S12230   6.124   5.732  13.242  1.3392  0.0675  1.1254
   9123SM   H9T12231   6.043   5.863  13.331 -1.0166  0.4196 -1.5052
   9123SM  C10S12232   6.259   5.845  13.366 -0.0295 -0.3141  0.1585
   9123SM  H10S12233   6.273   5.952  13.394 -2.4369  0.1862 -0.3528
   9123SM  H10T12234   6.349   5.825  13.303 -0.2689 -0.1599 -0.2373
   9123SM  C11S12235   6.241   5.751  13.485  0.3104  0.4484 -0.9716
   9123SM  H11S12236   6.250   5.649  13.443  0.4449 -0.1530  0.4485
   9123SM  H11T12237   6.143   5.754  13.536  1.0998  1.7991  0.5830
   9123SM  C12S12238   6.351   5.759  13.596 -0.1455 -0.4481  1.1508
   9123SM  H12S12239   6.361   5.866  13.626 -0.6974 -1.2676  4.6146
   9123SM  H12T12240   6.446   5.725  13.550 -1.0868  0.5272 -1.7667
   9123SM  C13S12241   6.331   5.672  13.717  0.6519  0.1710  0.4134
   9123SM  H13S12242   6.294   5.568  13.705  0.6776  0.0341  1.3721
   9123SM  H13T12243   6.250   5.711  13.783 -1.0589 -3.7898  0.9358
   9123SM  C14S12244   6.458   5.667  13.812  0.3278 -0.2930  0.1934
   9123SM  H14S12245   6.472   5.775  13.836 -0.7597 -0.2830  0.8901
   9123SM  H14T12246   6.547   5.634  13.755  0.6955  1.3467 -0.2308
   9123SM  C15S12247   6.426   5.598  13.947  0.5387 -0.2427  0.0343
   9123SM  H15S12248   6.516   5.557  13.999 -0.1850 -1.4923  0.3405
   9123SM  H15T12249   6.362   5.511  13.921 -1.0032  0.5456  1.0396
   9123SM  C16S12250   6.346   5.691  14.034  0.2817  0.1036 -0.2940
   9123SM  H16S12251   6.253   5.722  13.982 -1.6402 -1.7754  1.7934
   9123SM  H16T12252   6.405   5.783  14.051 -1.6320  1.4438 -0.6180
   9123SM  C17S12253   6.310   5.636  14.170 -0.3463  0.1485  0.3119
   9123SM  H17S12254   6.402   5.597  14.220  2.2675  2.5917 -2.2315
   9123SM  H17T12255   6.251   5.548  14.138 -0.1327  0.4344 -0.9044
   9123SM  C18S12256   6.239   5.737  14.256 -0.9286 -0.2907 -0.1242
   9123SM  H18S12257   6.139   5.762  14.214 -0.1975  0.4631 -1.4986
   9123SM  H18T12258   6.290   5.836  14.249  0.1668 -0.7087  1.4390
   9123SM  H18U12259   6.232   5.697  14.359  0.3158 -0.8222 -0.2201
   9123SM   C1F12260   5.743   5.410  12.895  0.3528 -0.4377  0.5974
   9123SM    OF12261   5.821   5.329  12.869 -0.1469 -0.0263  0.2649
   9123SM   C2F12262   5.649   5.389  12.997  0.3144 -1.0207  0.2537
   9123SM   H2F12263   5.597   5.293  12.979 -0.6201 -0.2610 -1.2711
   9123SM   H2G12264   5.562   5.458  13.002  0.0331 -0.9932 -2.9973
   9123SM   C3F12265   5.706   5.367  13.132 -1.2091  0.3494 -0.6665
   9123SM   H3F12266   5.754   5.462  13.167  0.6164 -0.6519 -0.3371
   9123SM   H3G12267   5.779   5.285  13.119  0.7584  2.0336 -0.9107
   9123SM   C4F12268   5.599   5.325  13.239  0.0192  0.8804 -0.4617
   9123SM   H4F12269   5.513   5.263  13.208  0.4865 -1.2266  2.1221
   9123SM   H4G12270   5.561   5.423  13.275 -0.8575  0.2207  0.4462
   9123SM   C5F12271   5.659   5.255  13.369  0.5644  0.3189  0.6080
   9123SM   H5F12272   5.724   5.334  13.414 -1.3799  1.9390  0.7117
   9123SM   H5G12273   5.719   5.171  13.327 -1.0017  1.4342 -4.6390
   9123SM   C6F12274   5.556   5.213  13.470 -0.8644 -0.6847  0.2835
   9123SM   H6F12275   5.488   5.133  13.433 -2.5552  1.2459 -1.0150
   9123SM   H6G12276   5.505   5.306  13.502  2.6570  1.0954  1.2950
   9123SM   C7F12277   5.623   5.163  13.600 -0.6269 -0.2198  0.4861
   9123SM   H7F12278   5.700   5.233  13.639  0.1207  0.0088 -1.2960
   9123SM   H7G12279   5.685   5.078  13.564 -0.6010  0.4799 -1.2297
   9123SM   C8F12280   5.524   5.133  13.709 -0.7058  0.3114  0.2173
   9123SM   H8F12281   5.472   5.038  13.685 -0.1764  0.2035 -0.5447
   9123SM   H8G12282   5.449   5.215  13.712  0.5227  1.6151 -1.8029
   9123SM   C9F12283   5.585   5.107  13.846  0.1861  0.2550  0.1800
   9123SM   H9F12284   5.639   5.200  13.876  0.9275  0.0143 -0.3655
   9123SM   H9G12285   5.666   5.031  13.854  1.4956  1.3905 -1.4450
   9123SM  C10F12286   5.471   5.058  13.936  0.3619 -0.4906 -0.5941
   9123SM  H10F12287   5.439   4.966  13.883 -1.6763  0.4607 -1.0912
   9123SM  H10G12288   5.405   5.147  13.929 -0.3024 -1.1043 -2.5658
   9123SM  C11F12289   5.519   5.053  14.084  0.1370  0.8177 -0.2454
   9123SM  H11F12290   5.574   5.146  14.112  2.1049 -0.3461 -0.0630
   9123SM  H11G12291   5.591   4.968  14.088 -0.0084  0.6262 -1.2703
   9123SM  C12F12292   5.402   5.016  14.170 -0.2467  0.8730 -0.3503
   9123SM  H12F12293   5.331   4.935  14.139 -0.9562  0.7677  1.4470
   9123SM  H12G12294   5.342   5.109  14.164 -0.8908  0.4941  0.0079
   9123SM  C13F12295   5.443   4.983  14.313 -0.6286 -0.5294 -0.1353
   9123SM  H13F12296   5.501   5.069  14.353  0.1946 -0.9266 -0.4493
   9123SM  H13G12297   5.523   4.907  14.312  1.0380  1.1172 -2.0784
   9123SM  C14F12298   5.322   4.952  14.397 -0.4436  0.0960 -0.9905
   9123SM  H14F12299   5.264   4.864  14.360 -4.0707  1.8802  0.0460
   9123SM  H14G12300   5.262   5.044  14.414  1.6647  1.5363 -0.9630
   9123SM  C15F12301   5.355   4.893  14.538 -0.3813 -0.0940  0.1839
   9123SM  H15F12302   5.417   4.971  14.588 -0.8248  0.1768  0.3142
   9123SM  H15G12303   5.422   4.806  14.520 -1.3557 -1.2097  1.7604
   9123SM  C16F12304   5.248   4.846  14.638  0.2371 -0.7603 -0.5136
   9123SM  H16F12305   5.184   4.777  14.579  0.0611  0.4805 -1.8190
   9123SM  H16G12306   5.175   4.926  14.663  0.6841 -0.9665  1.6265
   9123SM  C17F12307   5.306   4.792  14.763  0.0866 -0.2332  0.3891
   9123SM  H17F12308   5.375   4.867  14.808 -1.4329  2.5644 -1.6584
   9123SM  H17G12309   5.357   4.695  14.742 -0.7527 -0.9340  1.4333
   9123SM  C18F12310   5.189   4.781  14.863  0.2023 -0.6844  0.1061
   9123SM  H18F12311   5.102   4.728  14.818  0.7693 -0.6465 -1.0749
   9123SM  H18G12312   5.143   4.881  14.877 -0.5427 -1.1193  0.8795
   9123SM  C19F12313   5.227   4.726  14.998 -0.2133  0.1970 -0.2325
   9123SM  H19F12314   5.149   4.737  15.076  1.2184 -0.0484  1.2856
   9123SM  H19G12315   5.319   4.770  15.042 -1.8325  1.8069  1.6818
   9123SM  C20F12316   5.259   4.578  14.971 -0.1859  0.1487  0.1572
   9123SM  H20F12317   5.349   4.572  14.906 -0.5458  1.7701 -0.5448
   9123SM  H20G12318   5.183   4.512  14.925  0.4959 -3.3179  3.4732
   9123SM  C21F12319   5.298   4.510  15.105  0.1989 -0.0364  0.8350
   9123SM  H21F12320   5.337   4.409  15.078 -0.2795 -0.2937  1.1097
   9123SM  H21G12321   5.208   4.507  15.170 -0.8138 -3.2710 -0.5088
   9123SM  C22F12322   5.423   4.574  15.176 -0.8227  0.3080 -0.1826
   9123SM  H22F12323   5.403   4.678  15.210  3.4070  0.2765  3.2984
   9123SM  H22G12324   5.503   4.575  15.099 -0.9820  0.0141 -0.3535
   9123SM  C23F12325   5.456   4.498  15.307 -0.0799  0.4465 -0.2536
   9123SM  H23F12326   5.536   4.551  15.363 -1.1327  0.0282  1.7510
   9123SM  H23G12327   5.503   4.400  15.287 -1.2046  0.1112 -1.3828
   9123SM  H23H12328   5.365   4.474  15.367  0.3015 -2.7074 -0.8127
   9223SM     N12329   5.408   1.737  12.544  0.2394  0.1868 -0.2296
   9223SM   C1512330   5.546   1.713  12.593 -0.2806 -0.2800 -0.0422
   9223SM  H15A12331   5.570   1.608  12.582 -2.1055 -0.7316 -0.0041
   9223SM  H15B12332   5.561   1.750  12.693 -1.1262  1.6661 -0.5745
   9223SM  H15C12333   5.615   1.764  12.527  0.1326 -1.5731 -0.6451
   9223SM   C1412334   5.380   1.670  12.414 -0.8512  0.0955  0.5533
   9223SM  H14A12335   5.447   1.708  12.338 -0.7828  2.1451  1.5749
   9223SM  H14B12336   5.284   1.691  12.370 -0.7988 -0.5261  0.1352
   9223SM  H14C12337   5.390   1.563  12.425 -0.3514 -0.1741 -2.0031
   9223SM   C1312338   5.308   1.676  12.642  0.4767  0.2708  0.1007
   9223SM  H13A12339   5.308   1.732  12.735 -1.0993 -0.5731  0.6528
   9223SM  H13B12340   5.324   1.570  12.660 -1.8561 -0.0576  0.6537
   9223SM  H13C12341   5.208   1.696  12.606 -0.6734 -0.0248  2.8575
   9223SM   C1212342   5.397   1.891  12.519  0.3793  0.1851  0.0809
   9223SM  H12A12343   5.476   1.928  12.455  0.0729 -0.4586 -0.6806
   9223SM  H12B12344   5.408   1.943  12.613  2.1148  2.4005 -1.2344
   9223SM   C1112345   5.259   1.949  12.460  0.4844  0.4913 -0.8197
   9223SM  H11A12346   5.229   1.893  12.368 -4.3102  0.0443  0.7103
   9223SM  H11B12347   5.283   2.049  12.420  2.3756 -0.3199 -1.8487
   9223SM     P12348   5.148   2.066  12.670 -0.2723  0.5786  0.2490
   9223SM   O1312349   5.147   2.202  12.616 -0.4847 -0.5668  0.2257
   9223SM   O1412350   5.040   2.031  12.759  0.0039 -0.0230 -0.4832
   9223SM   O1112351   5.284   2.050  12.744 -0.0985  0.1804 -0.1278
   9223SM   O1212352   5.155   1.949  12.558  0.4737  0.1270 -0.6797
   9223SM   C1S12353   5.338   2.133  12.845  1.0283 -0.3217  0.7296
   9223SM   H1S12354   5.306   2.237  12.822  0.5052 -0.5040  0.6201
   9223SM   H1T12355   5.448   2.117  12.851  0.9026 -1.7565 -0.3470
   9223SM    NF12356   5.343   2.184  13.081 -0.6099 -0.0504  0.0086
   9223SM   HNF12357   5.419   2.151  13.137 -1.8042 -2.9297  0.1000
   9223SM   C2S12358   5.280   2.098  12.983 -0.3450  0.8233 -0.0313
   9223SM   H2S12359   5.170   2.116  12.980 -0.5351 -0.3540 -0.7537
   9223SM   C3S12360   5.303   1.943  13.017 -0.2439 -0.0314  0.2340
   9223SM   H3S12361   5.412   1.931  13.035 -0.2035  0.1364  0.1038
   9223SM    O312362   5.288   1.853  12.906 -0.5611  0.8364 -0.2301
   9223SM   HO312363   5.289   1.918  12.835 -0.1992 -0.5195 -1.5154
   9223SM   C4S12364   5.231   1.906  13.144  0.1908 -0.1936  0.6109
   9223SM   H4S12365   5.281   1.948  13.232 -1.3360  2.3934  0.3595
   9223SM   C5S12366   5.120   1.834  13.146 -0.4782 -0.9442 -0.3712
   9223SM   H5S12367   5.077   1.806  13.049 -0.8847  0.2892 -0.5584
   9223SM   C6S12368   5.037   1.802  13.271  0.1091  0.0197  0.2307
   9223SM   H6S12369   5.037   1.691  13.286 -1.8294  0.2310  2.4142
   9223SM   H6T12370   4.929   1.820  13.252  0.1376  1.1242  1.0549
   9223SM   C7S12371   5.074   1.872  13.401 -0.3040 -0.2674  0.5921
   9223SM   H7S12372   5.067   1.980  13.377  1.3092 -0.2606  0.0096
   9223SM   H7T12373   5.179   1.843  13.423 -1.0519 -2.0515  2.1090
   9223SM   C8S12374   4.999   1.835  13.533 -0.3399 -1.1890  0.0894
   9223SM   H8S12375   5.021   1.727  13.545  3.8190 -0.6286 -1.0414
   9223SM   H8T12376   4.889   1.844  13.526 -0.4862  0.3109  2.7571
   9223SM   C9S12377   5.046   1.928  13.635  0.0887  0.2883  0.4320
   9223SM   H9S12378   5.036   2.033  13.601 -2.3021 -0.1337 -0.3524
   9223SM   H9T12379   5.156   1.913  13.643 -0.2122 -3.0354 -0.0162
   9223SM  C10S12380   4.980   1.914  13.767 -0.2735  0.6933 -1.0927
   9223SM  H10S12381   4.876   1.953  13.766 -0.9616 -1.0228 -1.4018
   9223SM  H10T12382   5.038   1.976  13.839  0.4436 -1.3961  0.2574
   9223SM  C11S12383   4.985   1.769  13.830  0.1808  0.6448 -0.1703
   9223SM  H11S12384   5.089   1.731  13.823  0.2232  0.6511  0.3824
   9223SM  H11T12385   4.919   1.694  13.780 -1.1480  0.6100  1.5321
   9223SM  C12S12386   4.946   1.750  13.974 -0.0863  0.5759  0.8002
   9223SM  H12S12387   5.029   1.775  14.043  1.3779  2.2647 -1.3954
   9223SM  H12T12388   4.930   1.640  13.983  3.1786 -0.0917 -0.0269
   9223SM  C13S12389   4.825   1.818  14.018 -0.0381  0.6675  0.8307
   9223SM  H13S12390   4.774   1.764  14.100 -0.5726 -0.9728 -0.5317
   9223SM  H13T12391   4.753   1.819  13.933  1.3073 -2.9260 -0.5115
   9223SM  C14S12392   4.853   1.967  14.055 -0.4475  0.0944 -0.1648
   9223SM  H14S12393   4.886   2.029  13.968 -0.2533 -1.6383 -1.3774
   9223SM  H14T12394   4.932   1.973  14.133 -1.1307  0.8683  0.4865
   9223SM  C15S12395   4.725   2.040  14.123 -0.7349  0.0916  0.6216
   9223SM  H15S12396   4.663   1.977  14.190 -0.8681 -2.0632 -1.4183
   9223SM  H15T12397   4.664   2.050  14.031 -0.2991 -0.4476  0.2671
   9223SM  C16S12398   4.755   2.177  14.185  0.6637  0.0196  0.2019
   9223SM  H16S12399   4.759   2.259  14.110  2.7035 -1.6708 -1.7213
   9223SM  H16T12400   4.854   2.169  14.235  1.4737 -0.2744 -1.3914
   9223SM  C17S12401   4.651   2.233  14.280 -0.3325  0.4024  0.0346
   9223SM  H17S12402   4.625   2.149  14.349  0.3261  0.3826  0.2632
   9223SM  H17T12403   4.560   2.249  14.218  0.6686 -1.1884 -1.9678
   9223SM  C18S12404   4.693   2.366  14.351 -0.1020  0.3231 -0.2603
   9223SM  H18S12405   4.625   2.393  14.434  0.4053 -0.4011  0.4008
   9223SM  H18T12406   4.685   2.449  14.277 -2.8556 -1.3321 -2.0004
   9223SM  H18U12407   4.798   2.353  14.386 -0.0647  0.4303 -0.3324
   9223SM   C1F12408   5.301   2.310  13.097 -0.6705  0.0569  0.1873
   9223SM    OF12409   5.216   2.357  13.017  0.3324  0.0237  0.2498
   9223SM   C2F12410   5.369   2.390  13.210  0.2263  0.1975 -0.5024
   9223SM   H2F12411   5.416   2.482  13.170  2.5857 -0.5410  0.3388
   9223SM   H2G12412   5.453   2.325  13.246  0.0092 -0.5849 -1.3646
   9223SM   C3F12413   5.273   2.425  13.312 -0.5073 -0.0350 -0.5954
   9223SM   H3F12414   5.191   2.490  13.275  0.5031  0.2813 -2.3867
   9223SM   H3G12415   5.319   2.473  13.401 -1.7099 -1.8206  1.0866
   9223SM   C4F12416   5.201   2.305  13.382 -1.3809 -0.3321 -0.0944
   9223SM   H4F12417   5.271   2.225  13.416 -3.5358 -3.2690 -2.0813
   9223SM   H4G12418   5.143   2.251  13.305  0.4696 -1.7851 -0.5506
   9223SM   C5F12419   5.099   2.350  13.493 -0.1952  0.4317  0.4820
   9223SM   H5F12420   5.027   2.272  13.528 -4.0397  3.0822 -0.8547
   9223SM   H5G12421   5.030   2.413  13.432 -0.9063 -0.9317 -0.1691
   9223SM   C6F12422   5.155   2.411  13.620  0.0188 -0.6472  0.4219
   9223SM   H6F12423   5.202   2.511  13.610 -0.2938 -0.3779  1.5476
   9223SM   H6G12424   5.238   2.340  13.638 -0.1803 -1.1220 -0.4293
   9223SM   C7F12425   5.059   2.394  13.741  0.5544 -0.0788  0.3841
   9223SM   H7F12426   5.026   2.293  13.772 -1.6353  0.3359 -0.4117
   9223SM   H7G12427   4.967   2.454  13.728  1.0711  0.2722 -2.1788
   9223SM   C8F12428   5.132   2.461  13.855  0.6265  0.1968  0.1168
   9223SM   H8F12429   5.191   2.543  13.809 -0.0327 -0.4154 -1.8920
   9223SM   H8G12430   5.211   2.401  13.906 -2.3452 -2.7019  1.7404
   9223SM   C9F12431   5.035   2.527  13.968 -0.6327 -0.5104 -0.3333
   9223SM   H9F12432   4.966   2.445  13.998 -0.1741 -0.8960 -0.3227
   9223SM   H9G12433   4.966   2.600  13.921 -0.2717  0.6846  0.9376
   9223SM  C10F12434   5.108   2.580  14.091  0.1111 -0.5768  0.1698
   9223SM  H10F12435   5.178   2.662  14.063 -0.7347  0.3558  0.7219
   9223SM  H10G12436   5.170   2.503  14.141  1.4751 -0.7173 -1.6479
   9223SM  C11F12437   4.998   2.640  14.183 -0.3348 -0.0568 -0.0836
   9223SM  H11F12438   4.931   2.556  14.210  0.8683 -1.4207 -1.2443
   9223SM  H11G12439   4.946   2.717  14.122 -1.5528 -0.1074  0.8459
   9223SM  C12F12440   5.046   2.701  14.313 -0.6536  0.1910 -0.1730
   9223SM  H12F12441   5.105   2.795  14.300 -1.0606  0.9465  2.6972
   9223SM  H12G12442   5.124   2.634  14.354 -0.7518  0.4185  0.3962
   9223SM  C13F12443   4.929   2.721  14.403  0.0698 -0.8510 -0.6226
   9223SM  H13F12444   4.867   2.629  14.413  0.8240 -1.1427  2.5184
   9223SM  H13G12445   4.864   2.796  14.353  0.3740  1.4742  2.1824
   9223SM  C14F12446   4.966   2.782  14.535  0.1960  0.1872 -0.0781
   9223SM  H14F12447   4.881   2.777  14.607 -1.5446 -1.2112 -2.0867
   9223SM  H14G12448   4.995   2.889  14.527  0.4522  0.1166 -0.1028
   9223SM  C15F12449   5.087   2.721  14.611 -0.6835 -0.2408  0.2503
   9223SM  H15F12450   5.167   2.723  14.533  0.6644  0.0231  1.6041
   9223SM  H15G12451   5.067   2.617  14.642  2.1054 -1.2155 -0.8892
   9223SM  C16F12452   5.119   2.805  14.742 -0.1700  0.1878 -0.0845
   9223SM  H16F12453   5.028   2.801  14.804 -0.0578  2.2263  0.2547
   9223SM  H16G12454   5.148   2.910  14.722 -1.2331  0.2588 -1.3525
   9223SM  C17F12455   5.235   2.729  14.819  0.5499 -0.4866 -0.4784
   9223SM  H17F12456   5.322   2.723  14.750 -0.2755  1.8193 -1.8385
   9223SM  H17G12457   5.188   2.631  14.841  0.3955 -0.6590 -1.5394
   9223SM  C18F12458   5.271   2.791  14.946  0.4784  0.5618 -0.0658
   9223SM  H18F12459   5.347   2.724  14.992  0.1599  0.9404  1.0619
   9223SM  H18G12460   5.190   2.802  15.022  0.5875  0.7392  0.0255
   9223SM  C19F12461   5.337   2.923  14.921  0.2645 -0.1025 -0.1563
   9223SM  H19F12462   5.271   2.999  14.874 -0.3144 -0.3464  0.2566
   9223SM  H19G12463   5.427   2.906  14.858  1.1767 -0.3071  1.1660
   9223SM  C20F12464   5.400   2.987  15.047  0.2263  0.6644  0.4355
   9223SM  H20F12465   5.453   2.908  15.104  1.0117  1.2287  0.5023
   9223SM  H20G12466   5.321   3.042  15.102 -0.8490 -0.1439 -0.2483
   9223SM  C21F12467   5.485   3.099  14.993  0.7087 -0.1791 -0.6913
   9223SM  H21F12468   5.422   3.166  14.931 -0.4773 -1.9317 -1.4775
   9223SM  H21G12469   5.563   3.060  14.923 -0.7235 -2.6833 -1.0080
   9223SM  C22F12470   5.544   3.182  15.105 -0.2490 -0.2699 -0.1511
   9223SM  H22F12471   5.463   3.219  15.172  1.2168 -2.1174  2.8579
   9223SM  H22G12472   5.572   3.275  15.052  1.4400 -0.0181  1.0954
   9223SM  C23F12473   5.656   3.123  15.185 -0.5706 -0.7027  0.0310
   9223SM  H23F12474   5.643   3.015  15.208 -0.2702 -0.5355  1.0256
   9223SM  H23G12475   5.668   3.180  15.280 -0.2289 -1.2892  0.3487
   9223SM  H23H12476   5.751   3.126  15.128 -0.7549 -1.0824 -0.3045
   9323SM     N12477   7.277   4.861  12.825 -0.1229 -1.2780  0.6723
   9323SM   C1512478   7.294   4.769  12.706 -0.1741 -0.4791  0.4373
   9323SM  H15A12479   7.211   4.700  12.706 -1.4348  0.8910 -1.9733
   9323SM  H15B12480   7.388   4.719  12.726 -0.1557 -0.4312  0.4718
   9323SM  H15C12481   7.294   4.826  12.614 -0.5513 -1.3534 -0.1157
   9323SM   C1412482   7.366   4.979  12.809  0.1322  0.6101  0.2814
   9323SM  H14A12483   7.341   5.027  12.716  0.5977 -1.4795 -0.9867
   9323SM  H14B12484   7.468   4.945  12.817 -0.5631 -1.2495  2.2113
   9323SM  H14C12485   7.352   5.048  12.891 -1.3180  1.8683 -0.9549
   9323SM   C1312486   7.137   4.913  12.817 -0.3617 -0.1747  0.3593
   9323SM  H13A12487   7.118   4.963  12.723 -0.7580  2.4546  1.7633
   9323SM  H13B12488   7.127   4.993  12.889 -0.3708 -1.1628  1.4821
   9323SM  H13C12489   7.059   4.842  12.842 -1.1910  1.7469  3.8008
   9323SM   C1212490   7.301   4.782  12.953 -0.3558 -0.1773 -0.1822
   9323SM  H12A12491   7.217   4.720  12.980 -1.5156  1.2137 -0.4715
   9323SM  H12B12492   7.293   4.852  13.034  0.2356  0.2148 -0.4550
   9323SM   C1112493   7.437   4.705  12.979  0.0918  0.2561 -0.2230
   9323SM  H11A12494   7.428   4.678  13.087 -2.1223  0.3939 -0.3389
   9323SM  H11B12495   7.527   4.771  12.984  0.5568 -0.4104  0.5571
   9323SM     P12496   7.377   4.471  12.898 -0.0463  0.2865 -0.2025
   9323SM   O1312497   7.265   4.497  12.812 -0.0094  0.0689 -0.4949
   9323SM   O1412498   7.464   4.360  12.863  0.1673  0.6202  0.0506
   9323SM   O1112499   7.329   4.460  13.044  0.0939  0.2845 -0.5052
   9323SM   O1212500   7.467   4.599  12.895 -0.5055  0.1258 -0.0795
   9323SM   C1S12501   7.412   4.406  13.148 -0.3367 -0.2837  0.0933
   9323SM   H1S12502   7.517   4.421  13.117 -0.4815 -4.1232 -3.2299
   9323SM   H1T12503   7.396   4.296  13.162  1.0820 -0.6929 -1.2382
   9323SM    NF12504   7.517   4.482  13.363  0.2060  0.2078 -0.2481
   9323SM   HNF12505   7.508   4.414  13.436 -0.9490 -1.4912 -1.8858
   9323SM   C2S12506   7.395   4.486  13.281  0.1582  0.7982 -0.4043
   9323SM   H2S12507   7.364   4.590  13.257 -0.6540  1.2384  2.2767
   9323SM   C3S12508   7.270   4.425  13.352 -0.3024  0.0293  0.2803
   9323SM   H3S12509   7.289   4.317  13.368 -0.0506 -0.1321 -1.0064
   9323SM    O312510   7.153   4.427  13.264 -0.5307 -0.3661 -0.2186
   9323SM   HO312511   7.193   4.446  13.179 -1.3556  0.1101 -0.5120
   9323SM   C4S12512   7.240   4.494  13.476 -0.3999 -0.5974 -0.0613
   9323SM   H4S12513   7.234   4.604  13.475 -0.4402 -0.5247 -3.1364
   9323SM   C5S12514   7.237   4.417  13.593 -0.4049 -0.5855  0.6832
   9323SM   H5S12515   7.247   4.307  13.586 -0.5627 -0.4960 -1.7721
   9323SM   C6S12516   7.218   4.488  13.728 -0.9417 -0.0058  0.6734
   9323SM   H6S12517   7.131   4.433  13.771 -1.8963 -0.0349 -1.1927
   9323SM   H6T12518   7.183   4.593  13.718  1.2621  0.5990 -1.6477
   9323SM   C7S12519   7.336   4.482  13.816  0.6233  0.2661 -0.1112
   9323SM   H7S12520   7.422   4.547  13.788  1.4247 -0.2135  1.1568
   9323SM   H7T12521   7.365   4.375  13.809 -0.4789  0.0707 -2.3778
   9323SM   C8S12522   7.289   4.504  13.964 -0.5368 -0.1469  0.4217
   9323SM   H8S12523   7.197   4.445  13.982 -0.8822  0.5625  0.9994
   9323SM   H8T12524   7.261   4.609  13.986 -1.6282 -0.7970  2.3095
   9323SM   C9S12525   7.400   4.471  14.062 -0.4828 -0.0530 -0.0088
   9323SM   H9S12526   7.499   4.519  14.048 -0.4243  0.0628  0.7896
   9323SM   H9T12527   7.413   4.362  14.049  0.7794  0.1896 -0.9892
   9323SM  C10S12528   7.348   4.492  14.203  0.2537 -0.9133  0.2833
   9323SM  H10S12529   7.239   4.467  14.204  0.1487 -0.7750 -1.9149
   9323SM  H10T12530   7.358   4.602  14.220  1.2376 -0.9335 -0.0930
   9323SM  C11S12531   7.434   4.418  14.314  0.7614 -0.0997 -0.0776
   9323SM  H11S12532   7.423   4.311  14.288  0.0545 -0.2664  0.8561
   9323SM  H11T12533   7.381   4.428  14.411 -1.7983 -1.1726 -1.2851
   9323SM  C12S12534   7.580   4.464  14.331 -0.0941 -0.1485 -0.0175
   9323SM  H12S12535   7.577   4.571  14.360 -1.2485  0.3409 -1.8084
   9323SM  H12T12536   7.636   4.477  14.236 -0.8120 -0.6813 -0.5286
   9323SM  C13S12537   7.660   4.383  14.432  0.0792  0.0564  0.7642
   9323SM  H13S12538   7.662   4.283  14.384  1.8376 -0.3125  1.5242
   9323SM  H13T12539   7.601   4.380  14.526 -1.8159  1.4166 -0.3146
   9323SM  C14S12540   7.803   4.420  14.463 -0.3003  0.2005  0.1977
   9323SM  H14S12541   7.855   4.355  14.537 -0.3020 -1.5830 -1.2909
   9323SM  H14T12542   7.812   4.518  14.515  1.1605 -1.2322  2.9107
   9323SM  C15S12543   7.889   4.437  14.339  0.4683  0.0544  0.4315
   9323SM  H15S12544   7.889   4.337  14.289 -0.0187  1.2109 -2.0445
   9323SM  H15T12545   7.848   4.497  14.255 -0.9966  0.1862  1.2207
   9323SM  C16S12546   8.019   4.495  14.378  0.1774 -0.2396  0.6297
   9323SM  H16S12547   7.977   4.584  14.429 -2.4710  0.1810 -2.0501
   9323SM  H16T12548   8.057   4.527  14.279 -0.9865 -0.5049  0.0859
   9323SM  C17S12549   8.130   4.411  14.453  0.3587 -0.2361  0.4608
   9323SM  H17S12550   8.151   4.331  14.379 -0.1915  0.1711 -0.1484
   9323SM  H17T12551   8.086   4.372  14.547 -0.4337  1.5536  0.8809
   9323SM  C18S12552   8.252   4.498  14.481 -0.3250 -0.9120 -0.2766
   9323SM  H18S12553   8.326   4.497  14.398 -0.9578 -1.6316 -0.8463
   9323SM  H18T12554   8.305   4.454  14.568  2.2347 -0.1759 -1.3712
   9323SM  H18U12555   8.210   4.600  14.494 -0.8881 -0.9655 -1.5455
   9323SM   C1F12556   7.622   4.566  13.338 -0.5589  0.0179 -0.4182
   9323SM    OF12557   7.611   4.661  13.259 -0.1451 -0.0008 -0.4143
   9323SM   C2F12558   7.747   4.544  13.413 -0.1279 -0.4133 -0.0193
   9323SM   H2F12559   7.720   4.511  13.515 -0.4993  1.2666  0.4513
   9323SM   H2G12560   7.801   4.641  13.413 -1.0438  0.2073 -3.2919
   9323SM   C3F12561   7.836   4.442  13.340 -0.1747  0.3376  0.5136
   9323SM   H3F12562   7.882   4.470  13.243 -0.5588 -2.8585 -0.7088
   9323SM   H3G12563   7.769   4.356  13.316  0.9295 -1.3635  3.0191
   9323SM   C4F12564   7.944   4.395  13.438 -0.6906  0.5227  0.2930
   9323SM   H4F12565   7.893   4.370  13.534 -0.6997 -0.4474  0.0457
   9323SM   H4G12566   8.010   4.483  13.457 -1.6664  0.8487  2.4874
   9323SM   C5F12567   8.022   4.267  13.411  0.3576  0.0676  0.1090
   9323SM   H5F12568   8.080   4.278  13.316  0.8850 -3.2313 -0.0634
   9323SM   H5G12569   7.943   4.193  13.386 -0.2603  0.5154  0.7176
   9323SM   C6F12570   8.122   4.220  13.518  0.3341 -0.1499  0.3662
   9323SM   H6F12571   8.169   4.305  13.572  1.0966 -0.8292  0.7919
   9323SM   H6G12572   8.200   4.158  13.468  0.0592 -0.6091  0.5015
   9323SM   C7F12573   8.063   4.130  13.623 -0.6560  0.6608  0.6965
   9323SM   H7F12574   8.024   4.037  13.578 -0.6611  0.9794  0.0286
   9323SM   H7G12575   7.974   4.172  13.675 -1.1219 -1.1517  1.4282
   9323SM   C8F12576   8.162   4.087  13.732 -0.1892  0.3781  0.0635
   9323SM   H8F12577   8.227   4.175  13.750 -1.7242  1.2284  1.8651
   9323SM   H8G12578   8.219   4.003  13.687 -0.8100  0.6503 -1.2679
   9323SM   C9F12579   8.099   4.044  13.864  0.6302  0.2013  0.6715
   9323SM   H9F12580   8.058   3.942  13.851 -2.7715  1.6285 -1.1103
   9323SM   H9G12581   8.019   4.111  13.902 -0.1652 -1.3249  1.8218
   9323SM  C10F12582   8.204   4.042  13.975 -0.1892  0.0694 -0.4979
   9323SM  H10F12583   8.220   4.149  14.001  0.3279  0.6459 -2.9604
   9323SM  H10G12584   8.296   3.991  13.938 -2.1512 -2.6036 -2.0852
   9323SM  C11F12585   8.158   3.972  14.101 -0.0204  1.1872  0.5068
   9323SM  H11F12586   8.122   3.873  14.064  0.4542  0.2184  2.5198
   9323SM  H11G12587   8.088   4.031  14.163 -1.8621  0.1850 -0.4847
   9323SM  C12F12588   8.271   3.926  14.188  0.3755  0.1013  0.2690
   9323SM  H12F12589   8.331   4.015  14.214 -0.0952 -0.1101  2.2208
   9323SM  H12G12590   8.337   3.862  14.125 -0.4226  0.2957 -0.8117
   9323SM  C13F12591   8.232   3.859  14.319 -0.5632  0.2856  0.1098
   9323SM  H13F12592   8.150   3.910  14.374 -0.2780 -0.4363  1.2481
   9323SM  H13G12593   8.319   3.856  14.388 -0.0608 -0.7080 -0.5449
   9323SM  C14F12594   8.198   3.709  14.290 -0.1648  0.0304 -0.1477
   9323SM  H14F12595   8.277   3.651  14.239  1.3309  1.3708  0.5714
   9323SM  H14G12596   8.113   3.725  14.220 -0.3184  1.1691  0.2794
   9323SM  C15F12597   8.151   3.633  14.424  0.0037  0.1142  0.1853
   9323SM  H15F12598   8.132   3.525  14.404 -0.2062  0.2120 -0.1510
   9323SM  H15G12599   8.053   3.674  14.458 -0.8439 -1.9731  0.4131
   9323SM  C16F12600   8.239   3.657  14.543  0.3578  0.4592  0.1726
   9323SM  H16F12601   8.232   3.761  14.581 -1.1295  1.0436 -1.5526
   9323SM  H16G12602   8.344   3.636  14.513 -0.5507 -0.1412 -3.0633
   9323SM  C17F12603   8.221   3.546  14.649  0.5445 -0.2383 -0.2433
   9323SM  H17F12604   8.302   3.555  14.725  0.3788 -0.4819 -0.0377
   9323SM  H17G12605   8.229   3.445  14.604 -2.3736 -0.4160 -0.5577
   9323SM  C18F12606   8.091   3.564  14.726  0.5742  0.4140 -0.6511
   9323SM  H18F12607   8.010   3.566  14.649  1.3946  2.7611 -1.5579
   9323SM  H18G12608   8.088   3.669  14.761  0.5495  0.4909 -0.8789
   9323SM  C19F12609   8.058   3.462  14.835 -0.1267  0.3310  0.2928
   9323SM  H19F12610   8.148   3.448  14.898  0.1543  0.0531 -0.1641
   9323SM  H19G12611   8.047   3.365  14.781  2.9625 -1.4592  2.5606
   9323SM  C20F12612   7.933   3.485  14.926 -0.5969  0.5975 -0.1297
   9323SM  H20F12613   7.845   3.486  14.857  1.4548  2.1946 -2.9413
   9323SM  H20G12614   7.938   3.588  14.967 -0.4758  0.3047  0.6028
   9323SM  C21F12615   7.916   3.395  15.044  0.0018  0.1503 -0.9071
   9323SM  H21F12616   8.005   3.390  15.110 -0.3500 -0.4483 -0.4661
   9323SM  H21G12617   7.906   3.293  14.999 -0.3033 -0.2757  0.0920
   9323SM  C22F12618   7.787   3.437  15.117 -0.2048  0.0615  0.8671
   9323SM  H22F12619   7.704   3.423  15.044  1.3267 -1.1226 -0.7360
   9323SM  H22G12620   7.800   3.544  15.143  0.6622  0.4269 -0.9227
   9323SM  C23F12621   7.751   3.333  15.219  0.0376 -0.2669  0.5656
   9323SM  H23F12622   7.842   3.316  15.279 -0.9314  0.2028  2.2355
   9323SM  H23G12623   7.731   3.245  15.154 -1.1032  1.6135 -1.8030
   9323SM  H23H12624   7.661   3.358  15.279  0.4768  0.1916  1.0438
   9423SM     N12625   5.599   0.317  12.422  0.0056 -0.1808  0.0722
   9423SM   C1512626   5.570   0.464  12.430 -0.7475 -0.0539  0.6045
   9423SM  H15A12627   5.657   0.516  12.468 -0.1041 -0.3902 -0.3575
   9423SM  H15B12628   5.483   0.486  12.489 -2.4732 -1.8171 -1.1299
   9423SM  H15C12629   5.574   0.508  12.331  1.5016 -0.5073  0.4205
   9423SM   C1412630   5.470   0.244  12.397  0.7675 -0.3987  0.6453
   9423SM  H14A12631   5.435   0.272  12.298 -0.5102 -2.0782  0.5792
   9423SM  H14B12632   5.390   0.268  12.465 -0.4517  0.5264 -1.0173
   9423SM  H14C12633   5.486   0.137  12.391  3.3577 -0.0117 -1.7636
   9423SM   C1312634   5.696   0.283  12.320 -0.3053 -0.0965  0.2385
   9423SM  H13A12635   5.705   0.175  12.325 -0.6376 -0.0707  1.7755
   9423SM  H13B12636   5.791   0.332  12.332 -0.5486  0.3181  0.4853
   9423SM  H13C12637   5.655   0.310  12.223  1.5199  1.1854 -0.2229
   9423SM   C1212638   5.654   0.276  12.556  0.4836 -0.1898 -0.1217
   9423SM  H12A12639   5.754   0.316  12.557  0.4669 -0.1535  0.6107
   9423SM  H12B12640   5.658   0.168  12.565  1.6430 -0.0255  1.9512
   9423SM   C1112641   5.585   0.318  12.685  0.0153 -0.2379  0.1912
   9423SM  H11A12642   5.559   0.426  12.681  0.4762 -0.1403 -0.3614
   9423SM  H11B12643   5.652   0.313  12.773 -1.3660 -0.8715  1.2328
   9423SM     P12644   5.464   0.110  12.763 -0.0708  0.1587 -0.0468
   9423SM   O1312645   5.326   0.056  12.757 -0.3798 -0.1010  0.1614
   9423SM   O1412646   5.567   0.023  12.706 -0.5226 -0.0903 -0.5722
   9423SM   O1112647   5.501   0.150  12.911  0.7008  0.0067 -0.4628
   9423SM   O1212648   5.455   0.254  12.700 -0.1290 -0.0964  0.0823
   9423SM   C1S12649   5.427   0.261  12.973  0.1049 -0.0206  0.1075
   9423SM   H1S12650   5.317   0.244  12.966  0.1229 -0.0685 -0.0645
   9423SM   H1T12651   5.445   0.360  12.926  0.5756 -0.1002  0.1113
   9423SM    NF12652   5.374   0.362  13.194 -0.0262  0.2120  0.3121
   9423SM   HNF12653   5.423   0.439  13.234 -0.7600  0.7231  0.2452
   9423SM   C2S12654   5.461   0.264  13.126  0.1797 -0.4822  0.0047
   9423SM   H2S12655   5.437   0.162  13.163  0.6791 -0.8675 -0.7165
   9423SM   C3S12656   5.615   0.284  13.154  0.4739 -0.6690 -0.0411
   9423SM   H3S12657   5.634   0.393  13.140  0.7871 -0.9375 -1.8673
   9423SM    O312658   5.701   0.216  13.066 -0.6575  0.8686  0.4665
   9423SM   HO312659   5.643   0.173  13.002 -0.5066 -1.6709  1.9033
   9423SM   C4S12660   5.646   0.258  13.299 -0.0107  0.4741 -0.0068
   9423SM   H4S12661   5.647   0.359  13.342  0.0472  0.6392 -0.4001
   9423SM   C5S12662   5.705   0.149  13.358 -0.0887  0.3088 -0.7955
   9423SM   H5S12663   5.734   0.065  13.293  0.7249 -0.3265  0.3320
   9423SM   C6S12664   5.735   0.134  13.505 -0.1343  0.5618  0.4070
   9423SM   H6S12665   5.838   0.093  13.517  0.0012  1.0152  0.8238
   9423SM   H6T12666   5.670   0.064  13.562 -0.3612  0.2861 -0.1841
   9423SM   C7S12667   5.745   0.269  13.578  0.2494 -0.3293  0.2447
   9423SM   H7S12668   5.652   0.329  13.581  0.6126  0.3093 -0.7493
   9423SM   H7T12669   5.823   0.336  13.535 -0.7777  1.4164  1.0068
   9423SM   C8S12670   5.768   0.245  13.727  0.8953  0.6016  1.2932
   9423SM   H8S12671   5.833   0.155  13.729 -0.5926 -0.5569  0.2989
   9423SM   H8T12672   5.668   0.215  13.766  0.0412 -0.3365 -1.3397
   9423SM   C9S12673   5.829   0.366  13.798 -0.0077  1.1034 -0.5173
   9423SM   H9S12674   5.764   0.452  13.771 -3.5377 -1.4216 -0.7777
   9423SM   H9T12675   5.931   0.389  13.762  0.4769 -1.3723 -0.9242
   9423SM  C10S12676   5.811   0.368  13.951  0.0023  0.3804  0.8478
   9423SM  H10S12677   5.701   0.355  13.966 -0.1372 -0.5581 -0.6921
   9423SM  H10T12678   5.848   0.468  13.981 -1.0007  0.8833  0.4612
   9423SM  C11S12679   5.891   0.256  14.027  0.4358  0.4353 -0.0413
   9423SM  H11S12680   5.996   0.257  13.992  0.8889  1.3734  1.2937
   9423SM  H11T12681   5.842   0.169  13.978 -4.1798  0.6938  3.4086
   9423SM  C12S12682   5.878   0.251  14.173  0.0833 -0.0318 -1.0047
   9423SM  H12S12683   5.900   0.150  14.211 -1.0411 -0.2997 -1.0130
   9423SM  H12T12684   5.777   0.288  14.201  0.4298  0.4960 -0.4186
   9423SM  C13S12685   5.970   0.360  14.236  0.0486  0.5847  0.3629
   9423SM  H13S12686   5.923   0.460  14.237 -1.0841  0.1492 -1.9118
   9423SM  H13T12687   6.063   0.356  14.176 -0.8989 -1.6031 -1.1445
   9423SM  C14S12688   6.004   0.332  14.388  0.0851 -0.2983  0.4997
   9423SM  H14S12689   6.017   0.224  14.407  2.4238 -0.0373  0.6220
   9423SM  H14T12690   5.928   0.382  14.452 -0.2415  2.4983 -1.8500
   9423SM  C15S12691   6.131   0.411  14.408 -0.5178  0.5209  0.0745
   9423SM  H15S12692   6.111   0.518  14.383 -0.5661  0.8816  1.5636
   9423SM  H15T12693   6.210   0.376  14.339 -1.1353 -2.3824  0.7255
   9423SM  C16S12694   6.198   0.398  14.550  0.5951 -0.8211  0.0055
   9423SM  H16S12695   6.116   0.415  14.623 -0.0545 -2.3013 -0.3360
   9423SM  H16T12696   6.282   0.468  14.566  0.3615 -0.5315 -0.0313
   9423SM  C17S12697   6.253   0.261  14.583 -0.0249 -0.0634 -0.5535
   9423SM  H17S12698   6.325   0.244  14.499  2.2492  2.2735  0.7824
   9423SM  H17T12699   6.167   0.191  14.577 -0.4110  0.3514  0.1080
   9423SM  C18S12700   6.316   0.262  14.722  0.1691 -0.0689  0.4884
   9423SM  H18S12701   6.248   0.282  14.808 -0.3028 -1.7378  0.5344
   9423SM  H18T12702   6.407   0.326  14.735 -0.1080  0.1685  1.3489
   9423SM  H18U12703   6.362   0.165  14.752  0.8980 -0.3507 -1.4102
   9423SM   C1F12704   5.247   0.343  13.216  0.2054 -0.9348 -0.5203
   9423SM    OF12705   5.194   0.241  13.183 -0.3630 -0.2093  0.0924
   9423SM   C2F12706   5.169   0.452  13.287 -0.0251  0.3025 -0.0575
   9423SM   H2F12707   5.062   0.423  13.292  0.1362 -0.2318  0.3956
   9423SM   H2G12708   5.170   0.546  13.228 -0.4504  0.2750 -0.1140
   9423SM   C3F12709   5.222   0.485  13.428 -0.3690  0.1201  0.0249
   9423SM   H3F12710   5.167   0.580  13.450  0.7620  0.9076 -0.4469
   9423SM   H3G12711   5.329   0.511  13.417 -0.0603 -1.6783 -1.5666
   9423SM   C4F12712   5.204   0.379  13.536  0.1240  0.2408 -0.2415
   9423SM   H4F12713   5.251   0.285  13.499  0.4928  0.5657 -0.6048
   9423SM   H4G12714   5.099   0.344  13.526  1.0415 -2.5867 -1.0687
   9423SM   C5F12715   5.248   0.422  13.677  0.7720 -0.0124  0.2632
   9423SM   H5F12716   5.184   0.509  13.704  0.5249 -0.0793 -0.0961
   9423SM   H5G12717   5.356   0.449  13.674  0.5811  0.7547 -0.3116
   9423SM   C6F12718   5.205   0.313  13.776 -0.2060  0.2079  0.3482
   9423SM   H6F12719   5.242   0.218  13.732  1.4262  1.7222 -1.7786
   9423SM   H6G12720   5.094   0.306  13.775 -0.1106 -1.8477 -0.8938
   9423SM   C7F12721   5.262   0.337  13.915 -0.4367  0.0672 -0.5471
   9423SM   H7F12722   5.284   0.446  13.926 -2.8611  0.6017 -0.4322
   9423SM   H7G12723   5.361   0.289  13.929 -0.8115 -0.7840 -0.7885
   9423SM   C8F12724   5.167   0.296  14.033 -0.5419  0.4076  0.2139
   9423SM   H8F12725   5.134   0.191  14.017 -0.5119  0.0335  2.3936
   9423SM   H8G12726   5.082   0.362  14.058  0.1444  0.8419  1.4754
   9423SM   C9F12727   5.237   0.301  14.166  0.4929 -0.4672 -0.3416
   9423SM   H9F12728   5.289   0.396  14.190  1.2083 -0.9961  0.2855
   9423SM   H9G12729   5.323   0.230  14.163  1.4087  0.6280 -2.5887
   9423SM  C10F12730   5.138   0.262  14.282 -0.3283 -0.0100  0.1392
   9423SM  H10F12731   5.088   0.171  14.241  0.1807  0.1122 -0.7830
   9423SM  H10G12732   5.058   0.338  14.296 -2.0024 -1.5022 -0.8260
   9423SM  C11F12733   5.213   0.236  14.405 -0.9993 -0.1661 -1.0468
   9423SM  H11F12734   5.251   0.331  14.446 -1.9870  0.0968 -0.6980
   9423SM  H11G12735   5.311   0.185  14.396  1.4269  3.9322 -0.2152
   9423SM  C12F12736   5.134   0.169  14.521  0.2023  0.2399  0.3236
   9423SM  H12F12737   5.083   0.079  14.482  0.5458  0.4093 -0.5542
   9423SM  H12G12738   5.052   0.237  14.552  0.3808  1.2315 -1.2246
   9423SM  C13F12739   5.222   0.134  14.642 -1.0237  0.0440 -0.6014
   9423SM  H13F12740   5.227   0.222  14.710 -0.3983 -1.4376  1.3493
   9423SM  H13G12741   5.325   0.098  14.619 -0.9097 -0.1758  0.2335
   9423SM  C14F12742   5.155   0.028  14.729  0.6559 -0.5046  0.3852
   9423SM  H14F12743   5.140  -0.054  14.656  0.1170  2.2877 -2.8809
   9423SM  H14G12744   5.055   0.060  14.765  1.4056  0.5033  1.6900
   9423SM  C15F12745   5.230  -0.022  14.859 -0.9579 -0.4177  0.1978
   9423SM  H15F12746   5.252   0.063  14.928 -2.9210 -0.4073  0.8888
   9423SM  H15G12747   5.329  -0.056  14.822 -0.5720  0.2117  0.6174
   9423SM  C16F12748   5.154  -0.127  14.941  0.1928 -0.3877 -1.0982
   9423SM  H16F12749   5.149  -0.216  14.874  2.1825 -0.2901 -1.4402
   9423SM  H16G12750   5.049  -0.097  14.961  0.7223  1.1219 -0.4200
   9423SM  C17F12751   5.219  -0.166  15.076  0.2475  0.2041  0.0291
   9423SM  H17F12752   5.328  -0.187  15.072  0.6628  1.8374  1.5121
   9423SM  H17G12753   5.174  -0.261  15.113  0.7107  0.2511  0.7232
   9423SM  C18F12754   5.204  -0.064  15.191  0.4949  0.4493 -0.0318
   9423SM  H18F12755   5.095  -0.045  15.188  0.0386 -1.9268 -0.4740
   9423SM  H18G12756   5.261   0.024  15.154  0.9161  0.1213 -0.1697
   9423SM  C19F12757   5.266  -0.100  15.329 -0.5078  0.6175 -0.3351
   9423SM  H19F12758   5.376  -0.088  15.323 -0.4981  0.1812 -1.1506
   9423SM  H19G12759   5.242  -0.208  15.344  0.8630  0.5812  2.1458
   9423SM  C20F12760   5.198  -0.012  15.450 -0.1250  0.7406 -0.1259
   9423SM  H20F12761   5.088  -0.029  15.438  0.0754  0.2192 -1.3340
   9423SM  H20G12762   5.212   0.098  15.439 -0.2815  0.6945 -0.8246
   9423SM  C21F12763   5.231  -0.044  15.598  0.3554  0.5222 -0.1563
   9423SM  H21F12764   5.335  -0.006  15.610  0.4081  0.3124  0.0641
   9423SM  H21G12765   5.246  -0.152  15.614  2.0034  0.5402 -1.3328
   9423SM  C22F12766   5.141   0.026  15.705 -0.1367  0.5315  0.0656
   9423SM  H22F12767   5.040  -0.018  15.691  0.2382 -0.3128 -0.0642
   9423SM  H22G12768   5.140   0.136  15.689  1.7111  0.7994  1.4966
   9423SM  C23F12769   5.183  -0.014  15.848  0.0529  0.0082  0.7059
   9423SM  H23F12770   5.293  -0.011  15.867  0.4987  0.8678 -1.6768
   9423SM  H23G12771   5.161  -0.122  15.860  0.6877 -0.0129  1.7761
   9423SM  H23H12772   5.131   0.050  15.923 -1.0106  0.5010 -0.4073
   9523SM     N12773   3.045   1.845  13.100  0.1459 -0.7433  0.3561
   9523SM   C1512774   3.170   1.760  13.125 -0.2771 -0.1580 -0.9910
   9523SM  H15A12775   3.174   1.669  13.067  0.1528 -1.3934  0.8866
   9523SM  H15B12776   3.168   1.713  13.223 -1.3653 -1.4933 -1.6244
   9523SM  H15C12777   3.258   1.823  13.117  0.3643 -0.8548  0.1924
   9523SM   C1412778   2.930   1.764  13.140  0.2453 -0.1709 -0.1828
   9523SM  H14A12779   2.940   1.725  13.240 -1.0989 -0.6456 -0.2193
   9523SM  H14B12780   2.916   1.692  13.061 -0.2198 -1.1170  0.7407
   9523SM  H14C12781   2.839   1.822  13.136  0.7375  0.7074  0.8579
   9523SM   C1312782   3.052   1.972  13.179  0.2213  0.0458 -0.5697
   9523SM  H13A12783   3.143   2.029  13.167  0.6628 -0.8165 -1.5441
   9523SM  H13B12784   3.017   1.955  13.279 -1.3884  0.8336 -0.9658
   9523SM  H13C12785   2.974   2.033  13.136 -0.6647 -2.3099 -2.5491
   9523SM   C1212786   3.051   1.891  12.953 -0.6739  0.2695 -0.2406
   9523SM  H12A12787   3.079   1.806  12.893  1.4463 -0.6955  1.9555
   9523SM  H12B12788   3.126   1.968  12.942  0.3535 -0.2677  2.2153
   9523SM   C1112789   2.929   1.955  12.891  0.4333 -0.0282 -0.3191
   9523SM  H11A12790   2.846   1.885  12.917  1.3779 -1.3152 -0.6588
   9523SM  H11B12791   2.938   1.955  12.780  0.5230  0.5188 -0.3142
   9523SM     P12792   2.801   2.173  12.864  0.2145 -0.1615  0.1048
   9523SM   O1312793   2.766   2.298  12.939 -0.2263 -1.0184 -0.0706
   9523SM   O1412794   2.856   2.193  12.722 -0.2311 -1.0223 -0.1657
   9523SM   O1112795   2.668   2.088  12.868  0.2742 -0.1445 -0.5765
   9523SM   O1212796   2.912   2.089  12.944  0.6522  0.0401 -0.1640
   9523SM   C1S12797   2.612   2.033  12.990  0.3306  0.2025 -0.1862
   9523SM   H1S12798   2.690   1.984  13.052  1.5660  1.8725 -0.3507
   9523SM   H1T12799   2.532   1.967  12.950 -2.0492  2.7444  0.0383
   9523SM    NF12800   2.525   2.082  13.215  0.4191  0.3400  0.3409
   9523SM   HNF12801   2.448   2.023  13.239 -1.5071  2.8662  0.8612
   9523SM   C2S12802   2.536   2.135  13.077 -0.5721  0.0473  0.0522
   9523SM   H2S12803   2.591   2.230  13.090  1.7452 -1.0051 -1.4237
   9523SM   C3S12804   2.410   2.164  12.999  0.1192  0.5213  0.0336
   9523SM   H3S12805   2.351   2.069  13.009 -0.6376  0.9863  0.0920
   9523SM    O312806   2.417   2.174  12.861  0.3127 -0.3693  0.3078
   9523SM   HO312807   2.510   2.149  12.853  0.2691 -0.9208  1.3551
   9523SM   C4S12808   2.312   2.263  13.061 -0.1638 -0.6441  0.0499
   9523SM   H4S12809   2.366   2.349  13.102  1.0423 -1.7385  0.8540
   9523SM   C5S12810   2.180   2.257  13.086  0.5747  0.2508 -0.1258
   9523SM   H5S12811   2.124   2.173  13.043  0.7202 -0.5883  1.2775
   9523SM   C6S12812   2.102   2.368  13.153 -0.3120 -0.4450 -0.0226
   9523SM   H6S12813   1.993   2.348  13.143 -0.8544  1.7920  0.7486
   9523SM   H6T12814   2.122   2.463  13.099 -0.2770  0.4370  1.4794
   9523SM   C7S12815   2.132   2.384  13.305  0.5267  0.2323 -0.0375
   9523SM   H7S12816   2.051   2.446  13.350 -0.1741 -1.5982  1.3194
   9523SM   H7T12817   2.228   2.437  13.322 -0.7560  2.4498  0.7817
   9523SM   C8S12818   2.143   2.256  13.389 -0.4609 -0.0764  0.0307
   9523SM   H8S12819   2.209   2.186  13.334  0.2586  1.1290 -0.6764
   9523SM   H8T12820   2.043   2.207  13.391 -0.9873  0.8855 -1.4940
   9523SM   C9S12821   2.183   2.276  13.536 -0.2711 -0.3531  0.6085
   9523SM   H9S12822   2.133   2.358  13.592  1.3408  0.6795  0.5979
   9523SM   H9T12823   2.289   2.307  13.536 -0.3042 -0.1627 -0.7139
   9523SM  C10S12824   2.160   2.159  13.631  0.2044 -0.3516 -0.0888
   9523SM  H10S12825   2.215   2.065  13.606  2.7465  1.0776 -0.2087
   9523SM  H10T12826   2.051   2.142  13.640 -0.3511  2.9495  0.4148
   9523SM  C11S12827   2.202   2.186  13.780 -0.1272 -0.0795 -0.6284
   9523SM  H11S12828   2.311   2.207  13.782 -0.5381  2.5129 -1.6498
   9523SM  H11T12829   2.179   2.091  13.834 -2.8460 -0.7795 -2.7707
   9523SM  C12S12830   2.117   2.299  13.841 -0.6980  0.4909  0.8876
   9523SM  H12S12831   2.014   2.310  13.800 -0.2146  0.5121 -0.3890
   9523SM  H12T12832   2.171   2.395  13.826 -0.0797 -0.0481 -0.4622
   9523SM  C13S12833   2.111   2.277  13.997 -0.2591 -0.0502  0.4987
   9523SM  H13S12834   2.214   2.267  14.036  0.1333 -0.1490 -0.5424
   9523SM  H13T12835   2.051   2.184  14.012 -1.4820  0.6916  0.3511
   9523SM  C14S12836   2.045   2.402  14.061 -0.1163  0.2224  0.2255
   9523SM  H14S12837   1.943   2.412  14.018  0.1910  2.0862 -0.1724
   9523SM  H14T12838   2.106   2.489  14.028  0.3722 -0.3071 -0.2818
   9523SM  C15S12839   2.028   2.407  14.212  0.5172 -0.1895  0.2102
   9523SM  H15S12840   2.000   2.311  14.261  2.1062  1.2018  4.2608
   9523SM  H15T12841   1.936   2.464  14.236 -0.8828 -2.8537  1.6241
   9523SM  C16S12842   2.155   2.462  14.280  0.2773  0.2214  0.1182
   9523SM  H16S12843   2.177   2.558  14.229  0.4926 -0.6275 -1.4411
   9523SM  H16T12844   2.241   2.391  14.278 -0.9551 -1.3492  0.0616
   9523SM  C17S12845   2.123   2.504  14.424  0.0989 -0.1280  0.0275
   9523SM  H17S12846   2.109   2.419  14.495  0.6168 -0.4368 -0.2353
   9523SM  H17T12847   2.023   2.552  14.434 -1.3082 -3.2218  2.9066
   9523SM  C18S12848   2.233   2.589  14.484  0.2371  0.0761 -0.2477
   9523SM  H18S12849   2.221   2.694  14.449 -4.0682  0.5303  1.9383
   9523SM  H18T12850   2.335   2.547  14.469 -0.3276 -1.7349  0.6373
   9523SM  H18U12851   2.212   2.608  14.592 -0.6629  0.6027 -0.5028
   9523SM   C1F12852   2.625   2.087  13.304  0.0048 -0.1951 -0.0303
   9523SM    OF12853   2.735   2.133  13.272 -0.4787 -0.1052 -0.1205
   9523SM   C2F12854   2.604   2.033  13.437  0.1584  0.4494  0.0398
   9523SM   H2F12855   2.591   1.923  13.432 -1.0145  0.5512  0.5741
   9523SM   H2G12856   2.518   2.075  13.493  1.2476  2.3872  0.3393
   9523SM   C3F12857   2.733   2.057  13.514  0.8495 -0.2142 -0.3246
   9523SM   H3F12858   2.758   2.163  13.537  0.5960  0.2389 -1.9971
   9523SM   H3G12859   2.812   2.008  13.454  1.7990 -0.3194  0.9837
   9523SM   C4F12860   2.722   1.991  13.648  0.0954 -0.4391 -0.0795
   9523SM   H4F12861   2.819   1.972  13.699 -1.0244 -0.7709  2.0300
   9523SM   H4G12862   2.689   1.886  13.629  0.4648 -0.4038 -0.9696
   9523SM   C5F12863   2.617   2.064  13.742 -0.1587 -0.2233  0.2275
   9523SM   H5F12864   2.514   2.032  13.714 -0.0672  1.2284 -2.0515
   9523SM   H5G12865   2.613   2.173  13.718  2.6170 -0.6556 -2.9589
   9523SM   C6F12866   2.641   2.027  13.882  0.2831 -0.0713 -0.8180
   9523SM   H6F12867   2.724   2.095  13.913  1.7421 -1.6497 -1.1658
   9523SM   H6G12868   2.657   1.918  13.895 -0.6055 -0.2483 -1.1261
   9523SM   C7F12869   2.528   2.076  13.974 -0.5394  0.1602  0.5125
   9523SM   H7F12870   2.440   2.016  13.941 -0.6222  1.8138 -2.6689
   9523SM   H7G12871   2.501   2.181  13.949 -0.2022  0.3191  0.8158
   9523SM   C8F12872   2.553   2.080  14.128 -0.9345  0.1260 -0.1079
   9523SM   H8F12873   2.648   2.137  14.135  0.4243 -2.0233 -0.1266
   9523SM   H8G12874   2.575   1.979  14.168  0.6933  0.1843 -0.7843
   9523SM   C9F12875   2.446   2.156  14.204 -0.4512  0.4286  0.1809
   9523SM   H9F12876   2.414   2.246  14.148  1.3298  1.2578  0.4314
   9523SM   H9G12877   2.497   2.199  14.293  1.0083  1.7123 -1.2170
   9523SM  C10F12878   2.335   2.067  14.242  0.8667 -0.7912  0.2708
   9523SM  H10F12879   2.322   1.992  14.161  1.2934  0.6526 -1.1909
   9523SM  H10G12880   2.244   2.130  14.242  1.7232  0.5188 -0.8561
   9523SM  C11F12881   2.353   1.998  14.377 -0.1252  0.0217 -0.5083
   9523SM  H11F12882   2.446   1.937  14.380 -0.3125 -0.2634 -0.5500
   9523SM  H11G12883   2.265   1.934  14.397 -0.6184  0.4790 -1.1809
   9523SM  C12F12884   2.343   2.101  14.491  0.2018  0.4228  0.1565
   9523SM  H12F12885   2.259   2.171  14.471 -0.4179 -0.4782 -0.4286
   9523SM  H12G12886   2.438   2.160  14.487  0.4195  0.0427 -0.4126
   9523SM  C13F12887   2.315   2.040  14.628  0.0983  0.0295  0.0796
   9523SM  H13F12888   2.401   1.973  14.647 -0.7889 -1.5341 -1.2102
   9523SM  H13G12889   2.232   1.968  14.618  2.7786 -3.1504 -1.0451
   9523SM  C14F12890   2.309   2.134  14.744 -0.5256  0.1272  0.4508
   9523SM  H14F12891   2.404   2.191  14.744 -0.0660 -0.5931  1.6504
   9523SM  H14G12892   2.303   2.068  14.833  1.8315 -0.3632  0.3062
   9523SM  C15F12893   2.195   2.228  14.749  0.4900 -0.1193  0.3006
   9523SM  H15F12894   2.221   2.306  14.674  0.3153  1.0288  1.4069
   9523SM  H15G12895   2.193   2.271  14.851 -2.0377  0.2342  0.1568
   9523SM  C16F12896   2.058   2.157  14.724  0.7717  0.2675 -0.5602
   9523SM  H16F12897   2.026   2.099  14.813 -3.0325 -1.3616 -2.7329
   9523SM  H16G12898   2.060   2.088  14.638 -0.8359 -2.3076  1.3424
   9523SM  C17F12899   1.935   2.252  14.706  0.1175  0.3121  0.0902
   9523SM  H17F12900   1.852   2.190  14.665  1.6369 -2.3921  0.8283
   9523SM  H17G12901   1.970   2.332  14.637 -0.2306  1.3970  1.1414
   9523SM  C18F12902   1.883   2.313  14.833 -0.0231  0.3546 -0.0174
   9523SM  H18F12903   1.965   2.370  14.882 -2.2105  3.4858  0.2865
   9523SM  H18G12904   1.845   2.229  14.895 -2.6821  1.1661 -0.4137
   9523SM  C19F12905   1.766   2.411  14.811  0.2673 -0.9070  0.4094
   9523SM  H19F12906   1.728   2.451  14.907 -0.6592 -1.1615  0.1611
   9523SM  H19G12907   1.683   2.350  14.770 -0.8536 -0.1937  1.5720
   9523SM  C20F12908   1.793   2.528  14.720  0.3065 -0.0017 -0.0817
   9523SM  H20F12909   1.850   2.501  14.629  0.2102  1.6348 -0.6600
   9523SM  H20G12910   1.853   2.605  14.772  0.4781  0.8560 -1.4991
   9523SM  C21F12911   1.666   2.606  14.672 -1.6164  0.1389  0.4442
   9523SM  H21F12912   1.625   2.549  14.586 -1.5071  1.3171 -0.4199
   9523SM  H21G12913   1.717   2.695  14.629 -0.1856 -1.2340 -0.8344
   9523SM  C22F12914   1.561   2.627  14.779  0.1631 -0.6972  0.5809
   9523SM  H22F12915   1.504   2.535  14.806 -0.2157 -1.4316 -2.4154
   9523SM  H22G12916   1.482   2.692  14.737  2.0187  0.6340 -1.0156
   9523SM  C23F12917   1.610   2.696  14.905  0.1057 -0.2153  0.0725
   9523SM  H23F12918   1.698   2.649  14.953  0.8613  0.9150 -0.1464
   9523SM  H23G12919   1.537   2.706  14.988  1.2355 -1.3787  1.2334
   9523SM  H23H12920   1.639   2.800  14.878  0.3845 -0.4162 -0.4218
   9623SM     N12921   2.943   1.126  12.560  0.4622  0.0218 -0.5511
   9623SM   C1512922   3.083   1.089  12.538  0.3662  0.5773 -0.8038
   9623SM  H15A12923   3.109   1.089  12.433 -1.8177  0.2799 -1.4037
   9623SM  H15B12924   3.105   0.990  12.574  0.5226  1.3769  1.4310
   9623SM  H15C12925   3.151   1.156  12.589 -0.9208 -0.5065  2.6129
   9623SM   C1412926   2.919   1.267  12.516 -0.1071  0.2630  0.6900
   9623SM  H14A12927   2.957   1.336  12.590  1.1929  2.3795 -1.7624
   9623SM  H14B12928   2.814   1.289  12.505  0.1851  1.4305 -0.0149
   9623SM  H14C12929   2.969   1.283  12.422 -0.5669  1.1979  0.5915
   9623SM   C1312930   2.852   1.029  12.491  0.5350  0.0606 -0.0185
   9623SM  H13A12931   2.751   1.028  12.529 -0.4108 -0.0338 -2.3836
   9623SM  H13B12932   2.884   0.926  12.484 -3.0780 -1.1999 -0.2845
   9623SM  H13C12933   2.838   1.073  12.394 -2.4653 -0.1807  0.1979
   9623SM   C1212934   2.912   1.115  12.711  0.2359 -0.5272 -0.0816
   9623SM  H12A12935   2.985   1.181  12.756  0.5077 -0.0825 -1.1407
   9623SM  H12B12936   2.936   1.013  12.738  0.7728 -0.4424 -0.2146
   9623SM   C1112937   2.770   1.151  12.757 -0.2890  0.1070 -0.7282
   9623SM  H11A12938   2.739   1.254  12.729 -0.5514  0.4845  0.8918
   9623SM  H11B12939   2.770   1.165  12.867 -0.4431  2.2446 -0.9619
   9623SM     P12940   2.651   0.911  12.769 -0.0892 -0.2119 -0.1369
   9623SM   O1312941   2.514   0.870  12.735 -0.2198  0.6490 -0.5613
   9623SM   O1412942   2.758   0.811  12.727 -0.4884 -0.4157 -0.1473
   9623SM   O1112943   2.666   0.950  12.919  0.0269 -0.3947  0.2398
   9623SM   O1212944   2.684   1.054  12.697  0.0843  0.4495  0.5706
   9623SM   C1S12945   2.701   0.860  13.021  0.1343  0.3108 -0.4841
   9623SM   H1S12946   2.804   0.819  13.010  0.5852  1.4534 -0.6732
   9623SM   H1T12947   2.642   0.766  13.026 -0.7443  0.8543 -0.5752
   9623SM    NF12948   2.739   0.814  13.268 -0.0199 -0.1934 -0.2929
   9623SM   HNF12949   2.673   0.751  13.308  0.2112 -0.4915 -0.3692
   9623SM   C2S12950   2.693   0.913  13.172 -0.1511 -0.2674 -0.2846
   9623SM   H2S12951   2.746   1.009  13.187 -1.7306  0.3143  1.9949
   9623SM   C3S12952   2.547   0.965  13.190 -0.4733 -0.3733  0.1421
   9623SM   H3S12953   2.485   0.874  13.174  1.3872 -1.6549 -0.1155
   9623SM    O312954   2.499   1.074  13.107  0.3707  0.3591  0.5425
   9623SM   HO312955   2.552   1.066  13.027 -1.7032  0.9716 -0.9906
   9623SM   C4S12956   2.533   1.005  13.333  0.2066 -0.5572 -0.2656
   9623SM   H4S12957   2.523   0.918  13.400 -0.3170  1.6119  2.7433
   9623SM   C5S12958   2.550   1.129  13.390  0.2964  0.2729 -0.1937
   9623SM   H5S12959   2.563   1.221  13.331 -0.0816  0.6193  0.2493
   9623SM   C6S12960   2.564   1.155  13.539  0.0788  0.2365  0.4917
   9623SM   H6S12961   2.490   1.090  13.590 -0.7461  0.9244  0.1998
   9623SM   H6T12962   2.539   1.260  13.564 -0.5652 -0.4259  2.8870
   9623SM   C7S12963   2.710   1.135  13.585 -0.4099 -0.6090  0.6869
   9623SM   H7S12964   2.769   1.205  13.522 -0.0277 -1.9651 -0.5236
   9623SM   H7T12965   2.736   1.028  13.574 -0.6474 -0.5485 -0.6774
   9623SM   C8S12966   2.723   1.177  13.732 -0.8281 -0.8388 -0.9349
   9623SM   H8S12967   2.661   1.103  13.787  0.2889 -0.6042  0.6981
   9623SM   H8T12968   2.695   1.282  13.754 -0.6539 -1.0591  0.4564
   9623SM   C9S12969   2.871   1.154  13.781  0.1380 -0.2446  0.1718
   9623SM   H9S12970   2.936   1.216  13.716 -1.6492  0.3497 -1.1095
   9623SM   H9T12971   2.905   1.049  13.765  1.3078  0.1455  0.0405
   9623SM  C10S12972   2.889   1.189  13.933 -0.3219 -0.6079 -0.0955
   9623SM  H10S12973   2.818   1.130  13.995  1.0448 -0.1937  1.9632
   9623SM  H10T12974   2.855   1.294  13.946  0.1534 -0.2726 -1.3651
   9623SM  C11S12975   3.031   1.158  13.976 -0.7963  0.0850 -0.6583
   9623SM  H11S12976   3.104   1.198  13.902  0.1771 -0.7446 -0.1715
   9623SM  H11T12977   3.054   1.050  13.965  2.1383  0.4154  1.0000
   9623SM  C12S12978   3.077   1.218  14.110  0.3748  0.5649  0.0381
   9623SM  H12S12979   3.181   1.193  14.141  1.0142 -0.7259 -2.7721
   9623SM  H12T12980   3.009   1.175  14.186  1.3286 -0.4708  0.3231
   9623SM  C13S12981   3.066   1.374  14.133  0.0388  0.8680  0.1266
   9623SM  H13S12982   2.959   1.403  14.142 -0.2886 -0.2283 -0.0872
   9623SM  H13T12983   3.106   1.427  14.045 -0.9753 -0.0434 -0.9309
   9623SM  C14S12984   3.141   1.405  14.263 -0.3730 -0.1259 -0.4558
   9623SM  H14S12985   3.250   1.407  14.242 -0.7380 -1.0564 -2.8068
   9623SM  H14T12986   3.129   1.320  14.334 -0.4306  1.0661  1.0108
   9623SM  C15S12987   3.099   1.530  14.331  0.2418 -0.2811 -0.3095
   9623SM  H15S12988   2.992   1.514  14.356 -0.1997  1.1507 -1.1658
   9623SM  H15T12989   3.101   1.618  14.263 -0.5679 -0.5537 -0.7006
   9623SM  C16S12990   3.189   1.566  14.446  0.2509 -0.4307  0.4715
   9623SM  H16S12991   3.294   1.569  14.409 -0.2255 -1.6654 -1.0840
   9623SM  H16T12992   3.177   1.498  14.533 -2.1704  1.0211  1.3700
   9623SM  C17S12993   3.150   1.709  14.492  0.4765 -0.1809 -0.0337
   9623SM  H17S12994   3.041   1.728  14.500  0.9162  3.3551 -0.5802
   9623SM  H17T12995   3.182   1.773  14.406  2.9801 -1.3574 -0.0401
   9623SM  C18S12996   3.227   1.737  14.622 -0.1494  0.0173  0.7271
   9623SM  H18S12997   3.334   1.721  14.596 -0.6861 -0.3009 -1.4981
   9623SM  H18T12998   3.197   1.661  14.697 -0.1301 -2.5911 -1.7305
   9623SM  H18U12999   3.206   1.839  14.663 -0.4004  0.2525  0.0214
   9623SM   C1F13000   2.864   0.791  13.297 -0.1496 -0.3481 -0.0476
   9623SM    OF13001   2.949   0.843  13.228  0.1796  0.4330 -0.1714
   9623SM   C2F13002   2.898   0.710  13.419  0.2529 -0.1242 -0.6785
   9623SM   H2F13003   2.808   0.716  13.483 -0.0193  0.2765 -1.0910
   9623SM   H2G13004   2.984   0.758  13.471  0.2515 -1.4916  0.6473
   9623SM   C3F13005   2.937   0.562  13.393 -0.2060 -0.4758 -0.1439
   9623SM   H3F13006   3.046   0.554  13.373 -0.0946 -1.9088  0.8660
   9623SM   H3G13007   2.883   0.519  13.306  0.7336  1.2411 -1.6480
   9623SM   C4F13008   2.912   0.466  13.512  0.4837 -0.5266 -0.0057
   9623SM   H4F13009   2.940   0.365  13.473 -0.1164 -0.7979  0.2455
   9623SM   H4G13010   2.803   0.460  13.535  0.2168 -0.5460 -1.2296
   9623SM   C5F13011   2.991   0.503  13.640 -0.0202 -0.0524  0.1291
   9623SM   H5F13012   2.972   0.421  13.712  1.0674 -1.9500 -1.6470
   9623SM   H5G13013   2.958   0.602  13.679  0.4796  0.9224 -1.8227
   9623SM   C6F13014   3.149   0.490  13.627 -0.4264  0.4623  0.9814
   9623SM   H6F13015   3.173   0.561  13.545 -1.9202 -1.2267 -1.0315
   9623SM   H6G13016   3.169   0.383  13.604 -3.1662  0.3411 -1.4678
   9623SM   C7F13017   3.229   0.525  13.748  0.0100  0.4458 -0.1310
   9623SM   H7F13018   3.194   0.614  13.804 -2.1362 -2.1569  3.0181
   9623SM   H7G13019   3.337   0.525  13.720  0.0102 -1.5412 -0.2379
   9623SM   C8F13020   3.231   0.418  13.862 -0.4372  0.7802  0.1452
   9623SM   H8F13021   3.274   0.326  13.816 -0.7782  0.4410  0.4987
   9623SM   H8G13022   3.133   0.371  13.885  0.7730 -1.5001  0.8898
   9623SM   C9F13023   3.311   0.456  13.993 -0.4095 -0.7853 -0.5295
   9623SM   H9F13024   3.244   0.532  14.039 -1.7343 -2.2367  0.0339
   9623SM   H9G13025   3.408   0.504  13.968 -1.4409  1.1092 -1.1299
   9623SM  C10F13026   3.321   0.329  14.085  0.2284  0.2542 -0.1128
   9623SM  H10F13027   3.347   0.244  14.019 -0.1741  2.1139 -2.8506
   9623SM  H10G13028   3.218   0.312  14.122  0.7468 -1.5902  0.6046
   9623SM  C11F13029   3.417   0.347  14.205 -0.7376  0.9013 -0.1735
   9623SM  H11F13030   3.420   0.446  14.257  2.6202 -0.5053  2.6861
   9623SM  H11G13031   3.515   0.329  14.155 -0.9543 -1.0420  0.0580
   9623SM  C12F13032   3.386   0.248  14.313 -0.2375 -0.0588 -0.4623
   9623SM  H12F13033   3.476   0.234  14.377  0.5204  1.0123 -1.2511
   9623SM  H12G13034   3.362   0.151  14.264  0.6057 -0.1017 -0.8167
   9623SM  C13F13035   3.268   0.295  14.403  0.3590  0.1289 -0.2008
   9623SM  H13F13036   3.176   0.319  14.346  0.4023  0.8120  0.0184
   9623SM  H13G13037   3.295   0.392  14.450  0.0543  0.1089  0.0216
   9623SM  C14F13038   3.229   0.185  14.505 -0.3908 -0.7816 -0.0752
   9623SM  H14F13039   3.206   0.094  14.446  0.6827 -0.7470 -0.5746
   9623SM  H14G13040   3.138   0.225  14.555  1.0651 -0.9327  2.8912
   9623SM  C15F13041   3.331   0.150  14.616  0.4191 -0.5052  0.2041
   9623SM  H15F13042   3.426   0.104  14.582  1.4986 -0.0912  2.4942
   9623SM  H15G13043   3.274   0.083  14.683  0.1393  0.5480  1.0426
   9623SM  C16F13044   3.382   0.277  14.696 -0.1934  0.4731  0.0774
   9623SM  H16F13045   3.422   0.354  14.626  0.9101 -0.1972 -0.0516
   9623SM  H16G13046   3.469   0.247  14.758 -0.4037 -1.2915 -0.4298
   9623SM  C17F13047   3.265   0.330  14.785  0.0919 -0.7356 -0.4021
   9623SM  H17F13048   3.165   0.283  14.782  0.0339 -0.7353  0.9315
   9623SM  H17G13049   3.248   0.428  14.736 -1.6208 -1.0265 -0.4355
   9623SM  C18F13050   3.304   0.348  14.931 -0.7733  0.3964 -0.3689
   9623SM  H18F13051   3.413   0.369  14.943 -0.9330  0.5863  0.8112
   9623SM  H18G13052   3.278   0.258  14.991  0.0770 -0.3175 -1.0283
   9623SM  C19F13053   3.248   0.463  14.998  0.3981 -0.7104  0.2283
   9623SM  H19F13054   3.137   0.459  15.007  0.3919 -0.3520  0.3079
   9623SM  H19G13055   3.260   0.550  14.930 -0.0954 -1.2586 -0.5794
   9623SM  C20F13056   3.311   0.496  15.129 -0.5085  0.2931 -0.7821
   9623SM  H20F13057   3.281   0.595  15.169  0.8671 -0.0643  1.2954
   9623SM  H20G13058   3.421   0.500  15.114  0.0373 -1.0359  2.2669
   9623SM  C21F13059   3.288   0.392  15.239 -0.4100 -0.0816  0.3206
   9623SM  H21F13060   3.343   0.432  15.327  0.2318 -1.3403  0.5149
   9623SM  H21G13061   3.345   0.302  15.209 -0.6676 -0.2712  0.3992
   9623SM  C22F13062   3.139   0.358  15.267  0.3080  0.2230 -0.2978
   9623SM  H22F13063   3.153   0.268  15.331 -3.1253 -1.0651 -1.1661
   9623SM  H22G13064   3.084   0.321  15.178  0.3444  1.8351 -1.0229
   9623SM  C23F13065   3.059   0.462  15.343 -0.1433 -0.3903  0.7706
   9623SM  H23F13066   3.105   0.500  15.438 -3.6571 -0.0493  2.4743
   9623SM  H23G13067   2.963   0.419  15.376 -1.1524  0.6974 -0.6285
   9623SM  H23H13068   3.039   0.552  15.281  0.4399 -0.0343  1.0798
   9723SM     N13069   4.673   0.333  12.523 -0.6737  0.3975 -0.5295
   9723SM   C1513070   4.772   0.228  12.543  0.1889 -0.0514  0.2055
   9723SM  H15A13071   4.845   0.254  12.618  1.2729  2.9105 -1.6929
   9723SM  H15B13072   4.821   0.195  12.452  0.7353 -1.8789  1.1074
   9723SM  H15C13073   4.722   0.141  12.584  2.0844 -1.2092  0.1920
   9723SM   C1413074   4.590   0.284  12.414 -0.0741 -0.5507  0.0515
   9723SM  H14A13075   4.552   0.184  12.426 -0.7373 -0.2644  0.4054
   9723SM  H14B13076   4.646   0.284  12.322  0.2426  1.4266  0.2042
   9723SM  H14C13077   4.500   0.342  12.401 -0.5630 -1.3928 -0.3510
   9723SM   C1313078   4.585   0.344  12.649 -0.2671  0.8729  0.4729
   9723SM  H13A13079   4.527   0.433  12.631 -2.2481 -0.7872 -2.0536
   9723SM  H13B13080   4.644   0.364  12.737 -2.1196  2.6344  1.4075
   9723SM  H13C13081   4.521   0.258  12.658  0.6433 -0.3195 -2.8565
   9723SM   C1213082   4.739   0.466  12.487 -0.9121 -0.8563  0.2492
   9723SM  H12A13083   4.656   0.525  12.452 -0.6814  1.0480  2.6894
   9723SM  H12B13084   4.806   0.455  12.403  0.4221 -0.8200  1.2722
   9723SM   C1113085   4.830   0.543  12.590 -0.5200  0.4501 -0.4095
   9723SM  H11A13086   4.887   0.636  12.570 -0.1654  0.5554  0.9733
   9723SM  H11B13087   4.917   0.474  12.592 -0.3620  0.5661 -2.0305
   9723SM     P13088   4.704   0.692  12.762  0.2946 -0.1361  0.5422
   9723SM   O1313089   4.798   0.753  12.861  0.2182  0.3743 -0.0198
   9723SM   O1413090   4.667   0.769  12.640 -0.1913  0.3137  0.3106
   9723SM   O1113091   4.577   0.634  12.843  0.8189 -0.6322 -0.2275
   9723SM   O1213092   4.767   0.551  12.717  0.4769 -0.4547 -0.1976
   9723SM   C1S13093   4.575   0.528  12.942 -0.6696  0.5812  0.5220
   9723SM   H1S13094   4.678   0.487  12.949 -0.6443  0.5732  0.0933
   9723SM   H1T13095   4.505   0.446  12.918 -0.8429  0.2606  1.9875
   9723SM    NF13096   4.571   0.481  13.180  0.2822 -0.4465 -0.3040
   9723SM   HNF13097   4.503   0.413  13.202  0.9795 -0.4895  1.9388
   9723SM   C2S13098   4.540   0.586  13.082 -0.1586 -0.0839 -0.1655
   9723SM   H2S13099   4.605   0.673  13.108 -1.0735  0.0423  1.9097
   9723SM   C3S13100   4.397   0.639  13.086  0.7595 -0.1871 -0.1742
   9723SM   H3S13101   4.321   0.560  13.069  0.2230  0.2360  0.2083
   9723SM    O313102   4.369   0.746  12.991  0.3681  0.9518 -0.4645
   9723SM   HO313103   4.449   0.755  12.939  0.0104 -1.7605 -1.6511
   9723SM   C4S13104   4.375   0.692  13.226  0.0491  0.0682 -0.2912
   9723SM   H4S13105   4.324   0.628  13.299  0.9496  2.6878  2.8772
   9723SM   C5S13106   4.398   0.820  13.261  0.5375 -0.3013 -0.7823
   9723SM   H5S13107   4.419   0.899  13.188  0.0531  0.0580 -0.5351
   9723SM   C6S13108   4.356   0.864  13.398 -0.3641  0.4439 -0.4073
   9723SM   H6S13109   4.253   0.832  13.424  0.8085 -2.5968  0.9443
   9723SM   H6T13110   4.365   0.975  13.407 -1.0217  0.8835 -3.8306
   9723SM   C7S13111   4.447   0.794  13.504  0.2626  0.6492 -0.4917
   9723SM   H7S13112   4.556   0.805  13.488  0.0665  2.4888 -0.7961
   9723SM   H7T13113   4.438   0.684  13.511  3.2907  0.4189  2.0585
   9723SM   C8S13114   4.401   0.844  13.641  0.6558 -0.6322 -0.6549
   9723SM   H8S13115   4.295   0.813  13.659 -0.1751  1.6996 -1.2162
   9723SM   H8T13116   4.388   0.954  13.631  0.3275 -0.5823  0.2261
   9723SM   C9S13117   4.494   0.813  13.758  0.2546  0.7150 -0.3975
   9723SM   H9S13118   4.583   0.880  13.756  1.7119 -1.1340 -1.7147
   9723SM   H9T13119   4.524   0.707  13.743 -1.3254 -0.4151  3.3026
   9723SM  C10S13120   4.423   0.822  13.902 -0.4988  0.4964 -0.2943
   9723SM  H10S13121   4.333   0.757  13.903  0.4164 -0.8556  1.6523
   9723SM  H10T13122   4.377   0.921  13.922  0.8511  1.2641 -0.8653
   9723SM  C11S13123   4.522   0.794  14.021 -0.0107  0.2753  0.1838
   9723SM  H11S13124   4.616   0.852  14.015 -0.4971  0.9757 -0.8911
   9723SM  H11T13125   4.540   0.684  14.018  2.4934  0.6410  0.0653
   9723SM  C12S13126   4.465   0.850  14.152  1.1830 -0.4158  0.2668
   9723SM  H12S13127   4.363   0.822  14.186  0.6109  0.7688 -0.4278
   9723SM  H12T13128   4.465   0.961  14.154  1.6802 -0.4166  1.0643
   9723SM  C13S13129   4.559   0.826  14.272  0.4526  0.1125 -0.0357
   9723SM  H13S13130   4.644   0.897  14.267 -0.7874  1.6664  0.1131
   9723SM  H13T13131   4.603   0.725  14.263  0.6250  0.2967 -1.5773
   9723SM  C14S13132   4.489   0.870  14.404 -0.5588 -0.0252  0.2491
   9723SM  H14S13133   4.404   0.802  14.426  1.4677 -1.8218  3.2053
   9723SM  H14T13134   4.443   0.970  14.390  0.2889  0.0284 -2.8267
   9723SM  C15S13135   4.569   0.863  14.535 -0.1713 -0.0751 -0.1824
   9723SM  H15S13136   4.631   0.953  14.555 -0.3123  0.1178 -0.6051
   9723SM  H15T13137   4.642   0.779  14.530 -0.7606 -0.8260  2.4580
   9723SM  C16S13138   4.481   0.828  14.661  0.1027  0.5385 -0.0499
   9723SM  H16S13139   4.456   0.720  14.656  1.4480  0.2641 -1.8707
   9723SM  H16T13140   4.385   0.884  14.654  0.3416  0.7700 -1.9282
   9723SM  C17S13141   4.552   0.867  14.794 -0.7800  0.4312 -0.2917
   9723SM  H17S13142   4.583   0.973  14.800  1.8589 -0.3213  1.0636
   9723SM  H17T13143   4.649   0.812  14.800 -0.4701  1.0261  0.3254
   9723SM  C18S13144   4.473   0.826  14.919  0.6143  0.4414 -0.1232
   9723SM  H18S13145   4.372   0.872  14.924  0.8586  0.8872  1.3194
   9723SM  H18T13146   4.525   0.862  15.010 -0.4797 -1.7165  1.4457
   9723SM  H18U13147   4.472   0.716  14.933  2.4309 -0.2803 -4.1459
   9723SM   C1F13148   4.696   0.455  13.224 -0.1898  0.0636  0.3895
   9723SM    OF13149   4.792   0.520  13.183 -0.0068 -0.2179 -0.3061
   9723SM   C2F13150   4.718   0.355  13.328  0.0345  0.0508 -0.0070
   9723SM   H2F13151   4.795   0.282  13.294  0.5554  1.8013 -2.9238
   9723SM   H2G13152   4.625   0.299  13.353 -0.6037 -1.3458 -4.6114
   9723SM   C3F13153   4.784   0.395  13.465 -0.5497 -0.7412 -0.1430
   9723SM   H3F13154   4.894   0.406  13.453 -0.6861 -0.0813 -0.8624
   9723SM   H3G13155   4.772   0.311  13.536 -1.5521 -0.3080  0.2157
   9723SM   C4F13156   4.725   0.515  13.536 -0.3960  0.2402  0.1943
   9723SM   H4F13157   4.620   0.495  13.565  0.1470  1.4057  3.3554
   9723SM   H4G13158   4.738   0.597  13.463 -0.0984  1.0432  1.1290
   9723SM   C5F13159   4.807   0.567  13.653  0.2141  0.4821  0.1775
   9723SM   H5F13160   4.791   0.676  13.662  1.1853  0.4385  3.2887
   9723SM   H5G13161   4.915   0.548  13.637  1.5386  3.9799  3.6321
   9723SM   C6F13162   4.757   0.497  13.782  0.0572  0.1823 -0.8086
   9723SM   H6F13163   4.648   0.486  13.765  0.2744 -0.2064 -2.0752
   9723SM   H6G13164   4.764   0.575  13.861  0.0376 -0.1150 -0.5152
   9723SM   C7F13165   4.815   0.364  13.829 -0.5292 -0.2047  0.0857
   9723SM   H7F13166   4.918   0.380  13.868 -0.2319 -1.4069 -0.1559
   9723SM   H7G13167   4.832   0.289  13.749  2.3299 -0.6704  1.0210
   9723SM   C8F13168   4.728   0.292  13.943  0.0318 -0.4436  0.4742
   9723SM   H8F13169   4.747   0.183  13.927 -0.4739 -0.7701  1.9706
   9723SM   H8G13170   4.621   0.319  13.937 -0.0458 -0.8459 -0.0411
   9723SM   C9F13171   4.783   0.318  14.085  0.0945  0.3522  0.5180
   9723SM   H9F13172   4.763   0.426  14.101 -1.7632 -0.1392  1.8272
   9723SM   H9G13173   4.892   0.298  14.080 -0.0096 -0.0487 -0.8192
   9723SM  C10F13174   4.724   0.232  14.194  0.3092 -0.0351 -0.3445
   9723SM  H10F13175   4.773   0.134  14.211 -0.1886  0.0525  1.8925
   9723SM  H10G13176   4.620   0.206  14.166 -0.3643  0.7598  1.2417
   9723SM  C11F13177   4.729   0.311  14.328 -0.4630  0.7638  0.1919
   9723SM  H11F13178   4.698   0.416  14.308 -0.7954  0.7073  0.3964
   9723SM  H11G13179   4.836   0.320  14.357  0.4410 -1.2624 -2.1501
   9723SM  C12F13180   4.644   0.250  14.442 -0.0061 -0.0540 -0.4307
   9723SM  H12F13181   4.710   0.170  14.484  0.3043  1.4327  2.0806
   9723SM  H12G13182   4.550   0.202  14.409  0.6285 -1.0458 -0.8746
   9723SM  C13F13183   4.605   0.352  14.547  0.1857  0.0437 -0.1599
   9723SM  H13F13184   4.557   0.297  14.631  0.9902  0.9386  0.9087
   9723SM  H13G13185   4.533   0.427  14.508  0.1497  0.2379  0.2717
   9723SM  C14F13186   4.728   0.428  14.597  0.3121 -0.5315  0.1095
   9723SM  H14F13187   4.766   0.498  14.520  0.4002  0.5908  1.1379
   9723SM  H14G13188   4.816   0.368  14.631  0.1821  0.7288  2.9629
   9723SM  C15F13189   4.698   0.516  14.722  0.4113  0.7316 -0.5195
   9723SM  H15F13190   4.617   0.472  14.784  0.9744  0.5876  0.1298
   9723SM  H15G13191   4.659   0.614  14.687 -0.3030  0.5702 -0.1991
   9723SM  C16F13192   4.811   0.567  14.818 -0.0099  0.4710 -0.2603
   9723SM  H16F13193   4.767   0.635  14.894  1.4655  0.9204  0.2278
   9723SM  H16G13194   4.899   0.618  14.774  1.6014 -0.6264  1.5354
   9723SM  C17F13195   4.861   0.444  14.893 -0.1617  0.1952  0.1511
   9723SM  H17F13196   4.955   0.471  14.946  0.7764 -1.7821 -0.4083
   9723SM  H17G13197   4.880   0.359  14.824  1.1055  1.9656 -1.8341
   9723SM  C18F13198   4.770   0.385  15.002 -0.0046 -0.1209 -0.4877
   9723SM  H18F13199   4.671   0.358  14.961 -0.0863  0.5704 -0.7639
   9723SM  H18G13200   4.747   0.468  15.073 -2.2123  0.2781 -1.5770
   9723SM  C19F13201   4.835   0.275  15.094 -0.8207  0.3992 -0.2912
   9723SM  H19F13202   4.945   0.288  15.105 -0.6894  0.0343 -1.0856
   9723SM  H19G13203   4.836   0.177  15.042  1.9119  1.1137 -1.7695
   9723SM  C20F13204   4.772   0.252  15.237  0.6893 -0.0840  0.6005
   9723SM  H20F13205   4.779   0.143  15.260  0.8408 -0.2366 -0.1286
   9723SM  H20G13206   4.663   0.265  15.221  0.6163 -2.8438 -2.1589
   9723SM  C21F13207   4.820   0.348  15.346  0.1369 -0.4041  0.3620
   9723SM  H21F13208   4.762   0.320  15.436 -1.7601  1.3462 -0.2351
   9723SM  H21G13209   4.788   0.448  15.308  1.5599 -0.2996 -0.6245
   9723SM  C22F13210   4.968   0.349  15.379 -0.0875  0.2920  0.0040
   9723SM  H22F13211   5.033   0.384  15.296  0.8949 -0.0597  0.6072
   9723SM  H22G13212   5.003   0.244  15.390 -1.5100 -0.5398 -2.5277
   9723SM  C23F13213   5.007   0.429  15.499  0.5954  1.0037  0.5286
   9723SM  H23F13214   5.002   0.538  15.477 -2.7009  0.5432 -1.7478
   9723SM  H23G13215   5.111   0.401  15.527  0.5444  0.0049 -0.2052
   9723SM  H23H13216   4.933   0.407  15.579  0.2884  0.1914  0.0327
   9823SM     N13217   5.564   6.268  12.082  0.3874  0.5792  0.4196
   9823SM   C1513218   5.649   6.153  12.054  0.0101 -0.6978  0.3159
   9823SM  H15A13219   5.705   6.171  11.963 -1.9627  2.9552 -0.3927
   9823SM  H15B13220   5.600   6.058  12.045 -0.3191 -0.3814 -1.8141
   9823SM  H15C13221   5.736   6.143  12.117 -0.4352 -3.4461  0.5987
   9823SM   C1413222   5.463   6.299  11.976 -0.3998  0.7275 -0.0056
   9823SM  H14A13223   5.515   6.313  11.883  0.6986 -1.4325  0.2290
   9823SM  H14B13224   5.391   6.374  12.006 -2.4188 -1.2818  0.4626
   9823SM  H14C13225   5.398   6.214  11.962  1.0761 -1.0355  2.8593
   9823SM   C1313226   5.489   6.234  12.210 -0.3899  0.3346 -1.0776
   9823SM  H13A13227   5.426   6.316  12.244  1.7223  0.9560  1.6985
   9823SM  H13B13228   5.554   6.197  12.287  1.4983  1.9947 -1.8071
   9823SM  H13C13229   5.425   6.147  12.203  0.0050 -0.1010  0.3733
   9823SM   C1213230   5.650   6.395  12.106  0.2858 -0.5149 -0.3372
   9823SM  H12A13231   5.600   6.482  12.144  0.3533 -1.0723  1.0772
   9823SM  H12B13232   5.683   6.429  12.009 -2.3379  0.7593 -0.8775
   9823SM   C1113233   5.770   6.391  12.194 -0.0074  0.0168 -0.0761
   9823SM  H11A13234   5.847   6.316  12.165  0.3467  0.1912  0.4123
   9823SM  H11B13235   5.729   6.375  12.295 -1.5618 -0.3620 -0.7333
   9823SM     P13236   5.783   6.647  12.261 -0.3771 -0.2704  0.7185
   9823SM   O1313237   5.860   6.763  12.218  0.1317 -0.1186  0.4702
   9823SM   O1413238   5.637   6.652  12.266 -0.2512 -0.5600 -0.2166
   9823SM   O1113239   5.839   6.626  12.408 -0.0909 -0.5107  0.3733
   9823SM   O1213240   5.833   6.520  12.180  0.2468  0.6838 -0.3070
   9823SM   C1S13241   5.972   6.559  12.424  0.2301 -0.0891 -0.8896
   9823SM   H1S13242   6.051   6.633  12.400 -0.4531  0.8703 -0.2368
   9823SM   H1T13243   5.984   6.474  12.353  1.6625 -2.1299  1.6360
   9823SM    NF13244   6.125   6.436  12.576  0.3320 -0.2177 -0.0815
   9823SM   HNF13245   6.120   6.343  12.610 -1.4811  0.1121  0.6282
   9823SM   C2S13246   5.990   6.480  12.563  0.7489 -0.8831  0.0037
   9823SM   H2S13247   5.965   6.544  12.651 -4.2417 -1.2000 -0.8684
   9823SM   C3S13248   5.874   6.371  12.571  0.1071 -0.0770 -0.0619
   9823SM   H3S13249   5.880   6.309  12.479  1.5601  0.9367 -0.6898
   9823SM    O313250   5.740   6.422  12.553 -0.6168  0.3631  0.0778
   9823SM   HO313251   5.762   6.509  12.520 -1.0972  0.5533  0.2490
   9823SM   C4S13252   5.881   6.281  12.693 -0.2194 -0.6158  0.5311
   9823SM   H4S13253   5.943   6.191  12.682 -1.1467 -1.4975  2.0527
   9823SM   C5S13254   5.840   6.310  12.817 -0.4066  0.9381 -1.0807
   9823SM   H5S13255   5.811   6.415  12.833  1.4781  1.4834 -1.0031
   9823SM   C6S13256   5.878   6.226  12.937 -0.1173  0.1938 -0.4586
   9823SM   H6S13257   5.956   6.152  12.909  0.8543  0.7709  0.6088
   9823SM   H6T13258   5.790   6.170  12.974  0.0165 -0.8808 -1.7130
   9823SM   C7S13259   5.930   6.313  13.049  0.0635  0.0249  0.6012
   9823SM   H7S13260   5.995   6.397  13.018  0.2873 -0.4936 -0.3697
   9823SM   H7T13261   5.985   6.247  13.120 -1.9235 -0.7574  1.5063
   9823SM   C8S13262   5.817   6.370  13.136 -0.7178  0.0208 -0.3292
   9823SM   H8S13263   5.738   6.414  13.070 -0.8966  0.6174  0.2734
   9823SM   H8T13264   5.861   6.448  13.202  0.6825  1.7458 -3.0995
   9823SM   C9S13265   5.753   6.265  13.222 -0.0648  0.5103 -0.4762
   9823SM   H9S13266   5.831   6.205  13.275 -0.4195  1.3572  1.0799
   9823SM   H9T13267   5.692   6.198  13.158  1.9443  0.3865 -2.3534
   9823SM  C10S13268   5.645   6.323  13.326 -0.1667  0.3398 -0.3854
   9823SM  H10S13269   5.571   6.372  13.259 -1.2034 -0.5441  0.0752
   9823SM  H10T13270   5.679   6.397  13.402  0.7236 -0.6394  0.1846
   9823SM  C11S13271   5.572   6.212  13.399 -0.0104  0.6969 -0.0774
   9823SM  H11S13272   5.545   6.142  13.317  0.9501 -0.2631  0.3969
   9823SM  H11T13273   5.475   6.241  13.444 -0.5489 -0.1741 -0.6285
   9823SM  C12S13274   5.653   6.122  13.497  0.5149 -0.6691 -0.0374
   9823SM  H12S13275   5.705   6.192  13.565 -0.7305  2.0556 -1.7260
   9823SM  H12T13276   5.725   6.060  13.440  1.2236 -0.4172  0.5716
   9823SM  C13S13277   5.557   6.038  13.578 -0.0542  0.2300  0.3342
   9823SM  H13S13278   5.510   5.957  13.517 -0.8789 -0.9458  2.4498
   9823SM  H13T13279   5.481   6.108  13.618  0.3704  0.5635  0.5639
   9823SM  C14S13280   5.620   5.964  13.693 -0.3804  0.5670  0.6756
   9823SM  H14S13281   5.715   5.923  13.653 -2.2677 -2.1936 -1.3727
   9823SM  H14T13282   5.555   5.878  13.719  1.3073 -0.0550  3.1756
   9823SM  C15S13283   5.645   6.048  13.819 -0.0366  0.6408 -0.8425
   9823SM  H15S13284   5.548   6.080  13.862 -0.2897 -0.3360 -0.6803
   9823SM  H15T13285   5.704   6.139  13.791 -0.1993  0.0993 -3.1319
   9823SM  C16S13286   5.711   5.972  13.930 -0.3653 -0.0893  0.1618
   9823SM  H16S13287   5.803   5.927  13.886 -0.4006 -0.0190  0.0139
   9823SM  H16T13288   5.642   5.890  13.960  1.7270 -2.0746 -0.1062
   9823SM  C17S13289   5.755   6.070  14.040  0.4392 -0.3276 -0.1568
   9823SM  H17S13290   5.659   6.110  14.079  0.2070 -0.1396 -0.9099
   9823SM  H17T13291   5.829   6.139  13.994  1.0572 -0.1868  1.0170
   9823SM  C18S13292   5.818   6.002  14.161  1.0264 -0.0146  0.6012
   9823SM  H18S13293   5.840   6.079  14.237 -0.6229  0.6399  0.4524
   9823SM  H18T13294   5.917   5.958  14.135  0.8667  0.6189 -1.2133
   9823SM  H18U13295   5.752   5.920  14.196 -3.3405  2.9177  0.0490
   9823SM   C1F13296   6.230   6.513  12.586 -0.1145  0.0414  0.0539
   9823SM    OF13297   6.223   6.631  12.561  0.3224  0.5100 -0.3768
   9823SM   C2F13298   6.344   6.455  12.642 -0.6463  0.1893 -0.1575
   9823SM   H2F13299   6.437   6.505  12.606 -0.9439  0.0230 -1.1839
   9823SM   H2G13300   6.364   6.347  12.627  0.2247  0.1902  0.8700
   9823SM   C3F13301   6.338   6.474  12.797 -0.2057  0.1609 -0.1314
   9823SM   H3F13302   6.246   6.431  12.841  0.0807  2.0948  2.5809
   9823SM   H3G13303   6.334   6.584  12.812  1.2421  0.6955 -2.9039
   9823SM   C4F13304   6.464   6.420  12.864  0.4141 -0.1212  0.4486
   9823SM   H4F13305   6.555   6.476  12.833  0.8490 -0.5115  0.9835
   9823SM   H4G13306   6.488   6.324  12.814  1.5852  0.0819  0.5830
   9823SM   C5F13307   6.453   6.409  13.016  0.1915 -0.4393  0.3202
   9823SM   H5F13308   6.418   6.506  13.056  0.2131 -0.7039  0.9848
   9823SM   H5G13309   6.557   6.388  13.051  0.6939  1.8610  0.3498
   9823SM   C6F13310   6.355   6.303  13.059 -0.4281 -0.0089 -0.5607
   9823SM   H6F13311   6.403   6.205  13.040  1.3723  0.6581  0.2702
   9823SM   H6G13312   6.264   6.308  12.996 -1.6663 -1.1560  1.0522
   9823SM   C7F13313   6.316   6.324  13.203 -0.1854  0.0539 -0.1239
   9823SM   H7F13314   6.228   6.263  13.232 -0.6677  1.8427  2.5060
   9823SM   H7G13315   6.278   6.428  13.213 -1.0023 -0.4405  2.4164
   9823SM   C8F13316   6.425   6.307  13.311  0.0968 -1.3826 -0.5868
   9823SM   H8F13317   6.521   6.345  13.270 -0.9424  1.7294 -0.3765
   9823SM   H8G13318   6.444   6.203  13.345  0.4199 -1.5374 -1.2228
   9823SM   C9F13319   6.393   6.382  13.447 -0.0784 -0.2735  0.3625
   9823SM   H9F13320   6.295   6.342  13.481  0.0262  0.9862  2.2930
   9823SM   H9G13321   6.368   6.488  13.426 -1.0098 -0.2087  1.7121
   9823SM  C10F13322   6.492   6.360  13.559 -0.5658 -0.1714  0.5647
   9823SM  H10F13323   6.470   6.428  13.644 -1.0166  0.7368 -0.2585
   9823SM  H10G13324   6.592   6.394  13.523 -1.5984  0.3986 -1.9417
   9823SM  C11F13325   6.517   6.214  13.601  0.1706 -0.2091  0.3173
   9823SM  H11F13326   6.549   6.154  13.513  0.9644  0.7704 -0.0774
   9823SM  H11G13327   6.419   6.177  13.637 -0.2088 -2.3871 -2.6006
   9823SM  C12F13328   6.617   6.197  13.717 -0.3110  0.6984  0.4399
   9823SM  H12F13329   6.609   6.279  13.792 -2.2218  1.3052 -0.3736
   9823SM  H12G13330   6.719   6.207  13.673 -0.9573  3.7542 -0.6245
   9823SM  C13F13331   6.595   6.058  13.784  0.6227 -0.1913 -0.3584
   9823SM  H13F13332   6.607   5.979  13.707  0.9192  0.7035 -1.2448
   9823SM  H13G13333   6.498   6.040  13.836  0.4459  0.2141 -0.5507
   9823SM  C14F13334   6.715   6.020  13.883  1.1126 -0.4061 -0.6029
   9823SM  H14F13335   6.699   6.090  13.969  0.5941 -0.2327 -0.8380
   9823SM  H14G13336   6.811   6.046  13.834  1.5067 -0.6169  0.0449
   9823SM  C15F13337   6.723   5.873  13.932  0.2236 -0.9141 -0.1149
   9823SM  H15F13338   6.715   5.799  13.850  0.1367  0.1240 -1.0661
   9823SM  H15G13339   6.637   5.856  14.000  1.4958 -2.3333  1.2391
   9823SM  C16F13340   6.852   5.846  14.003  0.1690 -0.4736 -0.2434
   9823SM  H16F13341   6.872   5.923  14.081 -0.3626  0.8905 -1.4068
   9823SM  H16G13342   6.938   5.850  13.934 -1.5816  2.0355 -2.4976
   9823SM  C17F13343   6.840   5.721  14.088  1.1416  0.5025 -0.0914
   9823SM  H17F13344   6.943   5.695  14.121  0.9635 -0.0933  0.0129
   9823SM  H17G13345   6.804   5.648  14.013 -0.2543  1.0249  0.0527
   9823SM  C18F13346   6.751   5.729  14.213  0.3708  0.9467 -0.0338
   9823SM  H18F13347   6.647   5.747  14.180  0.5345  0.6765 -0.7027
   9823SM  H18G13348   6.788   5.811  14.278  2.1024 -0.4182  0.8172
   9823SM  C19F13349   6.757   5.588  14.289 -0.0876 -0.4159 -0.0297
   9823SM  H19F13350   6.867   5.575  14.305 -0.0641  0.1756  0.3370
   9823SM  H19G13351   6.716   5.512  14.220  1.5315 -0.1266 -1.3776
   9823SM  C20F13352   6.677   5.585  14.421 -0.4749 -0.2488 -0.2538
   9823SM  H20F13353   6.667   5.484  14.465  1.1998  0.8278  2.9231
   9823SM  H20G13354   6.576   5.629  14.404 -0.0048  0.3293 -1.7097
   9823SM  C21F13355   6.760   5.664  14.524 -0.3659  0.0100 -0.5686
   9823SM  H21F13356   6.775   5.766  14.481  0.2803  0.2011  0.0901
   9823SM  H21G13357   6.860   5.621  14.545 -0.9568 -0.6453  1.0984
   9823SM  C22F13358   6.680   5.665  14.656  0.4620 -0.0605 -0.2727
   9823SM  H22F13359   6.747   5.675  14.745 -0.3905  2.9122  0.1707
   9823SM  H22G13360   6.633   5.566  14.669 -0.7562  0.5264 -0.0320
   9823SM  C23F13361   6.581   5.787  14.662 -0.1339  0.1474 -0.2241
   9823SM  H23F13362   6.646   5.877  14.666 -2.4601  2.0432 -1.8725
   9823SM  H23G13363   6.517   5.780  14.753  0.7518  0.8733  0.4767
   9823SM  H23H13364   6.516   5.795  14.572 -2.2886  2.4393  1.3669
   9923SM     N13365   0.290   0.063  12.854  0.4116  0.3796  0.6067
   9923SM   C1513366   0.256   0.192  12.917  0.8989  0.0144  0.2457
   9923SM  H15A13367   0.345   0.232  12.963  1.1691  1.4951 -1.4506
   9923SM  H15B13368   0.168   0.195  12.978 -1.1456 -0.0977 -2.4970
   9923SM  H15C13369   0.238   0.265  12.839 -0.4868 -1.0311 -0.4540
   9923SM   C1413370   0.379   0.083  12.730 -0.5102  0.7137 -0.2379
   9923SM  H14A13371   0.341   0.155  12.658  2.2585 -1.1267 -3.8334
   9923SM  H14B13372   0.405  -0.011  12.685  2.2376  1.7715 -1.0307
   9923SM  H14C13373   0.473   0.121  12.768 -0.4458 -0.4398  0.8049
   9923SM   C1313374   0.365  -0.026  12.945  0.5842 -0.2823  0.0746
   9923SM  H13A13375   0.317  -0.040  13.040 -0.5665 -0.3178 -0.4926
   9923SM  H13B13376   0.464   0.013  12.962 -0.4883  2.1641  1.2370
   9923SM  H13C13377   0.371  -0.128  12.912 -0.5360  0.5100 -2.9803
   9923SM   C1213378   0.156  -0.008  12.818  0.3288 -0.1676 -0.4864
   9923SM  H12A13379   0.104  -0.042  12.906 -0.7035  1.8933 -0.2347
   9923SM  H12B13380   0.186  -0.084  12.747  2.2839  1.7835 -1.9272
   9923SM   C1113381   0.052   0.081  12.736  0.0002 -0.0650  0.2760
   9923SM  H11A13382   0.102   0.116  12.643 -2.4996  0.4135 -0.9699
   9923SM  H11B13383   0.020   0.168  12.796 -0.0598  0.4295 -0.4563
   9923SM     P13384  -0.174  -0.033  12.785  0.1409 -0.4545 -0.4336
   9923SM   O1313385  -0.300   0.008  12.716 -0.1892 -0.6369  0.2312
   9923SM   O1413386  -0.166  -0.175  12.826 -1.1078 -0.2264  0.2045
   9923SM   O1113387  -0.154   0.054  12.913  0.4415  0.9844  0.5857
   9923SM   O1213388  -0.050  -0.008  12.693  0.0064  0.3817 -0.1917
   9923SM   C1S13389  -0.270   0.075  12.991  0.3441 -0.1498 -0.6861
   9923SM   H1S13390  -0.340  -0.011  12.983  1.8264 -1.4668  0.0753
   9923SM   H1T13391  -0.326   0.162  12.951  0.8499  1.6343  2.1511
   9923SM    NF13392  -0.371   0.119  13.217  0.2429  0.4781  0.4978
   9923SM   HNF13393  -0.394   0.213  13.237 -0.1862  0.9777 -1.9945
   9923SM   C2S13394  -0.244   0.088  13.142  0.0032 -0.0156  0.3744
   9923SM   H2S13395  -0.213  -0.013  13.177  0.5713  0.2604  0.6757
   9923SM   C3S13396  -0.128   0.182  13.174 -0.2610  0.0956  0.3954
   9923SM   H3S13397  -0.146   0.286  13.139 -0.5293 -0.9690 -2.9859
   9923SM    O313398   0.002   0.155  13.115  0.1825 -0.3910 -0.3822
   9923SM   HO313399  -0.018   0.079  13.059  1.1281  0.7514 -2.3693
   9923SM   C4S13400  -0.095   0.169  13.319  0.0959 -0.6332 -0.1023
   9923SM   H4S13401  -0.048   0.079  13.361  0.2542  0.0242  1.1887
   9923SM   C5S13402  -0.127   0.268  13.404  0.3200 -0.1300  0.5709
   9923SM   H5S13403  -0.190   0.351  13.370 -0.7433 -1.2151 -0.2067
   9923SM   C6S13404  -0.102   0.259  13.551 -0.3824  0.6539  0.1719
   9923SM   H6S13405  -0.072   0.362  13.580 -0.2359  0.5909  0.2426
   9923SM   H6T13406  -0.024   0.185  13.579 -0.6287  0.0738 -0.6503
   9923SM   C7S13407  -0.229   0.244  13.639  0.3151  0.0817  0.3715
   9923SM   H7S13408  -0.254   0.136  13.648 -1.2026  0.4833  1.3617
   9923SM   H7T13409  -0.316   0.300  13.599 -0.0875  0.0705  1.2113
   9923SM   C8S13410  -0.199   0.281  13.782  0.2089  0.4696 -0.3643
   9923SM   H8S13411  -0.233   0.387  13.787 -1.7038  0.0330 -2.4414
   9923SM   H8T13412  -0.089   0.280  13.792  0.1238  1.3111  0.9006
   9923SM   C9S13413  -0.266   0.188  13.891  0.2516 -1.0176 -0.7575
   9923SM   H9S13414  -0.234   0.082  13.882  0.1024 -1.1314 -0.0616
   9923SM   H9T13415  -0.375   0.187  13.871  0.2556  0.1279 -0.9371
   9923SM  C10S13416  -0.258   0.235  14.038 -0.6777  0.4497 -0.2141
   9923SM  H10S13417  -0.311   0.160  14.102 -0.4990  1.1686  0.8063
   9923SM  H10T13418  -0.310   0.333  14.041 -0.9636  0.2875  0.6081
   9923SM  C11S13419  -0.107   0.244  14.084  0.0212 -0.0455 -0.1403
   9923SM  H11S13420  -0.051   0.303  14.008 -0.0015 -1.9379 -1.6968
   9923SM  H11T13421  -0.057   0.145  14.081  2.0461  0.9235 -0.5333
   9923SM  C12S13422  -0.082   0.297  14.218 -0.2999 -0.2407  0.4061
   9923SM  H12S13423  -0.125   0.233  14.298 -2.0652  0.1374 -0.1809
   9923SM  H12T13424  -0.124   0.400  14.217  0.5804  0.1579  1.9321
   9923SM  C13S13425   0.067   0.312  14.247 -0.2500  0.7105  0.0942
   9923SM  H13S13426   0.107   0.386  14.174 -0.9459  0.4661 -0.5449
   9923SM  H13T13427   0.106   0.208  14.236 -0.1685  0.8154 -0.7112
   9923SM  C14S13428   0.101   0.343  14.394 -0.3723 -1.0861 -0.1029
   9923SM  H14S13429   0.036   0.296  14.472  1.8193 -1.7651  1.4239
   9923SM  H14T13430   0.099   0.453  14.401  1.8303 -0.8485 -1.9761
   9923SM  C15S13431   0.253   0.309  14.425  0.3505  0.8976  0.8260
   9923SM  H15S13432   0.317   0.330  14.337 -2.0465 -0.1342 -1.2811
   9923SM  H15T13433   0.254   0.199  14.445  0.5592  1.0237  1.5488
   9923SM  C16S13434   0.308   0.374  14.551  0.3219 -0.2236 -0.8920
   9923SM  H16S13435   0.318   0.484  14.536  0.7963 -0.1907 -0.3689
   9923SM  H16T13436   0.413   0.340  14.559 -0.2822 -1.9101  0.3909
   9923SM  C17S13437   0.228   0.334  14.679  0.2549  0.0378  0.0837
   9923SM  H17S13438   0.244   0.226  14.698  0.4861  0.3160  1.5976
   9923SM  H17T13439   0.118   0.339  14.670  0.1921 -1.0488  0.0775
   9923SM  C18S13440   0.282   0.411  14.799 -0.2756  0.0381 -0.3079
   9923SM  H18S13441   0.261   0.357  14.894  0.2597  0.0735 -0.1671
   9923SM  H18T13442   0.251   0.518  14.803 -0.9196 -0.1670  0.5291
   9923SM  H18U13443   0.392   0.422  14.786 -0.0065 -0.8784  0.9713
   9923SM   C1F13444  -0.467   0.036  13.228 -0.5990 -0.6123  0.7661
   9923SM    OF13445  -0.460  -0.079  13.185  0.6747 -0.0003 -0.0896
   9923SM   C2F13446  -0.585   0.093  13.294  0.0956 -0.3994 -0.0175
   9923SM   H2F13447  -0.613   0.195  13.262 -1.4533 -1.3291 -1.7871
   9923SM   H2G13448  -0.565   0.098  13.404 -0.0797  0.2752 -0.0108
   9923SM   C3F13449  -0.715   0.017  13.269  0.1347 -0.2974  0.5823
   9923SM   H3F13450  -0.701  -0.094  13.271  2.7489 -0.0349  2.3025
   9923SM   H3G13451  -0.740   0.054  13.168  2.7533  0.8807  0.2732
   9923SM   C4F13452  -0.809   0.064  13.371  0.1662  0.4318  0.6883
   9923SM   H4F13453  -0.820   0.173  13.357 -2.2199  0.3214  1.2418
   9923SM   H4G13454  -0.769   0.037  13.471 -1.8123 -1.2519  1.1053
   9923SM   C5F13455  -0.946  -0.006  13.368 -0.0881  0.7809 -0.3091
   9923SM   H5F13456  -0.936  -0.114  13.391  0.1068  0.1564 -2.9376
   9923SM   H5G13457  -0.986  -0.003  13.264  1.2652  0.2140 -0.8759
   9923SM   C6F13458  -1.049   0.059  13.467  0.1169 -0.5686  0.1646
   9923SM   H6F13459  -1.153   0.030  13.439  0.4928 -0.9956 -0.8241
   9923SM   H6G13460  -1.029   0.168  13.458  1.5585 -0.8180  0.0686
   9923SM   C7F13461  -1.020   0.026  13.613  0.0416  0.3771 -0.0776
   9923SM   H7F13462  -0.918   0.052  13.648 -0.1883  2.8905 -1.0306
   9923SM   H7G13463  -1.032  -0.083  13.629  1.9400  0.3707  1.6057
   9923SM   C8F13464  -1.112   0.115  13.699  0.5041  0.2486 -0.1647
   9923SM   H8F13465  -1.212   0.071  13.684  1.3319 -2.6880  2.0439
   9923SM   H8G13466  -1.113   0.221  13.665 -0.3215  0.9876  2.0163
   9923SM   C9F13467  -1.067   0.119  13.842 -0.1403  0.0834 -0.1141
   9923SM   H9F13468  -1.111   0.211  13.887 -2.1715 -2.0766  2.6792
   9923SM   H9G13469  -0.957   0.134  13.854 -0.5057  1.5543  2.1839
   9923SM  C10F13470  -1.112  -0.008  13.912  0.6232 -0.0593 -0.4474
   9923SM  H10F13471  -1.049  -0.095  13.880 -2.9673 -2.5835 -1.3044
   9923SM  H10G13472  -1.214  -0.029  13.874 -0.0768  0.6516  0.9759
   9923SM  C11F13473  -1.097   0.000  14.070 -0.0440 -0.4893  0.0466
   9923SM  H11F13474  -1.035   0.090  14.086 -2.4496  1.2128  0.4785
   9923SM  H11G13475  -1.043  -0.087  14.111 -0.5228 -1.1816 -0.7607
   9923SM  C12F13476  -1.221   0.015  14.157 -0.3223 -0.4114  0.1768
   9923SM  H12F13477  -1.253  -0.091  14.170  0.1244 -0.4603  0.9639
   9923SM  H12G13478  -1.294   0.072  14.096 -0.3160 -0.9600 -0.3521
   9923SM  C13F13479  -1.199   0.070  14.303  0.2887  0.7672 -0.1714
   9923SM  H13F13480  -1.295   0.090  14.355  1.3683  3.9986  0.8110
   9923SM  H13G13481  -1.147   0.168  14.308 -0.6312  1.1902  2.9839
   9923SM  C14F13482  -1.124  -0.022  14.408 -0.2375  0.1078  0.2207
   9923SM  H14F13483  -1.030  -0.037  14.351 -1.3398 -0.4034 -1.5453
   9923SM  H14G13484  -1.177  -0.119  14.423  2.4162 -1.1967  2.2002
   9923SM  C15F13485  -1.076   0.041  14.541 -0.2111  0.1757 -0.0849
   9923SM  H15F13486  -1.165   0.038  14.608  0.4313  2.0682  0.9403
   9923SM  H15G13487  -1.054   0.144  14.505  1.3289 -0.0947  0.0075
   9923SM  C16F13488  -0.959  -0.034  14.596  0.2179  0.0502 -0.1824
   9923SM  H16F13489  -0.905   0.025  14.672 -0.0597 -0.5732  0.5090
   9923SM  H16G13490  -0.877  -0.041  14.520 -0.3533 -1.6178 -0.6860
   9923SM  C17F13491  -0.989  -0.179  14.644  0.1028 -0.1952 -0.7279
   9923SM  H17F13492  -0.998  -0.250  14.558 -1.5141  0.2515 -0.9576
   9923SM  H17G13493  -1.087  -0.173  14.696  1.1796  0.7799  1.3069
   9923SM  C18F13494  -0.877  -0.233  14.740  0.1655 -0.5495  0.4383
   9923SM  H18F13495  -0.852  -0.148  14.807  1.8208  2.9670 -4.1177
   9923SM  H18G13496  -0.782  -0.261  14.689  1.5485  1.0254  2.0420
   9923SM  C19F13497  -0.928  -0.363  14.818  0.0167 -0.2668  0.2648
   9923SM  H19F13498  -0.935  -0.451  14.750  1.9713 -1.4832  1.5241
   9923SM  H19G13499  -1.027  -0.350  14.867  0.8986 -1.3649  2.4566
   9923SM  C20F13500  -0.825  -0.392  14.926  0.0840 -0.4179 -0.1809
   9923SM  H20F13501  -0.838  -0.326  15.014  2.0981  0.1934 -0.2767
   9923SM  H20G13502  -0.726  -0.363  14.884 -0.0675  1.3011  0.5618
   9923SM  C21F13503  -0.836  -0.538  14.963 -0.5775 -0.2218 -0.1055
   9923SM  H21F13504  -0.817  -0.614  14.884  1.7525 -1.7741  1.7905
   9923SM  H21G13505  -0.943  -0.560  14.979 -0.1269 -2.8748 -0.2143
   9923SM  C22F13506  -0.759  -0.572  15.094  0.6957 -0.6678  0.4319
   9923SM  H22F13507  -0.797  -0.497  15.167  0.5931  0.1086 -0.4049
   9923SM  H22G13508  -0.651  -0.550  15.076  0.2633  0.4668 -1.0238
   9923SM  C23F13509  -0.774  -0.705  15.161  0.1740  0.1790  0.4839
   9923SM  H23F13510  -0.864  -0.764  15.134 -1.5867  1.4205  3.2241
   9923SM  H23G13511  -0.783  -0.687  15.270  1.9442 -1.7963  1.0054
   9923SM  H23H13512  -0.685  -0.768  15.137  1.1487  1.1639  1.4185
  10023SM     N13513   6.958   0.516  12.507 -0.6697  0.2420  0.1657
  10023SM   C1513514   6.870   0.419  12.439  0.4092  0.4566  0.7925
  10023SM  H15A13515   6.913   0.329  12.399  1.4098  0.9676  0.6678
  10023SM  H15B13516   6.820   0.473  12.360  3.9352  2.8277 -0.0759
  10023SM  H15C13517   6.795   0.392  12.512 -0.4332  2.6326  0.8271
  10023SM   C1413518   7.091   0.515  12.432 -0.3674 -0.8098 -0.4507
  10023SM  H14A13519   7.087   0.551  12.330  2.1826 -2.4224 -1.2330
  10023SM  H14B13520   7.137   0.417  12.440  1.2769  0.0475  1.5811
  10023SM  H14C13521   7.153   0.592  12.476  1.2618 -0.8513 -2.5258
  10023SM   C1313522   6.889   0.650  12.502 -0.2016 -0.5981 -0.3531
  10023SM  H13A13523   6.796   0.653  12.556  0.6946  0.3430  1.2409
  10023SM  H13B13524   6.885   0.679  12.398  1.5905 -0.3559 -0.3955
  10023SM  H13C13525   6.956   0.714  12.558  0.8654 -3.6833  2.1894
  10023SM   C1213526   6.975   0.471  12.652  0.0791  0.0982  0.0479
  10023SM  H12A13527   7.029   0.379  12.666 -2.0542 -0.9528  1.9125
  10023SM  H12B13528   6.880   0.448  12.698 -1.0356  3.3395 -0.3735
  10023SM   C1113529   7.045   0.582  12.737  0.2657  0.0940 -0.4721
  10023SM  H11A13530   7.035   0.540  12.840 -1.2782  0.4701 -0.4479
  10023SM  H11B13531   6.994   0.681  12.740  0.9666  0.4636 -0.6540
  10023SM     P13532   7.292   0.491  12.723 -0.1814 -0.3292 -0.3540
  10023SM   O1313533   7.233   0.358  12.742  0.1019 -0.1909 -0.0811
  10023SM   O1413534   7.383   0.510  12.606  0.3489  0.0689 -0.0462
  10023SM   O1113535   7.361   0.544  12.854  0.1365  0.1938  0.1885
  10023SM   O1213536   7.184   0.610  12.709 -0.4129  0.5859  0.0286
  10023SM   C1S13537   7.315   0.585  12.978 -0.0844  1.0724 -0.6251
  10023SM   H1S13538   7.226   0.523  13.001  2.4237 -2.1600  1.2940
  10023SM   H1T13539   7.293   0.694  12.974 -0.6528  1.1535  2.3397
  10023SM    NF13540   7.355   0.569  13.223 -0.4726  0.5275 -0.1031
  10023SM   HNF13541   7.399   0.631  13.289 -0.6047  0.2766  0.2229
  10023SM   C2S13542   7.416   0.553  13.095 -0.1868 -0.3333  0.1678
  10023SM   H2S13543   7.439   0.445  13.080 -2.2184 -0.7993  0.0844
  10023SM   C3S13544   7.553   0.628  13.080 -0.3548  0.0202  0.1450
  10023SM   H3S13545   7.532   0.737  13.092 -0.7114 -0.2468  2.4198
  10023SM    O313546   7.613   0.611  12.945  0.0358  0.2409 -0.0725
  10023SM   HO313547   7.535   0.575  12.901 -1.4899 -1.4430  3.5157
  10023SM   C4S13548   7.657   0.590  13.180 -0.7253  0.3418 -0.4148
  10023SM   H4S13549   7.664   0.665  13.260  0.6110 -0.8922  0.6659
  10023SM   C5S13550   7.745   0.493  13.185 -0.3202 -0.0958 -0.0521
  10023SM   H5S13551   7.758   0.426  13.100 -0.3270 -1.9243  1.3356
  10023SM   C6S13552   7.853   0.479  13.296  0.6168 -0.3881  0.1160
  10023SM   H6S13553   7.954   0.515  13.267  0.2927  0.5059  0.0638
  10023SM   H6T13554   7.870   0.376  13.335 -1.1144 -0.1664  1.5848
  10023SM   C7S13555   7.830   0.567  13.425  0.1872 -0.6261 -0.7918
  10023SM   H7S13556   7.726   0.558  13.464  0.9317  0.1279  1.5914
  10023SM   H7T13557   7.848   0.670  13.388 -0.1929 -1.3103 -3.0198
  10023SM   C8S13558   7.929   0.530  13.536  0.0766 -0.4744 -0.4020
  10023SM   H8S13559   8.033   0.538  13.498  0.8800  0.0244  1.7783
  10023SM   H8T13560   7.914   0.429  13.580  0.2377  0.4153  1.8330
  10023SM   C9S13561   7.927   0.628  13.661 -0.1762  0.1169 -0.3131
  10023SM   H9S13562   7.830   0.664  13.700  0.9348  0.8289  2.0381
  10023SM   H9T13563   7.990   0.716  13.634 -0.9120  1.5612  2.2608
  10023SM  C10S13564   8.007   0.567  13.781  0.5952 -0.5499  0.4938
  10023SM  H10S13565   8.117   0.554  13.775  0.5037 -0.9136 -0.5733
  10023SM  H10T13566   7.966   0.464  13.789  1.0313 -0.7130  0.6923
  10023SM  C11S13567   7.987   0.652  13.902 -0.3722 -0.3136  0.4002
  10023SM  H11S13568   7.881   0.683  13.914 -0.1681 -0.1493  1.9703
  10023SM  H11T13569   8.041   0.747  13.880  0.0968 -0.8406 -0.7964
  10023SM  C12S13570   8.048   0.599  14.027 -0.0801 -0.1281  0.3087
  10023SM  H12S13571   8.141   0.543  14.003  0.6052  1.7387 -1.6934
  10023SM  H12T13572   7.981   0.521  14.070  1.1480 -1.5941 -0.3369
  10023SM  C13S13573   8.084   0.706  14.132  0.4336  0.4757 -0.1651
  10023SM  H13S13574   7.990   0.734  14.182  0.1863 -1.9247  0.8723
  10023SM  H13T13575   8.133   0.792  14.082  1.2685  0.8546  1.2634
  10023SM  C14S13576   8.179   0.653  14.243 -0.0900  0.0147 -0.5179
  10023SM  H14S13577   8.271   0.601  14.208 -1.0791 -1.6802 -0.6804
  10023SM  H14T13578   8.114   0.578  14.292 -0.1022 -0.0140 -0.5786
  10023SM  C15S13579   8.211   0.777  14.331  1.0999  1.2614  0.0696
  10023SM  H15S13580   8.213   0.743  14.436  1.5123 -0.6847 -0.5181
  10023SM  H15T13581   8.126   0.848  14.339  1.7887  1.8879  2.8570
  10023SM  C16S13582   8.337   0.851  14.286  0.2647  0.1743 -0.3976
  10023SM  H16S13583   8.340   0.879  14.178  3.9702 -1.3144 -0.8240
  10023SM  H16T13584   8.426   0.788  14.305  0.2518 -0.3765 -2.0024
  10023SM  C17S13585   8.358   0.981  14.365 -0.4974  0.5320  0.0005
  10023SM  H17S13586   8.357   0.953  14.472 -1.8115  0.4999 -0.0047
  10023SM  H17T13587   8.266   1.041  14.347  0.5374  2.1483 -0.0516
  10023SM  C18S13588   8.474   1.067  14.311  0.1546 -0.0325  0.1377
  10023SM  H18S13589   8.455   1.169  14.352 -1.0293  1.1974 -3.1187
  10023SM  H18T13590   8.476   1.075  14.201 -1.4659 -0.5422  0.0358
  10023SM  H18U13591   8.569   1.018  14.341  0.0062  0.6687  1.8854
  10023SM   C1F13592   7.270   0.485  13.277 -0.5897 -0.2612  0.1335
  10023SM    OF13593   7.240   0.376  13.220 -0.5348 -0.3016 -0.2026
  10023SM   C2F13594   7.224   0.513  13.416  0.1005 -0.0069  0.5527
  10023SM   H2F13595   7.182   0.616  13.416 -1.0364 -0.4013 -1.6161
  10023SM   H2G13596   7.315   0.508  13.479  0.0312  0.9873  0.7566
  10023SM   C3F13597   7.114   0.410  13.453  0.0866 -0.2729 -0.1997
  10023SM   H3F13598   7.160   0.311  13.469  1.8193  0.2516 -1.5600
  10023SM   H3G13599   7.042   0.403  13.368 -0.1539  0.5941 -0.0780
  10023SM   C4F13600   7.042   0.462  13.582  0.0746  0.2808  0.2537
  10023SM   H4F13601   6.983   0.553  13.556  0.6935  0.2234 -1.4770
  10023SM   H4G13602   7.129   0.487  13.647  1.9055 -3.6602 -0.3607
  10023SM   C5F13603   6.946   0.356  13.643 -0.3899  0.1008 -0.4610
  10023SM   H5F13604   7.008   0.268  13.672  1.4837  0.8091 -2.0704
  10023SM   H5G13605   6.871   0.334  13.564 -0.3488  0.1357 -0.5090
  10023SM   C6F13606   6.866   0.413  13.764  0.3462  0.2109 -0.3550
  10023SM   H6F13607   6.810   0.319  13.788 -0.0982  1.0072  2.0706
  10023SM   H6G13608   6.795   0.496  13.743 -0.1627 -0.3543 -0.9150
  10023SM   C7F13609   6.964   0.421  13.890  0.4476 -0.0457 -0.2662
  10023SM   H7F13610   7.061   0.380  13.855  1.2955  1.0844  0.7023
  10023SM   H7G13611   6.920   0.354  13.966  3.2109 -0.9283  0.6581
  10023SM   C8F13612   6.979   0.571  13.918  0.0461 -0.0548 -0.0748
  10023SM   H8F13613   6.896   0.605  13.983  0.8308  0.7511  0.5408
  10023SM   H8G13614   6.980   0.627  13.822  0.6674 -0.3634 -0.2588
  10023SM   C9F13615   7.107   0.611  13.986 -0.5826 -0.1137 -0.1404
  10023SM   H9F13616   7.197   0.577  13.930  1.1502  0.7314  2.0001
  10023SM   H9G13617   7.116   0.547  14.076  0.9651  1.2557  0.7469
  10023SM  C10F13618   7.130   0.759  14.018  0.5126  1.1187  0.7740
  10023SM  H10F13619   7.045   0.800  13.960 -0.5554 -0.3267  1.2558
  10023SM  H10G13620   7.225   0.789  13.968  0.1504 -1.9235 -2.1736
  10023SM  C11F13621   7.109   0.795  14.162  0.3135 -0.7911  0.0371
  10023SM  H11F13622   7.179   0.738  14.226  1.0902  2.2074  2.0207
  10023SM  H11G13623   7.006   0.763  14.190  0.3741 -0.9483  0.0855
  10023SM  C12F13624   7.131   0.941  14.207 -1.0580  0.3081  0.4677
  10023SM  H12F13625   7.055   1.009  14.164  0.8214  2.9220  1.0561
  10023SM  H12G13626   7.236   0.963  14.178  0.3656 -1.5566  3.6486
  10023SM  C13F13627   7.127   0.953  14.360  0.3676 -0.2953 -0.4754
  10023SM  H13F13628   7.188   0.878  14.414  0.4388 -1.1775 -1.7456
  10023SM  H13G13629   7.021   0.948  14.392  0.6865  1.2853  0.9717
  10023SM  C14F13630   7.164   1.090  14.430 -0.3501  0.0585 -0.7344
  10023SM  H14F13631   7.084   1.163  14.405  0.8291  0.9445 -2.1443
  10023SM  H14G13632   7.263   1.128  14.396  0.8915 -0.8296  1.6870
  10023SM  C15F13633   7.166   1.082  14.585  0.2354 -0.3269  0.2978
  10023SM  H15F13634   7.079   1.021  14.615 -0.3324 -0.2926 -1.2025
  10023SM  H15G13635   7.167   1.183  14.631  0.8512  0.0694 -0.5582
  10023SM  C16F13636   7.289   1.010  14.640  0.5602 -0.1619 -0.0915
  10023SM  H16F13637   7.380   1.059  14.598  0.5826 -0.6146 -0.5831
  10023SM  H16G13638   7.281   0.909  14.596  0.0527 -1.3724  2.5594
  10023SM  C17F13639   7.309   1.001  14.793  0.1033  1.0120  0.3306
  10023SM  H17F13640   7.224   0.944  14.837  0.7721  0.4930  0.9753
  10023SM  H17G13641   7.305   1.107  14.827 -0.3760  0.8320  0.8619
  10023SM  C18F13642   7.436   0.922  14.844  0.4066 -0.0839 -0.3583
  10023SM  H18F13643   7.444   0.942  14.953 -1.8198  0.0836 -0.1800
  10023SM  H18G13644   7.519   0.973  14.790  2.0051 -0.0267  2.0452
  10023SM  C19F13645   7.452   0.777  14.799 -0.3794 -0.5816 -0.2248
  10023SM  H19F13646   7.450   0.765  14.689 -0.1140 -0.8593 -0.2008
  10023SM  H19G13647   7.369   0.720  14.846  0.3053  0.5657  2.6182
  10023SM  C20F13648   7.586   0.706  14.842  0.3687  0.0451 -0.0755
  10023SM  H20F13649   7.590   0.700  14.953  1.9534  0.5368 -0.0837
  10023SM  H20G13650   7.665   0.775  14.806  1.2749 -0.0572  1.6547
  10023SM  C21F13651   7.606   0.570  14.778  0.6287  0.3959  0.3463
  10023SM  H21F13652   7.697   0.522  14.821  0.7111  0.5846  0.3840
  10023SM  H21G13653   7.632   0.595  14.673  3.3109 -1.4429  0.4501
  10023SM  C22F13654   7.490   0.466  14.797  0.2945 -0.2311 -0.2458
  10023SM  H22F13655   7.515   0.372  14.744 -1.3116 -1.7445  1.4954
  10023SM  H22G13656   7.397   0.501  14.746 -0.2939 -1.0435  0.2390
  10023SM  C23F13657   7.454   0.435  14.944  0.2303  0.2364 -0.6690
  10023SM  H23F13658   7.430   0.530  14.997 -3.6557 -1.2406  0.5201
  10023SM  H23G13659   7.547   0.404  14.996 -0.0661  0.8799  0.2706
  10023SM  H23H13660   7.369   0.366  14.960  0.1926  0.2809 -0.6784
  101CHL1    C313661   3.801   5.118  16.606  0.4871 -0.0713 -0.0023
  101CHL1    H313662   3.734   5.035  16.575 -1.5116  1.5444 -0.2495
  101CHL1    O313663   3.803   5.099  16.744 -0.2677 -0.2932  0.2576
  101CHL1   H3'13664   3.863   5.169  16.772  0.4478 -0.4413 -0.8362
  101CHL1    C413665   3.940   5.104  16.544 -0.1125  0.8561 -0.2754
  101CHL1   H4A13666   4.004   5.178  16.595 -2.8452  0.9268  3.4483
  101CHL1   H4B13667   3.978   5.008  16.584 -0.2686  0.6384 -0.6412
  101CHL1    C513668   3.927   5.110  16.396  0.2985  0.3019  0.8507
  101CHL1    C613669   3.962   5.003  16.326  0.7021 -0.3578 -0.5119
  101CHL1    H613670   3.995   4.907  16.368 -0.4025 -0.3944  0.2947
  101CHL1    C713671   3.930   4.995  16.178  0.2153 -0.2814  0.3911
  101CHL1   H7A13672   3.998   4.935  16.115 -1.2495 -0.6657 -0.8758
  101CHL1   H7B13673   3.834   4.941  16.170  0.1829  0.0466 -2.9428
  101CHL1    C813674   3.918   5.137  16.119  0.3358 -0.8287 -0.0966
  101CHL1    H813675   4.017   5.183  16.137  0.3935 -0.9647 -0.0674
  101CHL1   C1413676   3.881   5.128  15.969 -0.2574 -0.1517 -0.4434
  101CHL1   H1413677   3.783   5.077  15.978 -0.6781  0.8591  1.3003
  101CHL1   C1513678   3.968   5.048  15.877  0.0058 -0.3400  0.4940
  101CHL1  H15A13679   4.075   5.061  15.902  0.7391 -1.1821 -1.9554
  101CHL1  H15B13680   3.961   4.937  15.887 -1.4019 -0.3177 -0.0638
  101CHL1   C1613681   3.918   5.091  15.730 -0.7188 -0.3528 -0.5234
  101CHL1  H16A13682   3.994   5.151  15.675 -1.6274  2.7857  1.3736
  101CHL1  H16B13683   3.869   5.009  15.672  1.5844 -2.1982 -0.0230
  101CHL1   C1713684   3.814   5.209  15.762 -0.4141  0.3908  0.3155
  101CHL1   H1713685   3.714   5.169  15.787 -1.1662  2.4983  0.8087
  101CHL1   C1313686   3.862   5.260  15.899 -0.3755  0.1891 -0.4752
  101CHL1   C1813687   3.999   5.341  15.889  0.1582 -0.0101  0.2923
  101CHL1  H18A13688   4.065   5.313  15.804 -0.4512 -1.5122  0.2989
  101CHL1  H18B13689   3.968   5.448  15.878  0.4771  0.1450  0.8794
  101CHL1  H18C13690   4.058   5.331  15.982  1.6995 -1.5311 -0.7930
  101CHL1   C1213691   3.759   5.346  15.974  0.5669 -0.0247 -0.1934
  101CHL1  H12A13692   3.757   5.448  15.929  0.5518 -0.5444 -1.3795
  101CHL1  H12B13693   3.655   5.308  15.967  0.4188  0.4032 -0.3789
  101CHL1   C1113694   3.792   5.363  16.125  0.1685 -0.7205  0.2105
  101CHL1  H11A13695   3.878   5.434  16.130 -0.3143  0.1239 -1.9752
  101CHL1  H11B13696   3.706   5.415  16.171 -0.6679 -0.7478 -1.2721
  101CHL1    C913697   3.819   5.226  16.197  0.3519 -0.2312  0.3264
  101CHL1    H913698   3.721   5.172  16.201 -0.1416  0.6451  0.3665
  101CHL1   C1013699   3.856   5.240  16.347 -0.3377  0.0407  0.0000
  101CHL1   C1913700   3.950   5.360  16.367  0.5102 -0.3765 -0.4633
  101CHL1  H19A13701   3.897   5.457  16.355  1.0262  0.5054  3.0285
  101CHL1  H19B13702   4.003   5.363  16.465  1.8933  1.1374 -1.2143
  101CHL1  H19C13703   4.031   5.357  16.292 -0.2878 -2.2881 -1.2964
  101CHL1    C113704   3.726   5.260  16.426 -0.0304  0.2968 -0.1548
  101CHL1   H1A13705   3.683   5.357  16.394  0.5992  0.6073 -0.0641
  101CHL1   H1B13706   3.650   5.196  16.377 -0.4487 -0.9675  2.0134
  101CHL1    C213707   3.740   5.248  16.575  0.0479 -0.0552  0.7835
  101CHL1   H2A13708   3.650   5.266  16.637 -0.5619  0.4512 -0.2215
  101CHL1   H2B13709   3.813   5.325  16.610  0.5113  0.2436 -0.7657
  101CHL1   C2013710   3.793   5.303  15.641 -0.0153 -0.2453 -0.1366
  101CHL1   H2013711   3.886   5.364  15.633  0.9666 -1.8004 -1.0878
  101CHL1   C2113712   3.666   5.395  15.658 -0.1564  0.6112 -0.2402
  101CHL1  H21A13713   3.651   5.466  15.574  3.5286  1.8576 -0.0149
  101CHL1  H21B13714   3.669   5.454  15.752 -0.3959  0.0531  0.1245
  101CHL1  H21C13715   3.581   5.324  15.667  0.4214 -0.4236 -2.2971
  101CHL1   C2213716   3.798   5.223  15.505 -0.9470  0.0302  0.2438
  101CHL1  H22A13717   3.899   5.179  15.493 -0.8591 -0.0914  1.3197
  101CHL1  H22B13718   3.720   5.143  15.505 -0.8893 -0.0270  0.5295
  101CHL1   C2313719   3.778   5.322  15.378 -0.3530 -0.1162 -0.3396
  101CHL1  H23A13720   3.686   5.384  15.386 -0.4394 -0.2702 -0.1052
  101CHL1  H23B13721   3.863   5.393  15.377 -1.0912  0.7914 -1.4535
  101CHL1   C2413722   3.779   5.245  15.241 -0.0105 -0.3283  0.0286
  101CHL1  H24A13723   3.878   5.197  15.223 -0.4070 -0.3796 -2.3657
  101CHL1  H24B13724   3.702   5.165  15.245  0.1288 -0.6455 -2.2319
  101CHL1   C2513725   3.748   5.334  15.120 -0.0401 -0.5026  0.6605
  101CHL1   H2513726   3.800   5.431  15.137  0.3599 -0.4516 -0.7513
  101CHL1   C2613727   3.801   5.269  14.987 -0.0979 -0.3636  0.0340
  101CHL1  H26A13728   3.786   5.339  14.902  0.6060  0.3054  0.4418
  101CHL1  H26B13729   3.910   5.247  14.994  0.8006  3.5977  0.7677
  101CHL1  H26C13730   3.748   5.175  14.962  1.4215 -1.0922 -0.5416
  101CHL1   C2713731   3.599   5.349  15.117 -0.5762 -0.1975 -0.4552
  101CHL1  H27A13732   3.564   5.418  15.197 -3.1475  2.1859 -3.3838
  101CHL1  H27B13733   3.564   5.407  15.030 -0.5279 -0.3434 -0.5732
  101CHL1  H27C13734   3.552   5.250  15.102 -0.7040  0.2279 -3.4163
  102CHL1    C313735   2.631   4.893  16.613 -0.1408 -0.3134 -0.5393
  102CHL1    H313736   2.730   4.940  16.595  0.6275 -1.4402  0.5459
  102CHL1    O313737   2.604   4.919  16.750  0.5942 -0.2626  0.7669
  102CHL1   H3'13738   2.609   5.011  16.777  0.2662 -0.3626  1.1768
  102CHL1    C413739   2.515   4.945  16.526 -0.4497 -0.3178 -0.6061
  102CHL1   H4A13740   2.429   4.882  16.559  0.6275 -0.6330  1.8073
  102CHL1   H4B13741   2.492   5.053  16.538  1.3657 -0.1265  1.8966
  102CHL1    C513742   2.543   4.908  16.380 -0.3578 -0.0695  0.6177
  102CHL1    C613743   2.558   5.003  16.282  0.3513 -0.6773 -0.2637
  102CHL1    H613744   2.562   5.110  16.308  1.3108 -0.4341 -1.3421
  102CHL1    C713745   2.581   4.966  16.135 -0.0666 -0.6916 -0.3182
  102CHL1   H7A13746   2.509   5.015  16.066 -0.9230 -0.6486  0.5699
  102CHL1   H7B13747   2.681   5.000  16.103  0.6307 -1.1034  1.3265
  102CHL1    C813748   2.560   4.816  16.105  0.1160 -0.1259 -0.0767
  102CHL1    H813749   2.449   4.806  16.110  0.1894 -1.0625 -0.0404
  102CHL1   C1413750   2.611   4.777  15.962 -0.1754  0.8877 -0.4056
  102CHL1   H1413751   2.717   4.809  15.968  1.4093 -3.6438  0.3463
  102CHL1   C1513752   2.552   4.853  15.843  0.1706 -0.6520 -0.2438
  102CHL1  H15A13753   2.441   4.861  15.845  0.2242  0.2995 -0.8413
  102CHL1  H15B13754   2.580   4.960  15.842  1.1888 -0.8971 -2.5076
  102CHL1   C1613755   2.588   4.769  15.725  0.0891 -0.1446 -0.0929
  102CHL1  H16A13756   2.499   4.749  15.662  0.6101  1.7993 -1.5489
  102CHL1  H16B13757   2.667   4.806  15.656 -1.6969  1.5373 -1.3411
  102CHL1   C1713758   2.652   4.634  15.783  0.0431 -0.1939  0.0937
  102CHL1   H1713759   2.762   4.648  15.784  0.1493 -0.6620 -1.5949
  102CHL1   C1313760   2.612   4.628  15.932 -0.6379  0.0061  0.2231
  102CHL1   C1813761   2.467   4.568  15.941 -0.8509 -0.2245 -0.5997
  102CHL1  H18A13762   2.419   4.596  16.037  0.3061 -0.7845  0.1562
  102CHL1  H18B13763   2.402   4.610  15.861 -1.7194  0.9311  0.6601
  102CHL1  H18C13764   2.468   4.459  15.919 -0.0880 -0.3209 -0.1195
  102CHL1   C1213765   2.709   4.557  16.029  0.2988  0.6171  0.6477
  102CHL1  H12A13766   2.703   4.446  16.023  2.4904  0.2322  3.7180
  102CHL1  H12B13767   2.812   4.596  16.015  0.0393  0.8591 -0.7826
  102CHL1   C1113768   2.654   4.589  16.175 -0.5653 -0.7956  0.3213
  102CHL1  H11A13769   2.560   4.531  16.185 -1.2132 -0.5148 -2.9956
  102CHL1  H11B13770   2.735   4.537  16.232  3.2124  2.3672 -1.6860
  102CHL1    C913771   2.632   4.736  16.207  0.2791  0.2729 -0.4280
  102CHL1    H913772   2.729   4.790  16.210  0.2324  0.6477 -3.2699
  102CHL1   C1013773   2.574   4.762  16.351  0.3845  1.0185 -0.1156
  102CHL1   C1913774   2.434   4.683  16.364 -0.8665  0.3805 -0.2843
  102CHL1  H19A13775   2.436   4.573  16.348 -1.3822  0.4381 -0.7951
  102CHL1  H19B13776   2.386   4.699  16.463 -2.1004  1.1568 -0.9833
  102CHL1  H19C13777   2.354   4.727  16.301 -2.1203 -2.3085 -0.7307
  102CHL1    C113778   2.682   4.709  16.450 -0.4806  0.0809  0.0102
  102CHL1   H1A13779   2.694   4.600  16.433 -1.0265 -0.0127  0.2048
  102CHL1   H1B13780   2.783   4.752  16.434  0.6798 -2.1181  1.0591
  102CHL1    C213781   2.647   4.742  16.597  1.0340 -0.0377 -0.1574
  102CHL1   H2A13782   2.736   4.706  16.653  1.3928  2.2867  0.8600
  102CHL1   H2B13783   2.559   4.684  16.630  1.3009 -0.1539  0.3647
  102CHL1   C2013784   2.630   4.508  15.694  0.6926  0.1841 -0.2150
  102CHL1   H2013785   2.522   4.493  15.674  0.9279 -0.9790 -0.7004
  102CHL1   C2113786   2.687   4.379  15.757  0.0425 -0.3267  0.4431
  102CHL1  H21A13787   2.798   4.382  15.757  0.1260 -0.5163 -2.4428
  102CHL1  H21B13788   2.665   4.289  15.696  0.1888 -0.1747  0.1617
  102CHL1  H21C13789   2.652   4.368  15.862  0.9637  1.9903  1.0517
  102CHL1   C2213790   2.694   4.530  15.550  0.3191  0.1465  0.4642
  102CHL1  H22A13791   2.633   4.606  15.497  0.2919  0.3447  0.7797
  102CHL1  H22B13792   2.800   4.561  15.568  0.7827 -0.8528 -0.4480
  102CHL1   C2313793   2.690   4.411  15.452 -0.9242 -0.5137  0.0426
  102CHL1  H23A13794   2.756   4.332  15.493  0.4212  0.3076 -0.4887
  102CHL1  H23B13795   2.589   4.367  15.440 -0.4188 -2.2166  1.6487
  102CHL1   C2413796   2.739   4.468  15.313 -0.1745 -0.1543 -0.5557
  102CHL1  H24A13797   2.678   4.551  15.271  0.2178 -0.2726 -1.3973
  102CHL1  H24B13798   2.840   4.511  15.330 -1.5130  2.5751  1.1952
  102CHL1   C2513799   2.754   4.365  15.199  1.0533  0.3774  0.1750
  102CHL1   H2513800   2.658   4.311  15.193  1.3245  0.0753 -2.9347
  102CHL1   C2613801   2.773   4.444  15.066  0.4521 -0.4048  0.0457
  102CHL1  H26A13802   2.823   4.389  14.984  0.1255  0.6194 -0.8570
  102CHL1  H26B13803   2.669   4.460  15.032  0.1003  0.3993  1.4193
  102CHL1  H26C13804   2.829   4.536  15.091 -2.8402  1.8601 -0.3283
  102CHL1   C2713805   2.864   4.261  15.216  0.6591 -0.5591 -0.2645
  102CHL1  H27A13806   2.860   4.186  15.135 -0.0503 -0.9934  0.1664
  102CHL1  H27B13807   2.960   4.317  15.211  0.0138  0.4395 -2.6549
  102CHL1  H27C13808   2.858   4.210  15.315 -1.8409 -0.8533 -0.5121
  103CHL1    C313809   2.042   2.853  16.709  0.6390  0.2713 -0.3940
  103CHL1    H313810   2.098   2.947  16.729 -1.1488  1.0863  1.0689
  103CHL1    O313811   1.974   2.804  16.821  0.2047 -0.3397 -0.5818
  103CHL1   H3'13812   2.042   2.748  16.860  1.6986  2.3462  1.0020
  103CHL1    C413813   1.925   2.895  16.610 -0.4725  0.3751  0.5207
  103CHL1   H4A13814   1.868   2.801  16.590 -1.4643  1.1114 -0.1673
  103CHL1   H4B13815   1.849   2.957  16.662  0.2500  2.4545 -0.7915
  103CHL1    C513816   1.999   2.954  16.490  0.2050 -1.1774  0.5159
  103CHL1    C613817   1.963   3.076  16.451 -0.5755 -0.5534  1.2943
  103CHL1    H613818   1.884   3.122  16.513 -0.7583 -0.2324  0.8354
  103CHL1    C713819   2.023   3.143  16.335  0.5194 -0.5314 -0.2424
  103CHL1   H7A13820   1.946   3.196  16.275 -1.2393 -0.9374  1.5474
  103CHL1   H7B13821   2.093   3.226  16.360 -0.8761  0.0314  2.0537
  103CHL1    C813822   2.103   3.046  16.241  0.5922 -0.7386 -0.8457
  103CHL1    H813823   2.032   2.977  16.192 -1.0403 -0.3884  0.8919
  103CHL1   C1413824   2.184   3.123  16.136 -1.1097 -0.2376 -0.2655
  103CHL1   H1413825   2.261   3.163  16.205 -1.8208 -0.5711  0.7318
  103CHL1   C1513826   2.126   3.243  16.066  0.7258  0.6275  0.2181
  103CHL1  H15A13827   2.019   3.245  16.037  0.1569  0.8496  2.1783
  103CHL1  H15B13828   2.138   3.330  16.135  0.8393  0.7204  0.0812
  103CHL1   C1613829   2.219   3.269  15.949  0.7171 -0.2698 -0.3454
  103CHL1  H16A13830   2.168   3.274  15.851 -0.2279 -4.6430 -0.2902
  103CHL1  H16B13831   2.265   3.368  15.967  0.5699 -0.0194 -1.3115
  103CHL1   C1713832   2.323   3.147  15.948  0.4024 -0.1562  0.7247
  103CHL1   H1713833   2.407   3.181  16.013  0.0742 -0.6435  1.4170
  103CHL1   C1313834   2.258   3.035  16.040  0.2697  0.3994 -0.1241
  103CHL1   C1813835   2.158   2.967  15.955 -0.6843  0.5694  1.3883
  103CHL1  H18A13836   2.203   2.903  15.876 -1.3649  1.1536  0.5050
  103CHL1  H18B13837   2.098   2.885  15.998  0.9668 -0.2343  2.2487
  103CHL1  H18C13838   2.098   3.034  15.889  0.1241 -1.3517 -1.4932
  103CHL1   C1213839   2.340   2.930  16.114  0.2007  0.0647 -0.2671
  103CHL1  H12A13840   2.384   2.864  16.037  0.3559  2.2806 -2.1761
  103CHL1  H12B13841   2.432   2.976  16.155 -0.0230  2.4542 -2.2611
  103CHL1   C1113842   2.272   2.849  16.224  0.3038 -0.3232  0.1726
  103CHL1  H11A13843   2.204   2.782  16.166  0.7231 -2.4257  1.9592
  103CHL1  H11B13844   2.342   2.783  16.279 -0.3686 -1.7191 -0.5821
  103CHL1    C913845   2.186   2.943  16.317 -0.0846  0.7175  0.3702
  103CHL1    H913846   2.263   3.001  16.373  1.3095 -0.4542 -0.3041
  103CHL1   C1013847   2.095   2.864  16.418 -0.7488 -0.3131 -0.3669
  103CHL1   C1913848   2.016   2.757  16.335 -0.3777 -0.3731  0.8683
  103CHL1  H19A13849   1.960   2.808  16.254  2.0832  1.4337  0.2094
  103CHL1  H19B13850   2.082   2.679  16.292 -1.1436  0.6863 -2.4952
  103CHL1  H19C13851   1.947   2.699  16.401 -1.6317 -0.4870 -0.5026
  103CHL1    C113852   2.193   2.790  16.516 -0.1906 -0.5242 -0.2900
  103CHL1   H1A13853   2.227   2.698  16.465 -1.0841 -1.5355  0.8650
  103CHL1   H1B13854   2.272   2.866  16.537 -2.4672  1.9793 -0.1929
  103CHL1    C213855   2.130   2.743  16.653  0.5064 -0.2753 -0.3350
  103CHL1   H2A13856   2.206   2.698  16.720  0.3761 -0.6563 -0.4453
  103CHL1   H2B13857   2.072   2.652  16.631 -0.7001  0.4709 -0.3398
  103CHL1   C2013858   2.382   3.113  15.811 -0.0108  0.2840 -0.0937
  103CHL1   H2013859   2.299   3.094  15.740  3.0226 -0.5405 -3.7412
  103CHL1   C2113860   2.471   2.993  15.822  0.5085  0.0322 -0.1663
  103CHL1  H21A13861   2.536   2.987  15.733  1.1039 -0.7591  0.3047
  103CHL1  H21B13862   2.428   2.891  15.823  0.4424  0.0418  1.7667
  103CHL1  H21C13863   2.529   2.996  15.917 -3.3041 -2.1513  2.5340
  103CHL1   C2213864   2.450   3.232  15.748  0.0316  0.7350  0.2760
  103CHL1  H22A13865   2.387   3.322  15.768  0.2233  0.8030  0.5858
  103CHL1  H22B13866   2.547   3.257  15.796 -0.5510  2.1196  0.8016
  103CHL1   C2313867   2.467   3.220  15.592 -0.6818 -0.3626 -0.1203
  103CHL1  H23A13868   2.531   3.131  15.577  0.9989  0.6248  0.9780
  103CHL1  H23B13869   2.372   3.205  15.536 -0.5249 -1.9072 -0.0135
  103CHL1   C2413870   2.528   3.349  15.523  0.5006 -0.2365 -0.1058
  103CHL1  H24A13871   2.446   3.423  15.539  1.4357  0.4133  2.0120
  103CHL1  H24B13872   2.625   3.378  15.570 -0.1226  1.1065  0.4205
  103CHL1   C2513873   2.556   3.340  15.371 -0.1624 -0.6211  0.0206
  103CHL1   H2513874   2.461   3.300  15.329 -1.8098  2.5715  0.3855
  103CHL1   C2613875   2.578   3.475  15.303 -0.3835 -0.4748 -0.3790
  103CHL1  H26A13876   2.666   3.519  15.354 -1.1163  0.1309  0.3776
  103CHL1  H26B13877   2.599   3.473  15.193 -3.4441 -0.0173 -1.0529
  103CHL1  H26C13878   2.490   3.538  15.327 -1.0681 -1.5516 -0.0189
  103CHL1   C2713879   2.674   3.246  15.345 -0.3118  0.0887  0.0834
  103CHL1  H27A13880   2.691   3.230  15.236  0.6867 -2.0385  0.4956
  103CHL1  H27B13881   2.765   3.298  15.382  0.8285 -1.1041 -0.9451
  103CHL1  H27C13882   2.661   3.147  15.394 -0.7632  0.7976  1.4566
  104CHL1    C313883   6.478   5.449  16.456 -0.0288 -0.3170  0.6410
  104CHL1    H313884   6.373   5.487  16.454  0.4660  1.1206  0.2522
  104CHL1    O313885   6.543   5.463  16.577  0.2782  0.4483  0.2139
  104CHL1   H3'13886   6.627   5.418  16.568  0.8071  1.6094 -0.9090
  104CHL1    C413887   6.483   5.305  16.421  0.2136 -0.2588 -1.0699
  104CHL1   H4A13888   6.587   5.268  16.427  1.5150  2.7469 -2.6465
  104CHL1   H4B13889   6.435   5.244  16.500 -0.3468  1.0768 -0.3448
  104CHL1    C513890   6.422   5.273  16.287  0.0475  0.2149  0.1091
  104CHL1    C613891   6.311   5.198  16.270 -0.1707 -0.3743 -0.4361
  104CHL1    H613892   6.266   5.149  16.357 -2.4165 -1.9066 -2.3112
  104CHL1    C713893   6.238   5.184  16.141 -0.4258 -0.0030  0.1249
  104CHL1   H7A13894   6.213   5.077  16.122  1.2007 -0.5372  0.8370
  104CHL1   H7B13895   6.139   5.235  16.147 -0.8734 -0.5425 -1.8847
  104CHL1    C813896   6.320   5.227  16.014 -0.2435  0.2681  0.1984
  104CHL1    H813897   6.408   5.160  16.000  0.6524  1.6094 -0.8787
  104CHL1   C1413898   6.231   5.222  15.892  0.2921 -0.0844  0.1630
  104CHL1   H1413899   6.151   5.296  15.914 -0.0936 -0.7155  0.9694
  104CHL1   C1513900   6.146   5.091  15.860  0.2780 -0.6320  0.0596
  104CHL1  H15A13901   6.199   4.998  15.890 -0.0715 -1.7627 -2.5489
  104CHL1  H15B13902   6.056   5.067  15.920  1.3806 -1.9751  1.2659
  104CHL1   C1613903   6.124   5.095  15.711 -0.4821 -0.3853 -0.1580
  104CHL1  H16A13904   6.193   5.017  15.674  1.9355  1.6296 -0.1863
  104CHL1  H16B13905   6.020   5.087  15.673 -0.2764  0.3051 -0.9028
  104CHL1   C1713906   6.183   5.236  15.660  0.5785 -0.1491  0.1437
  104CHL1   H1713907   6.104   5.313  15.676  1.7727  0.9792  0.8337
  104CHL1   C1313908   6.297   5.266  15.762 -0.3781 -0.4599  0.6749
  104CHL1   C1813909   6.416   5.176  15.721 -0.9219  0.2286 -0.5399
  104CHL1  H18A13910   6.458   5.183  15.618  0.1563  0.8321 -0.0748
  104CHL1  H18B13911   6.492   5.189  15.801 -2.2018  1.9412  0.4586
  104CHL1  H18C13912   6.392   5.069  15.736  0.5386 -0.0883 -0.2969
  104CHL1   C1213913   6.349   5.407  15.790 -0.2681 -0.1614  0.2185
  104CHL1  H12A13914   6.401   5.452  15.703 -1.7846  0.4884 -0.3812
  104CHL1  H12B13915   6.257   5.468  15.801 -1.4171 -1.7221 -0.2473
  104CHL1   C1113916   6.444   5.413  15.911  0.7337 -0.1826 -0.0823
  104CHL1  H11A13917   6.533   5.356  15.878 -1.3515 -2.7931 -1.5662
  104CHL1  H11B13918   6.466   5.521  15.928  0.1869 -0.3230  1.7468
  104CHL1    C913919   6.378   5.362  16.042  1.1379  0.3635  0.3323
  104CHL1    H913920   6.290   5.424  16.066  0.4993 -1.2156  2.4122
  104CHL1   C1013921   6.474   5.358  16.164  0.1988 -0.0278  0.2087
  104CHL1   C1913922   6.617   5.295  16.130  0.1779  0.3789 -0.6039
  104CHL1  H19A13923   6.677   5.285  16.223 -0.7338 -1.3220 -0.1484
  104CHL1  H19B13924   6.605   5.193  16.089 -1.2493 -0.0994  0.8774
  104CHL1  H19C13925   6.683   5.366  16.075  2.4559 -0.1890  1.2759
  104CHL1    C113926   6.500   5.503  16.212 -0.1729 -0.7134  0.0234
  104CHL1   H1A13927   6.551   5.553  16.127 -0.3320 -2.8304 -1.4101
  104CHL1   H1B13928   6.404   5.557  16.227  0.3181  0.2240 -0.1657
  104CHL1    C213929   6.566   5.515  16.346 -0.2033 -0.7824 -1.1026
  104CHL1   H2A13930   6.578   5.624  16.364  1.5809 -1.3490  1.7907
  104CHL1   H2B13931   6.667   5.470  16.339  0.6229  0.7876  0.1121
  104CHL1   C2013932   6.207   5.236  15.503 -0.2857 -0.0606  0.0261
  104CHL1   H2013933   6.279   5.157  15.471 -1.2776 -0.5091 -1.1483
  104CHL1   C2113934   6.264   5.374  15.465  0.3742  0.0431 -0.6432
  104CHL1  H21A13935   6.187   5.447  15.499 -0.7622 -0.2206 -2.5178
  104CHL1  H21B13936   6.270   5.384  15.355  0.5271  1.5412 -0.5179
  104CHL1  H21C13937   6.360   5.390  15.517 -0.8979 -2.1201  2.7542
  104CHL1   C2213938   6.073   5.209  15.427 -0.6444 -0.6353 -0.3635
  104CHL1  H22A13939   6.028   5.114  15.461 -1.1055 -0.4362 -0.4090
  104CHL1  H22B13940   5.999   5.287  15.456  3.1713  2.9797  0.6164
  104CHL1   C2313941   6.085   5.207  15.273 -0.2680 -0.0212  0.0309
  104CHL1  H23A13942   6.094   5.306  15.224 -2.7609 -0.3887 -1.3725
  104CHL1  H23B13943   6.181   5.155  15.255 -0.2308 -0.5746  1.6680
  104CHL1   C2413944   5.959   5.149  15.210 -0.0452 -0.3914  0.4816
  104CHL1  H24A13945   5.924   5.058  15.263 -0.4708  1.0645  2.8513
  104CHL1  H24B13946   5.884   5.229  15.229 -0.3042 -1.0302  2.3413
  104CHL1   C2513947   5.970   5.107  15.071 -0.1994 -0.4575  0.1243
  104CHL1   H2513948   6.047   5.027  15.078 -1.2228 -1.3280  2.1801
  104CHL1   C2613949   5.840   5.048  15.023 -0.1390 -0.1167 -0.0799
  104CHL1  H26A13950   5.851   5.008  14.921  0.0157 -1.8040  0.5747
  104CHL1  H26B13951   5.807   4.961  15.083  2.0588  0.5639  2.3253
  104CHL1  H26C13952   5.757   5.122  15.011 -0.3455 -0.0648  1.3805
  104CHL1   C2713953   6.016   5.228  14.988  0.6677  0.4013 -0.3546
  104CHL1  H27A13954   6.051   5.203  14.885 -1.7900 -1.8974 -0.7309
  104CHL1  H27B13955   5.935   5.303  14.986 -0.0984 -0.4096 -0.2263
  104CHL1  H27C13956   6.100   5.278  15.042  1.1872 -1.5699  0.7542
  105CHL1    C313957   6.205   3.573  16.561  0.2375 -0.0466 -0.6935
  105CHL1    H313958   6.142   3.657  16.524 -1.2411  1.1260  3.7968
  105CHL1    O313959   6.145   3.502  16.660  0.6557 -0.6038 -0.6270
  105CHL1   H3'13960   6.214   3.454  16.706 -0.1097  0.2326  1.5742
  105CHL1    C413961   6.226   3.472  16.448  0.3033 -0.3747  0.8470
  105CHL1   H4A13962   6.283   3.379  16.469  1.5620  0.6939  2.3132
  105CHL1   H4B13963   6.126   3.432  16.420 -1.0938  0.6179  4.0581
  105CHL1    C513964   6.291   3.546  16.335 -0.3514 -0.4568  0.5185
  105CHL1    C613965   6.228   3.556  16.215 -0.0382 -0.4150 -0.2318
  105CHL1    H613966   6.129   3.508  16.208  1.2219 -3.0666 -0.9431
  105CHL1    C713967   6.278   3.620  16.091 -0.2541  0.1606  0.4925
  105CHL1   H7A13968   6.263   3.552  16.005  1.4891 -0.4342  0.6226
  105CHL1   H7B13969   6.230   3.716  16.062  1.5560  0.0710 -3.3613
  105CHL1    C813970   6.435   3.630  16.110 -0.2909  0.5908  0.7012
  105CHL1    H813971   6.474   3.528  16.093 -0.3751  0.8184 -1.0930
  105CHL1   C1413972   6.495   3.723  16.009  0.1269 -0.6711  0.0433
  105CHL1   H1413973   6.441   3.819  16.021  0.7038 -0.3485  0.1173
  105CHL1   C1513974   6.459   3.686  15.858  0.0833 -0.3134 -0.9935
  105CHL1  H15A13975   6.474   3.577  15.845  0.7548 -0.3483 -0.0554
  105CHL1  H15B13976   6.358   3.720  15.829  0.2870 -0.4103 -1.8408
  105CHL1   C1613977   6.558   3.762  15.774 -0.5065  0.5327  0.1624
  105CHL1  H16A13978   6.602   3.692  15.700  0.4405 -0.4301  1.5748
  105CHL1  H16B13979   6.512   3.846  15.718 -0.6280 -0.0485 -0.6333
  105CHL1   C1713980   6.664   3.826  15.873 -0.2811 -0.1837 -0.4376
  105CHL1   H1713981   6.630   3.930  15.892  0.1720 -0.3491  1.5747
  105CHL1   C1313982   6.649   3.741  16.002  0.2464 -0.7668 -0.0579
  105CHL1   C1813983   6.714   3.597  15.972 -0.1465  0.5102 -0.4916
  105CHL1  H18A13984   6.688   3.520  16.048 -0.2316 -0.6463 -1.6464
  105CHL1  H18B13985   6.676   3.553  15.877  0.1541  0.4763 -0.5990
  105CHL1  H18C13986   6.825   3.608  15.969 -0.2254  1.1664 -1.6697
  105CHL1   C1213987   6.701   3.797  16.138  0.7507  0.8008  0.3536
  105CHL1  H12A13988   6.811   3.797  16.150  0.7017 -1.0931  1.0706
  105CHL1  H12B13989   6.667   3.903  16.145 -0.1447  0.4415  1.8574
  105CHL1   C1113990   6.645   3.714  16.253 -0.0323 -0.0620  0.5422
  105CHL1  H11A13991   6.710   3.623  16.250  2.1504  1.2971  2.8249
  105CHL1  H11B13992   6.657   3.764  16.351 -1.4176 -0.4274  0.9250
  105CHL1    C913993   6.491   3.689  16.245  0.1252  0.8473  0.3574
  105CHL1    H913994   6.440   3.788  16.251 -1.3555  0.1557 -0.3436
  105CHL1   C1013995   6.440   3.605  16.365 -0.0647 -0.1231 -1.0679
  105CHL1   C1913996   6.548   3.496  16.399 -0.0317 -0.1437  0.0643
  105CHL1  H19A13997   6.636   3.545  16.446  0.5788 -1.7114  0.6147
  105CHL1  H19B13998   6.502   3.419  16.465  0.8043 -0.2172  0.5724
  105CHL1  H19C13999   6.587   3.451  16.305  1.0655  0.7942  0.0527
  105CHL1    C114000   6.419   3.695  16.489  0.6683 -0.3835  0.6001
  105CHL1   H1A14001   6.517   3.728  16.529  0.1437  2.3438 -0.1988
  105CHL1   H1B14002   6.356   3.782  16.463  1.3217 -0.1855 -0.3892
  105CHL1    C214003   6.338   3.637  16.603  0.3513 -0.0513  0.1867
  105CHL1   H2A14004   6.324   3.715  16.681  0.2824  1.9745 -1.7525
  105CHL1   H2B14005   6.392   3.549  16.646  0.9453 -0.0031 -0.4619
  105CHL1   C2014006   6.811   3.834  15.819  0.1718  0.3820  0.2634
  105CHL1   H2014007   6.837   3.731  15.786 -0.2816  1.5087 -4.3928
  105CHL1   C2114008   6.913   3.896  15.920  0.6426  1.0072 -0.0123
  105CHL1  H21A14009   6.851   3.967  15.980  0.1678  1.9996 -1.6071
  105CHL1  H21B14010   6.996   3.956  15.878  1.5360  1.1110  1.7986
  105CHL1  H21C14011   6.957   3.819  15.986  0.1044 -0.1716 -1.0042
  105CHL1   C2214012   6.812   3.902  15.686 -0.9384  0.1500  0.7831
  105CHL1  H22A14013   6.727   3.870  15.621  0.3516 -2.0408  0.0527
  105CHL1  H22B14014   6.811   4.011  15.704 -2.7405  0.6906 -1.9712
  105CHL1   C2314015   6.934   3.853  15.601 -0.5852 -0.0445  0.1270
  105CHL1  H23A14016   7.029   3.873  15.655 -1.2085  2.6650  0.3262
  105CHL1  H23B14017   6.929   3.742  15.590  1.7065 -0.0168 -2.3501
  105CHL1   C2414018   6.932   3.909  15.457 -0.6743  0.1655 -0.1737
  105CHL1  H24A14019   6.829   3.903  15.416 -0.7503  0.5054 -0.0408
  105CHL1  H24B14020   6.946   4.019  15.450 -2.1396  0.3920  0.1090
  105CHL1   C2514021   7.030   3.853  15.356 -0.4627  0.0312 -0.5052
  105CHL1   H2514022   7.025   3.742  15.355  2.8027 -0.2684 -3.8802
  105CHL1   C2614023   6.984   3.906  15.219  0.0891  0.0007  0.2384
  105CHL1  H26A14024   7.038   3.867  15.131 -0.1819 -0.9224  0.4759
  105CHL1  H26B14025   6.875   3.885  15.213 -0.0616  0.1522  1.9258
  105CHL1  H26C14026   6.985   4.017  15.227 -0.6257 -0.0376  1.0853
  105CHL1   C2714027   7.167   3.911  15.389  0.7973 -0.1870  0.4786
  105CHL1  H27A14028   7.153   4.020  15.408 -0.6601 -0.2122 -0.2870
  105CHL1  H27B14029   7.208   3.869  15.483 -0.9215  0.9124  1.7862
  105CHL1  H27C14030   7.237   3.892  15.305  0.6765 -0.5106  0.4510
  106CHL1    C314031   0.927   3.265  15.983  0.6015 -1.2415 -0.2363
  106CHL1    H314032   1.035   3.286  15.999  0.9037 -1.3488 -1.9447
  106CHL1    O314033   0.874   3.167  16.072  0.1287  0.1831 -0.3365
  106CHL1   H3'14034   0.884   3.079  16.035 -1.0211  0.8382 -2.3357
  106CHL1    C414035   0.844   3.397  16.008 -0.2367 -0.2849  0.1451
  106CHL1   H4A14036   0.736   3.371  16.002 -0.0915 -0.6031 -1.6717
  106CHL1   H4B14037   0.861   3.435  16.111 -1.2849  0.7689 -0.0541
  106CHL1    C514038   0.880   3.501  15.904 -0.0449 -0.2957 -0.1091
  106CHL1    C614039   0.925   3.620  15.944  0.4230  0.1037 -0.1824
  106CHL1    H614040   0.959   3.619  16.048 -0.6463 -1.4771  0.1823
  106CHL1    C714041   0.941   3.738  15.850 -0.5757  0.1571 -0.4684
  106CHL1   H7A14042   0.907   3.835  15.891  0.3372 -0.0402  0.8221
  106CHL1   H7B14043   1.050   3.757  15.838 -0.7652  2.6538  1.1710
  106CHL1    C814044   0.890   3.713  15.707 -0.5810  0.0820 -0.2763
  106CHL1    H814045   0.779   3.720  15.714 -0.4752  0.6795  1.1602
  106CHL1   C1414046   0.959   3.809  15.614 -0.0892 -0.7993  0.2405
  106CHL1   H1414047   1.070   3.799  15.621 -0.1165 -0.3942  1.5183
  106CHL1   C1514048   0.940   3.962  15.630 -0.3789  0.6799 -0.4557
  106CHL1  H15A14049   0.832   3.982  15.650 -0.5606 -2.0171  1.9574
  106CHL1  H15B14050   0.999   3.997  15.718 -2.7259 -1.0263  1.9838
  106CHL1   C1614051   0.989   4.026  15.503 -0.0100  0.5732  0.2187
  106CHL1  H16A14052   0.911   4.089  15.455  1.9054  1.0115 -2.5528
  106CHL1  H16B14053   1.065   4.099  15.539  0.9334  0.3974 -1.3392
  106CHL1   C1714054   1.027   3.905  15.404 -0.0201  0.5538 -0.1623
  106CHL1   H1714055   1.130   3.871  15.427 -0.1356 -0.0184 -0.4567
  106CHL1   C1314056   0.938   3.789  15.460  0.2893  0.3127 -0.5077
  106CHL1   C1814057   0.798   3.827  15.417  0.6231  0.2281  0.5730
  106CHL1  H18A14058   0.724   3.786  15.490 -0.2336 -1.2251 -1.0308
  106CHL1  H18B14059   0.774   3.934  15.404  0.0978  0.4643  2.9583
  106CHL1  H18C14060   0.781   3.788  15.315  1.4673 -1.1607  0.9301
  106CHL1   C1214061   0.974   3.641  15.421  0.2975  0.1421 -0.2634
  106CHL1  H12A14062   0.950   3.628  15.314  0.9754 -1.6616 -0.2355
  106CHL1  H12B14063   1.085   3.637  15.428  0.3539  1.8361  0.1714
  106CHL1   C1114064   0.898   3.543  15.516  0.1646 -0.5032 -0.2335
  106CHL1  H11A14065   0.798   3.534  15.469 -0.5847  1.2711  0.9278
  106CHL1  H11B14066   0.950   3.450  15.485  0.3517  0.1638 -2.0780
  106CHL1    C914067   0.922   3.568  15.664 -0.5515 -0.0786  0.9770
  106CHL1    H914068   1.030   3.560  15.685 -0.3256  2.1838  0.9482
  106CHL1   C1014069   0.855   3.468  15.756  0.1678 -0.0288 -0.7750
  106CHL1   C1914070   0.702   3.461  15.730  0.5184 -0.2509  0.0185
  106CHL1  H19A14071   0.674   3.432  15.627 -3.1777  3.1851 -0.2161
  106CHL1  H19B14072   0.650   3.394  15.802 -1.6054  1.0493 -0.2262
  106CHL1  H19C14073   0.662   3.565  15.733  0.5839 -0.1008 -2.6160
  106CHL1    C114074   0.933   3.334  15.740  0.2910 -0.6864  0.2491
  106CHL1   H1A14075   0.911   3.274  15.649  1.2780 -2.5876  1.1958
  106CHL1   H1B14076   1.042   3.357  15.742 -0.4084  3.1932  2.2044
  106CHL1    C214077   0.892   3.226  15.844  0.2571  0.6357 -0.0296
  106CHL1   H2A14078   0.935   3.128  15.815  0.9353  1.1769 -0.9237
  106CHL1   H2B14079   0.785   3.211  15.820  0.9499  0.3943 -3.5633
  106CHL1   C2014080   1.026   3.946  15.262 -0.0690 -0.0526  0.3100
  106CHL1   H2014081   0.925   3.985  15.235 -0.2379 -1.4026 -1.1808
  106CHL1   C2114082   1.050   3.828  15.176  0.8027  0.0282  0.9312
  106CHL1  H21A14083   0.959   3.767  15.156  0.2622  1.0410  0.2157
  106CHL1  H21B14084   1.128   3.760  15.215  1.5652  0.4810  0.2232
  106CHL1  H21C14085   1.064   3.863  15.072 -0.6227 -0.3696  0.5786
  106CHL1   C2214086   1.134   4.058  15.232 -0.2422  0.3369 -0.6263
  106CHL1  H22A14087   1.133   4.149  15.295  2.0388  0.9129 -1.3045
  106CHL1  H22B14088   1.237   4.018  15.247  0.1328  0.1731 -3.1844
  106CHL1   C2314089   1.163   4.114  15.090  1.1290 -0.3586 -0.7593
  106CHL1  H23A14090   1.195   4.033  15.021  0.9838  0.0412 -1.3012
  106CHL1  H23B14091   1.061   4.146  15.061  1.1022  1.0161  0.7290
  106CHL1   C2414092   1.263   4.230  15.077  0.0547 -0.5115 -0.2910
  106CHL1  H24A14093   1.225   4.312  15.141 -1.6467 -0.7127 -0.9882
  106CHL1  H24B14094   1.360   4.188  15.111 -0.0960 -0.5035  0.1509
  106CHL1   C2514095   1.273   4.292  14.940  0.7591 -0.2421  0.2787
  106CHL1   H2514096   1.277   4.212  14.864 -1.1814  1.1502 -1.4142
  106CHL1   C2614097   1.142   4.379  14.907 -0.1506 -0.2748 -0.2281
  106CHL1  H26A14098   1.053   4.313  14.921 -0.3083  0.2307  1.3353
  106CHL1  H26B14099   1.119   4.454  14.986 -1.5020  0.6551 -1.4571
  106CHL1  H26C14100   1.143   4.425  14.806 -3.2888 -2.4575 -1.4406
  106CHL1   C2714101   1.400   4.378  14.925  0.3321 -0.0158  0.5642
  106CHL1  H27A14102   1.394   4.419  14.822  3.3816 -0.9321 -0.0634
  106CHL1  H27B14103   1.400   4.448  15.011 -1.6315 -0.0618  0.6527
  106CHL1  H27C14104   1.493   4.318  14.923  0.7709  0.6300 -1.5940
  107CHL1    C314105   3.384   6.820  16.270  0.2554 -0.2843 -0.1576
  107CHL1    H314106   3.490   6.826  16.300  0.1440 -1.4762  0.5373
  107CHL1    O314107   3.302   6.825  16.379  0.0890  1.2000  0.1504
  107CHL1   H3'14108   3.217   6.835  16.335  0.9808  3.5910 -1.2277
  107CHL1    C414109   3.358   6.951  16.189  0.0612  0.4817  0.4741
  107CHL1   H4A14110   3.250   6.946  16.163  0.0751  1.5073  0.1584
  107CHL1   H4B14111   3.380   7.038  16.254 -0.9156 -0.7645  2.5851
  107CHL1    C514112   3.429   6.945  16.050 -0.0802  0.5115 -0.8837
  107CHL1    C614113   3.504   7.045  16.009  0.4739  0.0572 -1.7483
  107CHL1    H614114   3.510   7.125  16.084  0.9404 -1.9294  0.4896
  107CHL1    C714115   3.582   7.045  15.884 -0.7590 -0.0058 -0.0659
  107CHL1   H7A14116   3.584   7.143  15.832  0.3318  0.2274  0.3908
  107CHL1   H7B14117   3.687   7.019  15.909 -0.2911  1.4815 -0.4123
  107CHL1    C814118   3.521   6.937  15.781 -0.2501  0.1979  0.3434
  107CHL1    H814119   3.422   6.968  15.741  1.0890  1.7124 -2.0107
  107CHL1   C1414120   3.613   6.931  15.665  0.8713  0.2182 -0.6084
  107CHL1   H1414121   3.710   6.919  15.718  0.9809  2.2833 -0.2261
  107CHL1   C1514122   3.638   7.056  15.578  0.1269  0.2527  0.3695
  107CHL1  H15A14123   3.542   7.097  15.539  1.9130  1.8123 -2.7798
  107CHL1  H15B14124   3.690   7.137  15.634  1.3656  0.8398 -1.5408
  107CHL1   C1614125   3.709   6.995  15.452 -0.1236  0.2649  0.4650
  107CHL1  H16A14126   3.660   7.031  15.358 -1.7648 -0.2877  1.0666
  107CHL1  H16B14127   3.816   7.022  15.463 -0.3830  0.8888  1.7051
  107CHL1   C1714128   3.693   6.843  15.463 -0.4415 -0.2776  0.2947
  107CHL1   H1714129   3.785   6.806  15.514 -0.9705 -0.4340  1.1493
  107CHL1   C1314130   3.585   6.816  15.567 -0.5752 -0.2456  0.6316
  107CHL1   C1814131   3.453   6.830  15.487 -0.2774 -0.5260 -0.0122
  107CHL1  H18A14132   3.436   6.737  15.429 -0.2231 -0.8320  0.4543
  107CHL1  H18B14133   3.366   6.850  15.553  0.3893  2.7651  0.0399
  107CHL1  H18C14134   3.446   6.907  15.408  0.7481 -0.6874 -0.2762
  107CHL1   C1214135   3.584   6.679  15.641  0.1286 -1.0753  0.6412
  107CHL1  H12A14136   3.569   6.598  15.566  1.0744 -0.7882  0.1213
  107CHL1  H12B14137   3.689   6.651  15.667  0.5291 -0.0030  0.2197
  107CHL1   C1114138   3.481   6.687  15.752 -0.4915  0.2044 -0.9339
  107CHL1  H11A14139   3.380   6.705  15.711 -1.8251 -1.9079  1.1725
  107CHL1  H11B14140   3.472   6.598  15.819  0.2161  0.4595 -0.4876
  107CHL1    C914141   3.505   6.799  15.849 -0.3705 -0.6194  0.4787
  107CHL1    H914142   3.606   6.776  15.889 -0.3749  0.0409  0.8854
  107CHL1   C1014143   3.406   6.811  15.974  0.1527 -0.2159  0.2223
  107CHL1   C1914144   3.265   6.814  15.912  0.4799 -0.4292  0.2333
  107CHL1  H19A14145   3.250   6.709  15.879 -0.2752 -0.5291  0.8415
  107CHL1  H19B14146   3.186   6.839  15.986 -1.0342 -0.5107 -1.2819
  107CHL1  H19C14147   3.261   6.890  15.832 -1.5768 -0.1646  0.5238
  107CHL1    C114148   3.416   6.688  16.060 -0.6590 -0.2556  0.5922
  107CHL1   H1A14149   3.367   6.602  16.009 -3.3946  0.6612  1.5159
  107CHL1   H1B14150   3.521   6.656  16.074  0.4362  1.9086 -1.9048
  107CHL1    C214151   3.352   6.693  16.192  0.5569  0.2010  0.6176
  107CHL1   H2A14152   3.373   6.604  16.255  0.3948 -0.3452 -0.0715
  107CHL1   H2B14153   3.243   6.681  16.173  0.9737 -0.7357 -1.5324
  107CHL1   C2014154   3.686   6.777  15.313 -0.1434  0.0558 -0.1277
  107CHL1   H2014155   3.581   6.787  15.278  0.0213 -1.8860 -1.3297
  107CHL1   C2114156   3.694   6.627  15.326  0.2155  0.5943  0.3417
  107CHL1  H21A14157   3.782   6.599  15.387  1.1262  2.1091 -0.2384
  107CHL1  H21B14158   3.700   6.584  15.223 -1.0592  0.7515  0.1838
  107CHL1  H21C14159   3.603   6.577  15.364  0.0385 -0.2600 -1.1072
  107CHL1   C2214160   3.785   6.829  15.207 -1.4995 -0.4104 -0.1121
  107CHL1  H22A14161   3.771   6.777  15.110  0.6104 -0.0480 -0.6509
  107CHL1  H22B14162   3.769   6.938  15.191 -0.8013 -0.2422  0.2949
  107CHL1   C2314163   3.944   6.825  15.238 -0.2300 -0.3820  0.0660
  107CHL1  H23A14164   3.968   6.929  15.267 -2.3005  0.7728 -2.0358
  107CHL1  H23B14165   3.955   6.757  15.326  0.9720  2.1026  1.9672
  107CHL1   C2414166   4.027   6.789  15.113 -0.1869  0.6165 -0.3062
  107CHL1  H24A14167   3.957   6.728  15.050 -0.4847  0.9249 -0.2787
  107CHL1  H24B14168   4.049   6.883  15.058 -1.6172  0.5633 -1.0413
  107CHL1   C2514169   4.151   6.708  15.143 -0.5038  0.3278 -0.1200
  107CHL1   H2514170   4.209   6.766  15.218  0.9010 -0.6268 -0.4249
  107CHL1   C2614171   4.132   6.570  15.212 -0.1414 -1.4953 -0.3280
  107CHL1  H26A14172   4.233   6.523  15.218  1.0602  0.7583 -1.5260
  107CHL1  H26B14173   4.100   6.563  15.318  2.5279 -2.2930  0.5189
  107CHL1  H26C14174   4.068   6.507  15.147  0.2242 -1.6962 -0.4995
  107CHL1   C2714175   4.230   6.692  15.015 -0.0290  0.1058  0.3893
  107CHL1  H27A14176   4.323   6.632  15.030  1.1150  1.3353 -1.4683
  107CHL1  H27B14177   4.164   6.641  14.942 -0.4641  1.4782 -0.2055
  107CHL1  H27C14178   4.261   6.789  14.972 -1.0904 -0.8705 -2.8929
  108CHL1    C314179   6.262   2.095  16.636 -0.9967 -0.4649 -0.0365
  108CHL1    H314180   6.368   2.068  16.613 -1.8617 -2.4941 -2.1028
  108CHL1    O314181   6.264   2.119  16.780 -0.1651  0.3360  0.3509
  108CHL1   H3'14182   6.325   2.190  16.802  0.5046  0.5867 -2.0579
  108CHL1    C414183   6.215   2.215  16.566 -0.1947 -0.1150 -0.4975
  108CHL1   H4A14184   6.117   2.251  16.604 -0.1985 -0.2930 -0.3364
  108CHL1   H4B14185   6.285   2.295  16.597 -1.9930  1.0899  0.6216
  108CHL1    C514186   6.199   2.194  16.416  0.3932  0.3152  0.0328
  108CHL1    C614187   6.259   2.283  16.333 -0.0620  0.5261  0.4154
  108CHL1    H614188   6.315   2.365  16.382  0.9188  0.0789  0.0694
  108CHL1    C714189   6.247   2.272  16.186 -0.6405 -0.5155  0.2847
  108CHL1   H7A14190   6.217   2.372  16.147  0.8448  0.6721  2.0012
  108CHL1   H7B14191   6.345   2.241  16.142 -0.7018 -0.4981  0.1367
  108CHL1    C814192   6.139   2.164  16.146  0.5951  0.5373 -0.1282
  108CHL1    H814193   6.039   2.213  16.154  0.7566  1.0112 -0.9134
  108CHL1   C1414194   6.158   2.128  15.998  0.0878 -0.0505 -0.3027
  108CHL1   H1414195   6.251   2.067  15.985 -0.3195 -0.6804 -0.3007
  108CHL1   C1514196   6.167   2.249  15.901  0.1710  0.3306 -0.1700
  108CHL1  H15A14197   6.099   2.329  15.938 -1.2707 -1.4591  1.2549
  108CHL1  H15B14198   6.270   2.289  15.887  0.6436 -0.9518 -0.4518
  108CHL1   C1614199   6.132   2.186  15.761  0.1006  0.0507  0.1839
  108CHL1  H16A14200   6.057   2.253  15.715  0.6696  1.6369  1.5014
  108CHL1  H16B14201   6.226   2.187  15.701  0.1475  1.6079  0.2582
  108CHL1   C1714202   6.085   2.040  15.789  0.0123 -0.1039  0.2517
  108CHL1   H1714203   6.172   1.971  15.783  0.0213  0.0131 -1.7226
  108CHL1   C1314204   6.045   2.039  15.934  0.5000  0.8749  0.3287
  108CHL1   C1814205   5.910   2.113  15.944  0.2471 -0.0665  1.2532
  108CHL1  H18A14206   5.875   2.132  16.048  0.4351  2.5889  0.8984
  108CHL1  H18B14207   5.913   2.205  15.882 -1.3241  0.2407  1.5761
  108CHL1  H18C14208   5.828   2.048  15.906  1.3696 -0.6665 -0.2127
  108CHL1   C1214209   6.058   1.904  16.013  0.0549  0.6242  0.0323
  108CHL1  H12A14210   5.967   1.849  15.978  0.3247  0.4543 -0.4101
  108CHL1  H12B14211   6.150   1.848  15.988 -0.8626 -0.0370 -2.0685
  108CHL1   C1114212   6.049   1.925  16.163  0.0127  0.2577  0.2227
  108CHL1  H11A14213   5.943   1.954  16.180 -0.3969  1.2335 -3.1870
  108CHL1  H11B14214   6.077   1.832  16.217  1.3979  1.1524  1.1084
  108CHL1    C914215   6.141   2.033  16.221  0.9267  0.1574  0.5082
  108CHL1    H914216   6.241   1.984  16.215 -0.1770 -2.3437  1.0506
  108CHL1   C1014217   6.123   2.061  16.370  0.0905  0.7013 -0.4554
  108CHL1   C1914218   5.979   2.086  16.409  0.0473  0.1633 -0.0287
  108CHL1  H19A14219   5.921   1.993  16.390  0.3324 -0.0857  0.2953
  108CHL1  H19B14220   5.957   2.099  16.517  1.9396  0.2794  0.3864
  108CHL1  H19C14221   5.936   2.168  16.348 -1.9181 -0.4753  0.4262
  108CHL1    C114222   6.176   1.940  16.449  0.3377  0.7002 -0.9663
  108CHL1   H1A14223   6.127   1.844  16.425  0.3140  0.4370  0.0728
  108CHL1   H1B14224   6.281   1.931  16.414  0.9609 -0.1056  0.9876
  108CHL1    C214225   6.175   1.970  16.604 -0.4095  0.5698  0.0649
  108CHL1   H2A14226   6.222   1.888  16.663 -1.2906  0.1161  0.1566
  108CHL1   H2B14227   6.071   1.979  16.642  0.1645  0.6265  1.7068
  108CHL1   C2014228   5.990   1.977  15.679 -0.2611 -0.4287 -1.4366
  108CHL1   H2014229   5.904   2.048  15.681  1.4242  1.8139  2.0375
  108CHL1   C2114230   5.949   1.834  15.708  0.2652 -0.2413 -0.0173
  108CHL1  H21A14231   5.882   1.811  15.793 -0.8809  0.5012 -0.6932
  108CHL1  H21B14232   6.041   1.773  15.720 -0.0407 -0.7186 -0.1039
  108CHL1  H21C14233   5.898   1.784  15.623  1.8777  0.8711 -1.7054
  108CHL1   C2214234   6.045   1.992  15.539  0.3544  0.0157 -0.1214
  108CHL1  H22A14235   5.979   1.958  15.456 -0.3270  2.3975 -0.6436
  108CHL1  H22B14236   6.061   2.099  15.515  0.8656 -0.4690 -2.1391
  108CHL1   C2314237   6.178   1.920  15.518 -0.0525  0.1482  0.1429
  108CHL1  H23A14238   6.252   1.944  15.598  0.8177  0.5410 -0.7429
  108CHL1  H23B14239   6.154   1.812  15.518  1.0621 -0.1361  1.4740
  108CHL1   C2414240   6.263   1.954  15.392  0.3011  0.2353  0.0462
  108CHL1  H24A14241   6.195   1.988  15.311  1.1400  1.1041 -0.3069
  108CHL1  H24B14242   6.320   2.044  15.422 -0.3030  0.3947  0.7529
  108CHL1   C2514243   6.358   1.836  15.345  0.9511  0.2530  0.0359
  108CHL1   H2514244   6.420   1.883  15.266  0.3602  2.1043  0.6038
  108CHL1   C2614245   6.445   1.780  15.460 -0.8076 -0.0803 -0.0768
  108CHL1  H26A14246   6.491   1.865  15.514  3.1463  0.1522 -3.3759
  108CHL1  H26B14247   6.383   1.721  15.531  1.1529  0.6153  2.3283
  108CHL1  H26C14248   6.530   1.725  15.413 -0.1339 -0.0788  1.1129
  108CHL1   C2714249   6.282   1.732  15.264  0.8011 -0.4186  0.4612
  108CHL1  H27A14250   6.201   1.686  15.325  0.0609 -1.2887 -1.1124
  108CHL1  H27B14251   6.232   1.780  15.178  0.2726  0.3645  1.1965
  108CHL1  H27C14252   6.351   1.652  15.228 -1.8753 -1.5990 -2.5050
  109CHL1    C314253   2.337   6.613  15.993 -0.2599 -0.0342  0.1942
  109CHL1    H314254   2.385   6.515  16.013 -0.5953  0.1688  2.1944
  109CHL1    O314255   2.226   6.624  16.084  0.6697 -0.5629 -0.3702
  109CHL1   H3'14256   2.168   6.549  16.069  1.0282 -1.8629  3.4932
  109CHL1    C414257   2.440   6.716  16.019  0.9782 -0.2867 -0.0151
  109CHL1   H4A14258   2.388   6.814  16.028  0.1149 -0.5990 -1.3845
  109CHL1   H4B14259   2.481   6.701  16.122 -0.6023 -0.9241  0.5481
  109CHL1    C514260   2.553   6.720  15.912  1.2795  0.4786  0.4091
  109CHL1    C614261   2.675   6.707  15.945  0.1392 -0.3907  0.4240
  109CHL1    H614262   2.708   6.712  16.050 -0.8287  1.0495  0.6852
  109CHL1    C714263   2.784   6.698  15.843 -0.1050  0.3075 -1.0138
  109CHL1   H7A14264   2.874   6.755  15.876 -0.0771  1.0587 -2.3060
  109CHL1   H7B14265   2.820   6.594  15.834  0.0399  0.2405  0.1403
  109CHL1    C814266   2.740   6.759  15.708 -0.5540  1.1151 -0.6562
  109CHL1    H814267   2.741   6.871  15.706  1.1215  1.1251 -1.0271
  109CHL1   C1414268   2.853   6.723  15.610 -0.3506 -0.0691  0.5650
  109CHL1   H1414269   2.865   6.613  15.620  2.7452  0.3500  2.6222
  109CHL1   C1514270   2.990   6.785  15.631 -0.0044 -0.1077 -0.2305
  109CHL1  H15A14271   2.984   6.893  15.654 -2.6858 -0.3113  0.2821
  109CHL1  H15B14272   3.044   6.724  15.707 -1.3620 -3.7425 -1.9406
  109CHL1   C1614273   3.064   6.768  15.495  0.2539  0.2235  0.2937
  109CHL1  H16A14274   3.107   6.869  15.476 -1.8884  1.0028 -0.8170
  109CHL1  H16B14275   3.143   6.691  15.490  1.0104  0.9062  1.3329
  109CHL1   C1714276   2.951   6.733  15.391  0.1673  0.0138 -0.3246
  109CHL1   H1714277   2.967   6.623  15.385 -0.4116 -0.0300 -1.3578
  109CHL1   C1314278   2.818   6.755  15.465  0.1965  0.2863 -0.1785
  109CHL1   C1814279   2.769   6.896  15.447  0.0300 -0.0195  0.3459
  109CHL1  H18A14280   2.688   6.921  15.519  1.1764  0.0300  1.6698
  109CHL1  H18B14281   2.855   6.966  15.460 -0.1205  0.4213 -0.9260
  109CHL1  H18C14282   2.730   6.913  15.345 -0.0604 -0.1463  0.3602
  109CHL1   C1214283   2.697   6.667  15.427 -0.4766  0.0255 -0.9867
  109CHL1  H12A14284   2.668   6.701  15.326 -0.4262  1.7664 -0.4450
  109CHL1  H12B14285   2.731   6.561  15.422  3.3038  0.9190  1.4035
  109CHL1   C1114286   2.572   6.694  15.508 -0.0497  0.5774 -0.3310
  109CHL1  H11A14287   2.529   6.790  15.471 -0.0878  0.2505 -1.1703
  109CHL1  H11B14288   2.494   6.617  15.487 -0.3707  0.3678  1.5049
  109CHL1    C914289   2.610   6.693  15.664 -0.2641  0.4897 -0.3439
  109CHL1    H914290   2.640   6.586  15.673  1.8863  1.0061 -0.8846
  109CHL1   C1014291   2.497   6.716  15.767 -0.2667 -0.4752  0.5111
  109CHL1   C1914292   2.446   6.863  15.740 -0.9606  0.8038 -0.2221
  109CHL1  H19A14293   2.529   6.937  15.743 -1.4265  1.3162  0.2672
  109CHL1  H19B14294   2.400   6.877  15.640 -0.1916 -2.0688 -1.0717
  109CHL1  H19C14295   2.369   6.889  15.816 -0.3049  1.2806  0.2906
  109CHL1    C114296   2.385   6.614  15.745  0.6579 -0.0533  0.3868
  109CHL1   H1A14297   2.330   6.635  15.650 -2.0459 -0.5564  1.7447
  109CHL1   H1B14298   2.438   6.518  15.730 -0.5039 -0.6875  0.1955
  109CHL1    C214299   2.274   6.614  15.849  0.3340 -0.7869 -0.0570
  109CHL1   H2A14300   2.203   6.529  15.844  1.2008 -1.4788 -0.8423
  109CHL1   H2B14301   2.220   6.711  15.838  2.3785  0.5199  0.7774
  109CHL1   C2014302   2.975   6.799  15.247  0.8809  0.3232 -0.6770
  109CHL1   H2014303   2.970   6.908  15.270 -2.2969  0.0351  0.5704
  109CHL1   C2114304   2.867   6.775  15.134 -0.1300 -0.2954  0.2471
  109CHL1  H21A14305   2.858   6.670  15.099  2.3564 -0.4659 -0.0412
  109CHL1  H21B14306   2.901   6.839  15.050 -1.4007  0.8860  0.5872
  109CHL1  H21C14307   2.768   6.819  15.161 -0.8553 -1.3929 -0.5600
  109CHL1   C2214308   3.118   6.782  15.187  0.1970 -0.3798  0.5008
  109CHL1  H22A14309   3.119   6.840  15.093  2.1604 -0.8989  0.1631
  109CHL1  H22B14310   3.193   6.830  15.252  0.3325  2.1588 -1.3790
  109CHL1   C2314311   3.163   6.639  15.148  0.1020  0.0681 -0.3501
  109CHL1  H23A14312   3.132   6.573  15.231  2.1168 -1.8545 -1.0325
  109CHL1  H23B14313   3.094   6.607  15.067 -2.6363 -0.8153  2.1781
  109CHL1   C2414314   3.311   6.633  15.104  0.0130  0.1522  0.3283
  109CHL1  H24A14315   3.348   6.724  15.052  1.6365  0.5526  2.0806
  109CHL1  H24B14316   3.370   6.628  15.197  2.1943 -0.0136 -1.0054
  109CHL1   C2514317   3.347   6.510  15.019  0.2721 -1.0336  0.4334
  109CHL1   H2514318   3.277   6.518  14.933 -1.9835 -1.6938  2.1154
  109CHL1   C2614319   3.481   6.519  14.958  0.2877 -0.1134 -0.3408
  109CHL1  H26A14320   3.491   6.444  14.877 -0.4371 -0.3808 -0.1943
  109CHL1  H26B14321   3.505   6.617  14.911  3.5464  0.3213  1.9628
  109CHL1  H26C14322   3.557   6.501  15.036 -2.2909 -1.8274  1.9715
  109CHL1   C2714323   3.336   6.372  15.089  0.1270  0.9515 -0.5386
  109CHL1  H27A14324   3.410   6.375  15.172  0.0156 -3.1756 -0.0425
  109CHL1  H27B14325   3.230   6.355  15.118 -0.0153  1.3074 -0.8609
  109CHL1  H27C14326   3.367   6.295  15.015  0.5102  2.2984 -1.8051
  110CHL1    C314327   1.024   5.373  15.915 -0.3987  0.2051  0.1687
  110CHL1    H314328   1.048   5.267  15.888 -0.6771  0.5892 -1.6848
  110CHL1    O314329   1.024   5.379  16.055 -0.1338  0.3186 -0.3075
  110CHL1   H3'14330   1.019   5.470  16.084  1.7822  0.3247  0.1220
  110CHL1    C414331   1.129   5.472  15.857  0.4666 -0.2662  1.5390
  110CHL1   H4A14332   1.112   5.578  15.886 -0.6420  0.2178 -0.6815
  110CHL1   H4B14333   1.231   5.455  15.898  1.6516  1.6841 -0.4230
  110CHL1    C514334   1.120   5.457  15.704 -0.6779  0.4014  0.0322
  110CHL1    C614335   1.226   5.412  15.632  0.3404  0.5719  0.7040
  110CHL1    H614336   1.319   5.377  15.679 -0.8667 -0.8605  2.1522
  110CHL1    C714337   1.212   5.401  15.481  0.1741 -0.2230 -0.2284
  110CHL1   H7A14338   1.307   5.429  15.430  2.1809 -1.0235  2.8058
  110CHL1   H7B14339   1.183   5.299  15.448 -1.3739  0.9418 -2.7937
  110CHL1    C814340   1.100   5.487  15.418 -0.4224  0.4502  0.0112
  110CHL1    H814341   1.123   5.596  15.421 -1.7941  0.8648 -2.2957
  110CHL1   C1414342   1.096   5.473  15.265 -0.2932 -0.1883 -0.9443
  110CHL1   H1414343   1.081   5.365  15.245  0.7859 -0.4871 -0.2126
  110CHL1   C1514344   1.221   5.484  15.181  0.1231 -0.0739  0.7110
  110CHL1  H15A14345   1.273   5.582  15.189  1.8900 -0.7167 -1.6959
  110CHL1  H15B14346   1.295   5.402  15.191 -1.9840 -2.1613  0.1232
  110CHL1   C1614347   1.164   5.491  15.032 -0.0665  0.0870 -0.9025
  110CHL1  H16A14348   1.216   5.572  14.976  0.2296 -0.0453 -0.8233
  110CHL1  H16B14349   1.196   5.400  14.976  1.1257 -0.9268  1.2946
  110CHL1   C1714350   1.008   5.504  15.046  0.4546 -0.0004  0.0442
  110CHL1   H1714351   0.964   5.403  15.032  0.1225  0.1033  0.3336
  110CHL1   C1314352   0.980   5.548  15.193 -0.2206  0.2067  0.2669
  110CHL1   C1814353   1.007   5.696  15.207  1.1459 -0.0481 -0.2851
  110CHL1  H18A14354   1.098   5.733  15.155  1.2862  0.6681  0.4376
  110CHL1  H18B14355   0.913   5.744  15.173 -0.1169 -1.0339  1.6311
  110CHL1  H18C14356   1.019   5.720  15.315 -0.8275  1.4537 -0.3484
  110CHL1   C1214357   0.855   5.497  15.254  0.7094 -0.7786 -0.5234
  110CHL1  H12A14358   0.773   5.550  15.202 -0.1628 -3.5609 -2.2162
  110CHL1  H12B14359   0.850   5.386  15.254 -0.5232 -0.7559  0.7003
  110CHL1   C1114360   0.844   5.518  15.410 -0.0028 -0.4320  0.0894
  110CHL1  H11A14361   0.832   5.628  15.423  0.4486 -0.3027 -0.5359
  110CHL1  H11B14362   0.752   5.464  15.439 -1.1717  1.5327  0.2786
  110CHL1    C914363   0.966   5.462  15.489 -0.8229  0.4898 -0.5331
  110CHL1    H914364   0.943   5.355  15.472  0.8043  0.5308 -3.8803
  110CHL1   C1014365   0.971   5.495  15.641 -0.3242 -0.7389  0.4995
  110CHL1   C1914366   0.942   5.645  15.659  0.6374 -0.1146  0.3628
  110CHL1  H19A14367   0.971   5.703  15.569  0.1656  0.3076  0.4757
  110CHL1  H19B14368   0.833   5.667  15.662  0.2012 -2.0051  0.1281
  110CHL1  H19C14369   0.990   5.682  15.752  1.7785 -0.7935  0.0663
  110CHL1    C114370   0.869   5.418  15.724  0.0020 -0.2780  0.7600
  110CHL1   H1A14371   0.767   5.450  15.695  0.7382  0.8927 -0.6490
  110CHL1   H1B14372   0.878   5.313  15.690 -0.5804  0.0573 -0.4899
  110CHL1    C214373   0.888   5.421  15.871  0.2911 -0.2596 -0.1286
  110CHL1   H2A14374   0.805   5.362  15.915 -0.5353  1.3997  0.6370
  110CHL1   H2B14375   0.882   5.524  15.912  2.0974 -1.0648  2.3521
  110CHL1   C2014376   0.936   5.590  14.938 -0.2798 -0.2700  1.3025
  110CHL1   H2014377   0.943   5.699  14.955 -1.3759  0.0366 -0.0502
  110CHL1   C2114378   0.783   5.562  14.934 -0.1775 -0.1699 -0.2480
  110CHL1  H21A14379   0.729   5.611  14.849  0.1150 -0.4792 -0.6166
  110CHL1  H21B14380   0.737   5.618  15.018  2.3814  2.0143 -0.1874
  110CHL1  H21C14381   0.765   5.452  14.936 -0.6473 -0.0923  0.0518
  110CHL1   C2214382   0.986   5.568  14.789 -0.0665  0.0204 -1.0986
  110CHL1  H22A14383   0.941   5.654  14.736  2.4100  1.2830 -1.2637
  110CHL1  H22B14384   1.097   5.571  14.780 -0.0144 -2.0526 -1.7327
  110CHL1   C2314385   0.951   5.431  14.729  0.8903  0.4310  0.0992
  110CHL1  H23A14386   0.959   5.348  14.802  1.1815  0.1404 -0.2552
  110CHL1  H23B14387   0.849   5.433  14.685  1.2672  2.2342 -0.7974
  110CHL1   C2414388   1.047   5.397  14.607 -0.1210 -0.1185 -1.2207
  110CHL1  H24A14389   1.020   5.466  14.524 -1.5586  1.5511  0.5051
  110CHL1  H24B14390   1.151   5.416  14.641 -0.7293  0.4546  0.4313
  110CHL1   C2514391   1.046   5.247  14.558  0.4659 -0.1423  0.3003
  110CHL1   H2514392   0.942   5.217  14.534  1.1540 -2.4307 -0.0282
  110CHL1   C2614393   1.125   5.257  14.428  0.5113 -0.0297 -0.1608
  110CHL1  H26A14394   1.225   5.303  14.435  0.7696 -0.7523  1.5004
  110CHL1  H26B14395   1.142   5.154  14.389  0.6830  0.8046 -2.4291
  110CHL1  H26C14396   1.069   5.309  14.348 -0.1419  0.5439  0.6481
  110CHL1   C2714397   1.098   5.153  14.664  1.2197  0.5334 -0.3009
  110CHL1  H27A14398   1.015   5.147  14.738  0.5864  1.7181 -0.8832
  110CHL1  H27B14399   1.112   5.057  14.610  0.1200  0.6569 -0.8391
  110CHL1  H27C14400   1.191   5.181  14.717  1.6130  0.8056 -1.1257
  111CHL1    C314401   1.838   0.490  16.234 -0.4889 -0.0743 -0.8812
  111CHL1    H314402   1.789   0.581  16.194 -3.2776 -0.1120  2.0188
  111CHL1    O314403   1.794   0.474  16.376  0.4663 -0.1015 -0.1253
  111CHL1   H3'14404   1.803   0.564  16.407 -1.0146 -0.2392  0.8155
  111CHL1    C414405   1.798   0.362  16.162 -0.0978  0.0988  0.4192
  111CHL1   H4A14406   1.842   0.272  16.211  0.8840 -0.2150 -0.9983
  111CHL1   H4B14407   1.687   0.353  16.169 -0.0234 -1.3949 -0.0315
  111CHL1    C514408   1.847   0.363  16.020 -0.2070  0.2998  0.4474
  111CHL1    C614409   1.761   0.329  15.921 -0.3580  0.0511 -0.1437
  111CHL1    H614410   1.657   0.303  15.947 -0.3325  0.1278  0.0347
  111CHL1    C714411   1.799   0.324  15.776  0.2777  0.1914  0.1935
  111CHL1   H7A14412   1.758   0.231  15.731  1.4027  0.3221 -1.1882
  111CHL1   H7B14413   1.752   0.411  15.726  0.4840  0.2843  0.1582
  111CHL1    C814414   1.956   0.328  15.755  0.1606  0.2012  0.3921
  111CHL1    H814415   1.991   0.225  15.779  0.9791  0.8683  2.3296
  111CHL1   C1414416   1.989   0.359  15.609 -0.0176  0.1986 -0.1650
  111CHL1   H1414417   1.959   0.465  15.599 -0.3732 -0.0032 -1.4571
  111CHL1   C1514418   1.908   0.283  15.499  0.0665 -0.2219 -0.4735
  111CHL1  H15A14419   1.916   0.174  15.517 -2.1038 -0.8469 -2.7729
  111CHL1  H15B14420   1.803   0.321  15.496 -0.1623 -0.7772  0.2701
  111CHL1   C1614421   1.984   0.321  15.375 -0.9937 -0.1550  0.7668
  111CHL1  H16A14422   2.005   0.231  15.313 -1.4441 -0.6710  1.3596
  111CHL1  H16B14423   1.933   0.401  15.317 -1.5544 -0.3896  0.9399
  111CHL1   C1714424   2.127   0.380  15.426  0.0694  0.0140 -0.2584
  111CHL1   H1714425   2.097   0.486  15.411  2.0378  0.4656 -1.2597
  111CHL1   C1314426   2.141   0.356  15.578 -0.5510  0.1208  0.1347
  111CHL1   C1814427   2.205   0.213  15.595 -0.2807  0.0469 -0.1901
  111CHL1  H18A14428   2.182   0.141  15.513  3.5674 -0.1152 -1.2969
  111CHL1  H18B14429   2.315   0.223  15.599 -0.2804 -0.0264 -0.0218
  111CHL1  H18C14430   2.179   0.161  15.690 -0.5491 -1.2393 -0.9456
  111CHL1   C1214431   2.213   0.461  15.667  0.2257  0.5106  0.5104
  111CHL1  H12A14432   2.323   0.455  15.653  0.1564 -0.0836  0.1751
  111CHL1  H12B14433   2.173   0.560  15.638 -1.2869 -0.3971 -0.6436
  111CHL1   C1114434   2.184   0.436  15.815  0.8474 -0.5162  0.9011
  111CHL1  H11A14435   2.227   0.336  15.839  0.8841 -0.9705 -0.9031
  111CHL1  H11B14436   2.234   0.516  15.874 -0.7962  2.0507 -0.9660
  111CHL1    C914437   2.029   0.423  15.850 -0.2900  0.4060 -0.1193
  111CHL1    H914438   1.982   0.521  15.829 -0.7633  0.2908  0.3788
  111CHL1   C1014439   1.998   0.392  15.998  0.2768  1.2799  0.3583
  111CHL1   C1914440   2.077   0.274  16.057  0.1128  0.3870 -0.3475
  111CHL1  H19A14441   2.064   0.180  16.000  0.3598 -0.5694  1.1069
  111CHL1  H19B14442   2.184   0.303  16.059  0.7959 -1.9514 -0.5031
  111CHL1  H19C14443   2.047   0.249  16.161  0.2304  0.1780 -0.3657
  111CHL1    C114444   2.035   0.517  16.082 -0.1214  0.2312  0.4215
  111CHL1   H1A14445   2.146   0.525  16.076  0.0392 -0.7989  1.6754
  111CHL1   H1B14446   1.994   0.610  16.036 -0.2658  0.0211  0.1275
  111CHL1    C214447   1.990   0.513  16.229  0.3878 -0.2881 -0.2475
  111CHL1   H2A14448   2.014   0.606  16.285  0.0363  0.1346 -0.7989
  111CHL1   H2B14449   2.035   0.430  16.288  0.7498  1.0976  1.5098
  111CHL1   C2014450   2.241   0.348  15.335  0.6476  0.2268  0.5809
  111CHL1   H2014451   2.261   0.239  15.342 -2.1560 -0.2865  2.0016
  111CHL1   C2114452   2.368   0.420  15.379  0.0581 -0.1235  0.0412
  111CHL1  H21A14453   2.398   0.381  15.479 -1.2005  1.4413  1.0729
  111CHL1  H21B14454   2.334   0.524  15.399 -0.7396 -0.3020 -0.3526
  111CHL1  H21C14455   2.446   0.426  15.300 -1.4603 -3.2508 -1.8842
  111CHL1   C2214456   2.206   0.380  15.191  0.5377  0.6002  0.2831
  111CHL1  H22A14457   2.105   0.338  15.168  0.3705  0.3339  1.4270
  111CHL1  H22B14458   2.196   0.490  15.177 -3.0335  0.2920 -0.6654
  111CHL1   C2314459   2.296   0.317  15.084  0.4568  0.2713  0.7371
  111CHL1  H23A14460   2.400   0.353  15.096  0.0071  1.8282  0.1888
  111CHL1  H23B14461   2.288   0.206  15.088 -0.2820  0.2961  0.2387
  111CHL1   C2414462   2.249   0.363  14.939  0.5007  0.0582 -0.0382
  111CHL1  H24A14463   2.142   0.339  14.921  0.1808  0.6213  1.0100
  111CHL1  H24B14464   2.253   0.474  14.930  0.2030 -0.0651 -2.6377
  111CHL1   C2514465   2.340   0.302  14.824  0.3311 -0.2840  0.2016
  111CHL1   H2514466   2.444   0.334  14.847  0.1349 -0.1302  0.9071
  111CHL1   C2614467   2.343   0.153  14.816  0.2981  0.6324 -0.1067
  111CHL1  H26A14468   2.246   0.102  14.833 -0.3191  1.5510 -0.7739
  111CHL1  H26B14469   2.376   0.120  14.715 -1.3967 -0.6015 -0.3036
  111CHL1  H26C14470   2.416   0.117  14.892  0.4003 -3.2496 -1.7702
  111CHL1   C2714471   2.296   0.368  14.697  0.1293 -0.1904 -0.2156
  111CHL1  H27A14472   2.304   0.478  14.707 -1.0328  0.0272 -1.3765
  111CHL1  H27B14473   2.351   0.335  14.607  1.7698  0.6455  0.4437
  111CHL1  H27C14474   2.188   0.346  14.679  0.2043 -1.2645  0.5241
  112CHL1    C314475   4.247   1.101  16.316 -0.1886 -0.3169 -0.7672
  112CHL1    H314476   4.320   1.017  16.321  0.7156  0.4812 -0.1978
  112CHL1    O314477   4.128   1.076  16.397 -0.1592  0.3929 -0.5498
  112CHL1   H3'14478   4.076   1.151  16.367 -0.2304  0.3034 -0.6486
  112CHL1    C414479   4.319   1.229  16.368  0.0574  0.2047 -0.0962
  112CHL1   H4A14480   4.245   1.311  16.370  1.0942  1.4979 -4.3303
  112CHL1   H4B14481   4.358   1.207  16.470 -0.3885 -2.1931 -0.3832
  112CHL1    C514482   4.427   1.270  16.269 -0.5672 -0.0036  0.1353
  112CHL1    C614483   4.555   1.286  16.313  0.1608  0.3844  0.0078
  112CHL1    H614484   4.580   1.267  16.419  2.2566 -0.7316 -0.6366
  112CHL1    C714485   4.675   1.317  16.223  0.7340  0.4202  0.3323
  112CHL1   H7A14486   4.736   1.397  16.270  0.1187  0.8599  0.3915
  112CHL1   H7B14487   4.734   1.223  16.210  0.9359  0.8209 -2.0897
  112CHL1    C814488   4.635   1.366  16.078 -0.2926  0.1205 -0.1602
  112CHL1    H814489   4.603   1.472  16.080  2.6818  1.1307 -1.3274
  112CHL1   C1414490   4.744   1.338  15.983  0.4126 -0.1536  0.5797
  112CHL1   H1414491   4.758   1.228  15.971 -1.3740 -0.3096 -0.5206
  112CHL1   C1514492   4.887   1.383  16.030 -0.0487  0.0705  0.1279
  112CHL1  H15A14493   4.874   1.487  16.067 -3.0960 -0.3286  0.4158
  112CHL1  H15B14494   4.936   1.309  16.095  0.5072 -0.5328 -0.9457
  112CHL1   C1614495   4.971   1.376  15.900 -1.3520 -0.4121 -0.1940
  112CHL1  H16A14496   5.034   1.468  15.895 -0.7082 -0.8826 -0.8732
  112CHL1  H16B14497   5.047   1.295  15.901 -0.2167  0.6217 -0.0151
  112CHL1   C1714498   4.869   1.357  15.788  0.6357 -0.3129  0.6893
  112CHL1   H1714499   4.850   1.250  15.767  0.4222 -0.3481  1.0553
  112CHL1   C1314500   4.729   1.395  15.845  0.6251 -0.3020 -0.1663
  112CHL1   C1814501   4.717   1.547  15.846 -0.4102  0.5598  0.4183
  112CHL1  H18A14502   4.656   1.582  15.932 -0.5133  0.9153  0.2010
  112CHL1  H18B14503   4.817   1.595  15.842 -0.0358 -0.2488 -0.1171
  112CHL1  H18C14504   4.660   1.575  15.755 -1.8524 -2.5159  0.2649
  112CHL1   C1214505   4.598   1.340  15.786 -0.4543 -0.5255  0.0888
  112CHL1  H12A14506   4.577   1.390  15.689 -1.7304 -1.3304 -0.0739
  112CHL1  H12B14507   4.620   1.234  15.764  0.7878 -0.5430  1.2658
  112CHL1   C1114508   4.480   1.345  15.881 -0.4458  0.5188 -0.2496
  112CHL1  H11A14509   4.454   1.451  15.866  1.3998  0.9241 -0.9211
  112CHL1  H11B14510   4.406   1.272  15.840 -0.9079  0.5522  0.5226
  112CHL1    C914511   4.510   1.295  16.023  0.1317  0.2844 -0.5829
  112CHL1    H914512   4.534   1.188  16.003 -2.3825  0.0043 -2.6325
  112CHL1   C1014513   4.388   1.287  16.123  0.5380 -0.3095 -0.0692
  112CHL1   C1914514   4.304   1.418  16.121  0.2004 -0.3459  0.0241
  112CHL1  H19A14515   4.289   1.440  16.013  2.8873  0.5608 -0.2425
  112CHL1  H19B14516   4.206   1.407  16.172 -0.0701  1.4185 -0.0750
  112CHL1  H19C14517   4.361   1.505  16.160  0.3238 -1.3723  2.3070
  112CHL1    C114518   4.297   1.166  16.078 -0.2852 -0.0459  0.2646
  112CHL1   H1A14519   4.250   1.180  15.979  0.7611  0.4811 -0.1703
  112CHL1   H1B14520   4.363   1.077  16.067  0.7655  0.7401  0.1089
  112CHL1    C214521   4.192   1.115  16.178  0.1171 -0.1455  0.2023
  112CHL1   H2A14522   4.157   1.011  16.156 -2.0187 -0.1905  3.2531
  112CHL1   H2B14523   4.105   1.182  16.164  0.7334  0.4076 -1.2085
  112CHL1   C2014524   4.921   1.423  15.652 -0.4326 -0.4382 -0.4164
  112CHL1   H2014525   4.958   1.528  15.661 -0.2255 -0.3065 -2.3767
  112CHL1   C2114526   4.802   1.433  15.552 -0.1762  0.2084 -0.1694
  112CHL1  H21A14527   4.845   1.461  15.454 -0.9787 -1.8567 -1.1738
  112CHL1  H21B14528   4.718   1.505  15.569 -1.4626 -1.1994 -0.3168
  112CHL1  H21C14529   4.756   1.333  15.538  1.6361 -0.6131 -0.4839
  112CHL1   C2214530   5.047   1.350  15.599  0.2824  0.2888  0.6425
  112CHL1  H22A14531   5.131   1.392  15.660  1.6315  1.4948 -1.8728
  112CHL1  H22B14532   5.031   1.241  15.615  1.0066 -0.3590 -2.4855
  112CHL1   C2314533   5.089   1.371  15.448 -0.3635  0.1173  0.1788
  112CHL1  H23A14534   5.030   1.310  15.376 -0.5112  0.6624 -0.1609
  112CHL1  H23B14535   5.074   1.478  15.425  0.3180  0.1498 -0.1408
  112CHL1   C2414536   5.243   1.332  15.425  0.1072 -0.5459  0.6541
  112CHL1  H24A14537   5.302   1.389  15.501 -0.3600 -1.5678  1.8158
  112CHL1  H24B14538   5.249   1.222  15.438  0.4775 -1.0331 -2.8548
  112CHL1   C2514539   5.277   1.372  15.276  0.2737 -0.3201 -0.1494
  112CHL1   H2514540   5.221   1.466  15.257 -0.7398 -1.4209 -3.0100
  112CHL1   C2614541   5.423   1.407  15.263  0.2634 -0.3365 -0.4780
  112CHL1  H26A14542   5.489   1.318  15.264  0.1101 -0.4505 -0.0722
  112CHL1  H26B14543   5.453   1.468  15.175  2.9090 -1.7245 -0.6087
  112CHL1  H26C14544   5.453   1.479  15.342  1.6613  1.2683 -2.3668
  112CHL1   C2714545   5.244   1.260  15.178  0.2391  0.3103 -0.4704
  112CHL1  H27A14546   5.310   1.173  15.201  2.3237  1.6135 -1.3029
  112CHL1  H27B14547   5.137   1.229  15.181 -0.1260  1.5767  0.5731
  112CHL1  H27C14548   5.267   1.289  15.074  1.8762 -1.9175 -0.8257
  113CHL1    C314549   0.508   5.992  16.028  0.0383 -0.4701  0.3560
  113CHL1    H314550   0.398   5.976  16.021 -0.6204  2.6484  1.9598
  113CHL1    O314551   0.547   6.016  16.159 -0.0154 -0.2499  0.2893
  113CHL1   H3'14552   0.642   6.022  16.163 -0.1217  1.1018  2.8789
  113CHL1    C414553   0.580   5.867  15.972  0.3763 -0.0198 -0.0948
  113CHL1   H4A14554   0.690   5.874  15.988  0.6039 -1.2379 -0.9515
  113CHL1   H4B14555   0.542   5.780  16.030  0.0752 -1.6195 -2.5520
  113CHL1    C514556   0.551   5.837  15.828 -0.2417  0.3542 -0.2400
  113CHL1    C614557   0.508   5.715  15.787 -0.4040  0.6749 -1.0320
  113CHL1    H614558   0.499   5.633  15.860  2.3997 -0.9901 -2.3875
  113CHL1    C714559   0.496   5.685  15.648  0.3067 -0.0066  0.9460
  113CHL1   H7A14560   0.549   5.592  15.621 -0.2577 -0.5892  1.7681
  113CHL1   H7B14561   0.390   5.654  15.634  0.9736 -1.9846 -0.0328
  113CHL1    C814562   0.536   5.792  15.543  0.2156  0.1571 -0.2218
  113CHL1    H814563   0.643   5.772  15.521  0.2100  0.4640 -0.5369
  113CHL1   C1414564   0.465   5.779  15.407 -0.7837 -0.4040 -0.3004
  113CHL1   H1414565   0.358   5.809  15.417 -1.1700 -1.8468  0.1070
  113CHL1   C1514566   0.466   5.637  15.346 -0.0633 -0.1211 -0.0671
  113CHL1  H15A14567   0.544   5.559  15.360  0.1281  0.2996  1.3866
  113CHL1  H15B14568   0.373   5.593  15.386  0.7478 -0.8240  1.1161
  113CHL1   C1614569   0.446   5.664  15.197 -0.2343 -0.4742 -0.2987
  113CHL1  H16A14570   0.533   5.625  15.140 -0.7290  0.3082 -1.6323
  113CHL1  H16B14571   0.348   5.623  15.166 -2.7254  0.5617  5.0749
  113CHL1   C1714572   0.447   5.816  15.173 -0.0612  0.1046 -0.8368
  113CHL1   H1714573   0.344   5.855  15.179 -0.1911 -0.1400 -1.4470
  113CHL1   C1314574   0.527   5.870  15.298  0.6194 -0.2612  0.0764
  113CHL1   C1814575   0.683   5.849  15.271 -0.3405 -0.2770  0.0313
  113CHL1  H18A14576   0.708   5.924  15.194 -1.2268  2.3305  2.1342
  113CHL1  H18B14577   0.739   5.873  15.364  1.9094 -0.2525 -1.2540
  113CHL1  H18C14578   0.698   5.741  15.248 -1.7278 -1.2868  3.2663
  113CHL1   C1214579   0.497   6.014  15.348 -0.0314  0.5151 -0.1428
  113CHL1  H12A14580   0.545   6.086  15.279  0.4384  0.4348  0.0916
  113CHL1  H12B14581   0.390   6.043  15.352 -0.1337  0.0470  1.0368
  113CHL1   C1114582   0.557   6.041  15.496  0.5656  0.2167  0.2274
  113CHL1  H11A14583   0.668   6.052  15.490  0.4766  1.5835  0.8450
  113CHL1  H11B14584   0.501   6.132  15.526  0.7390  1.2521 -2.3314
  113CHL1    C914585   0.513   5.931  15.596  0.0699  0.7857  1.1201
  113CHL1    H914586   0.403   5.938  15.609 -0.2114 -1.2269  0.2266
  113CHL1   C1014587   0.586   5.956  15.737  0.1014 -0.0511  0.3441
  113CHL1   C1914588   0.737   5.976  15.730 -0.1720 -0.7666  0.3114
  113CHL1  H19A14589   0.760   6.082  15.705  0.3826 -1.0885 -0.6074
  113CHL1  H19B14590   0.775   5.967  15.834 -3.9680 -1.5276  1.7903
  113CHL1  H19C14591   0.784   5.904  15.659 -1.7417 -1.3942 -0.1149
  113CHL1    C114592   0.512   6.084  15.791  0.3117 -0.0078 -0.5015
  113CHL1   H1A14593   0.560   6.169  15.738 -0.1957  1.5732  1.4238
  113CHL1   H1B14594   0.402   6.082  15.775  0.1872 -2.5336  0.2307
  113CHL1    C214595   0.548   6.112  15.935 -0.6037 -0.0109  0.0148
  113CHL1   H2A14596   0.507   6.204  15.982  0.5215  1.1843 -1.2686
  113CHL1   H2B14597   0.658   6.128  15.939 -0.4100 -1.4530  1.1383
  113CHL1   C2014598   0.485   5.859  15.037 -0.8090 -0.7025 -0.2526
  113CHL1   H2014599   0.592   5.832  15.022 -1.2769 -1.6970 -2.1595
  113CHL1   C2114600   0.458   6.011  15.016  0.3994  0.2195 -0.2503
  113CHL1  H21A14601   0.351   6.036  15.033  0.7219 -0.5237  3.7960
  113CHL1  H21B14602   0.490   6.043  14.915 -1.4868 -1.5651 -1.4926
  113CHL1  H21C14603   0.504   6.083  15.088  1.8238  0.4086 -1.3048
  113CHL1   C2214604   0.414   5.786  14.921 -0.7906  0.9156  0.3467
  113CHL1  H22A14605   0.416   5.676  14.936  0.3528  0.9487  0.4845
  113CHL1  H22B14606   0.311   5.828  14.929 -1.7375 -1.3772  1.1611
  113CHL1   C2314607   0.480   5.815  14.788  0.4073  0.1422 -0.1614
  113CHL1  H23A14608   0.431   5.906  14.747  0.5757 -0.5938 -2.1150
  113CHL1  H23B14609   0.590   5.828  14.803  1.0112 -2.8314 -1.2119
  113CHL1   C2414610   0.468   5.708  14.684 -0.2649 -0.4565 -0.7146
  113CHL1  H24A14611   0.480   5.603  14.719 -1.6155  0.1812  1.8917
  113CHL1  H24B14612   0.364   5.720  14.646  0.0841  1.7451 -1.0946
  113CHL1   C2514613   0.547   5.734  14.553  0.3572 -0.1387  0.1774
  113CHL1   H2514614   0.647   5.742  14.602  0.3370 -0.6139  0.3066
  113CHL1   C2614615   0.535   5.612  14.455  0.2565  0.2937 -0.4628
  113CHL1  H26A14616   0.601   5.636  14.369  1.9779  0.1760  0.7836
  113CHL1  H26B14617   0.585   5.527  14.507  0.8933  1.3837  0.7418
  113CHL1  H26C14618   0.430   5.591  14.424  0.1257  1.5596 -0.9078
  113CHL1   C2714619   0.494   5.868  14.493 -0.7975  0.2226  0.9828
  113CHL1  H27A14620   0.549   5.886  14.399  0.9921  0.4824  2.0361
  113CHL1  H27B14621   0.387   5.873  14.464 -0.4652  0.8984 -0.2004
  113CHL1  H27C14622   0.514   5.946  14.570  0.4719 -0.3232  1.2210
  114CHL1    C314623   4.673   7.453  16.249 -0.0479 -0.1722 -0.3369
  114CHL1    H314624   4.566   7.461  16.223  0.0092 -0.2233 -0.5904
  114CHL1    O314625   4.685   7.481  16.386 -0.0071  0.0652 -0.5426
  114CHL1   H3'14626   4.775   7.515  16.392 -0.0862  0.2689  4.9180
  114CHL1    C414627   4.715   7.306  16.216 -0.5967  0.0244  0.1683
  114CHL1   H4A14628   4.810   7.294  16.271 -1.4351  0.2560  1.7179
  114CHL1   H4B14629   4.646   7.237  16.268  0.6451 -0.3957  1.3073
  114CHL1    C514630   4.726   7.279  16.059 -0.3203  1.1740 -0.0272
  114CHL1    C614631   4.652   7.179  16.002  0.6052  0.3841 -0.2002
  114CHL1    H614632   4.578   7.122  16.060 -1.2341  0.3848 -2.3903
  114CHL1    C714633   4.652   7.149  15.854  0.6086 -0.2015 -0.3380
  114CHL1   H7A14634   4.657   7.040  15.830  0.4604 -0.2590 -0.1104
  114CHL1   H7B14635   4.564   7.203  15.814  2.1531  2.7603 -0.0465
  114CHL1    C814636   4.771   7.205  15.782  0.6270  0.1727 -0.0933
  114CHL1    H814637   4.862   7.148  15.810 -0.1363  0.1771  2.6910
  114CHL1   C1414638   4.761   7.195  15.634  0.1366 -0.0027 -0.2946
  114CHL1   H1414639   4.670   7.251  15.604  0.0321  0.6131  1.1005
  114CHL1   C1514640   4.750   7.049  15.577 -0.5195 -0.2822  0.1998
  114CHL1  H15A14641   4.822   6.983  15.629 -0.5277 -0.9763 -0.6529
  114CHL1  H15B14642   4.647   7.011  15.592 -0.6513 -0.0373 -0.0733
  114CHL1   C1614643   4.785   7.062  15.427 -0.4427  0.0105 -0.6423
  114CHL1  H16A14644   4.875   6.999  15.408  2.1567  3.6710 -1.6718
  114CHL1  H16B14645   4.700   7.033  15.363  0.8204 -0.8355 -2.0094
  114CHL1   C1714646   4.807   7.212  15.401  0.0642 -0.2154  0.0759
  114CHL1   H1714647   4.706   7.257  15.398  0.0107 -0.0888  2.2458
  114CHL1   C1314648   4.856   7.266  15.545 -0.2928  0.4270 -0.0950
  114CHL1   C1814649   5.001   7.214  15.583  0.8704 -0.1478 -0.4239
  114CHL1  H18A14650   5.034   7.229  15.688  0.0952  1.6588 -0.4042
  114CHL1  H18B14651   5.013   7.106  15.562  0.1867 -0.2130 -0.5081
  114CHL1  H18C14652   5.065   7.273  15.513  0.5103 -0.5526 -1.1055
  114CHL1   C1214653   4.844   7.418  15.576 -0.2095  0.4438 -0.1109
  114CHL1  H12A14654   4.931   7.475  15.537 -0.1172 -1.4091 -2.8829
  114CHL1  H12B14655   4.748   7.469  15.552  1.0999  2.4601 -1.4202
  114CHL1   C1114656   4.872   7.444  15.727 -0.8958 -0.2233 -0.5037
  114CHL1  H11A14657   4.982   7.449  15.737 -0.8967  2.4880 -1.1496
  114CHL1  H11B14658   4.837   7.546  15.753  2.4137  0.6280  1.2588
  114CHL1    C914659   4.793   7.360  15.825  0.0990  0.5070 -0.3132
  114CHL1    H914660   4.693   7.406  15.809 -0.1150  0.7286  1.4718
  114CHL1   C1014661   4.811   7.381  15.980 -1.0597  0.8663  0.8571
  114CHL1   C1914662   4.967   7.363  16.007  0.6648  0.3413  0.6422
  114CHL1  H19A14663   5.015   7.270  15.969 -1.5415 -0.3228 -0.7454
  114CHL1  H19B14664   5.025   7.439  15.952  1.6994 -0.8739 -0.0008
  114CHL1  H19C14665   4.985   7.364  16.117 -0.4045 -0.8865  0.8528
  114CHL1    C114666   4.764   7.526  16.019  0.2559  0.2766  0.1963
  114CHL1   H1A14667   4.829   7.601  15.971 -1.0330 -0.7119 -3.4362
  114CHL1   H1B14668   4.658   7.534  15.985  0.1436  1.7110  0.8010
  114CHL1    C214669   4.768   7.549  16.173  0.0119 -0.1274 -0.0221
  114CHL1   H2A14670   4.729   7.647  16.208 -1.2056 -0.9893  1.1480
  114CHL1   H2B14671   4.874   7.549  16.204  1.0097  3.5950 -2.7561
  114CHL1   C2014672   4.887   7.239  15.270  0.1941 -0.0364 -0.5173
  114CHL1   H2014673   4.990   7.197  15.273 -0.4238 -1.5522  0.9940
  114CHL1   C2114674   4.880   7.390  15.242 -0.8404  0.2053 -0.8864
  114CHL1  H21A14675   4.777   7.433  15.240 -1.9134 -2.0878  0.6514
  114CHL1  H21B14676   4.938   7.423  15.153  1.0028  2.6952  1.1135
  114CHL1  H21C14677   4.937   7.445  15.319 -1.0958 -1.0750  0.2556
  114CHL1   C2214678   4.827   7.159  15.155 -0.0142 -0.2353  0.5839
  114CHL1  H22A14679   4.829   7.050  15.175 -0.5403 -0.5871 -1.1190
  114CHL1  H22B14680   4.724   7.201  15.143  0.8746  2.9212  2.7889
  114CHL1   C2314681   4.918   7.162  15.025  0.5550  0.0386 -0.2110
  114CHL1  H23A14682   4.944   7.268  15.006 -0.4320  0.7290  2.0186
  114CHL1  H23B14683   5.015   7.119  15.059 -0.0751  0.4269  2.1978
  114CHL1   C2414684   4.861   7.106  14.896  0.5991  0.3103  0.6252
  114CHL1  H24A14685   4.842   6.999  14.915 -0.8222 -0.3401 -3.4856
  114CHL1  H24B14686   4.759   7.143  14.870  0.8704  0.8008  0.2502
  114CHL1   C2514687   4.952   7.113  14.774 -0.3731 -0.6715 -0.0954
  114CHL1   H2514688   4.980   7.220  14.761 -0.9939 -0.1492  2.4035
  114CHL1   C2614689   5.086   7.038  14.805  0.8035  0.1383  0.3587
  114CHL1  H26A14690   5.066   6.932  14.831  0.1680  0.0346 -0.5083
  114CHL1  H26B14691   5.153   7.035  14.717  0.5657 -0.7419  0.1919
  114CHL1  H26C14692   5.144   7.088  14.886 -0.1401 -0.2567  1.3076
  114CHL1   C2714693   4.887   7.056  14.647  0.6079  0.1243  0.1288
  114CHL1  H27A14694   4.789   7.108  14.651 -0.0281 -1.1178  1.2379
  114CHL1  H27B14695   4.937   7.091  14.554 -0.9309  0.6103 -0.5497
  114CHL1  H27C14696   4.882   6.945  14.641  0.8627  0.1806 -1.7271
  115CHL1    C314697   2.462   1.401  16.493 -0.1108 -0.8835  0.5256
  115CHL1    H314698   2.537   1.439  16.420 -1.2351  0.1569 -0.1266
  115CHL1    O314699   2.517   1.382  16.623  0.7807 -0.8564  0.5329
  115CHL1   H3'14700   2.449   1.380  16.691  1.9483 -0.1638  1.7702
  115CHL1    C414701   2.346   1.498  16.510  0.6324 -1.1550 -0.2205
  115CHL1   H4A14702   2.270   1.454  16.578  0.5710  0.6450  0.9348
  115CHL1   H4B14703   2.376   1.591  16.561  0.9160 -1.4100  0.0797
  115CHL1    C514704   2.280   1.531  16.380 -0.0188  1.2367 -0.0403
  115CHL1    C614705   2.276   1.654  16.334 -0.4317  0.1124  0.5097
  115CHL1    H614706   2.310   1.741  16.393  1.2594 -1.0584  1.3359
  115CHL1    C714707   2.211   1.699  16.204  0.1022  0.5230 -0.3852
  115CHL1   H7A14708   2.160   1.797  16.208 -1.7229 -0.4139  0.6165
  115CHL1   H7B14709   2.289   1.714  16.126  1.8908 -2.7132  0.5785
  115CHL1    C814710   2.126   1.586  16.141  0.1327  0.6261 -0.2800
  115CHL1    H814711   2.026   1.585  16.189  0.4438 -0.2112  0.3733
  115CHL1   C1414712   2.092   1.621  15.996 -0.0051  0.9285  0.7810
  115CHL1   H1414713   2.182   1.638  15.933 -0.8795  1.4196 -0.3938
  115CHL1   C1514714   1.989   1.736  15.979  0.1182  0.2534  0.4369
  115CHL1  H15A14715   1.891   1.741  16.029 -0.0654  3.2333 -0.0505
  115CHL1  H15B14716   2.040   1.832  15.999 -0.2723 -0.1908  4.2471
  115CHL1   C1614717   1.953   1.721  15.837 -0.2775 -0.3472  0.3891
  115CHL1  H16A14718   1.845   1.741  15.824  0.0023  1.7415  0.8788
  115CHL1  H16B14719   2.004   1.799  15.777  0.2116 -0.0968  1.1148
  115CHL1   C1714720   1.993   1.580  15.784 -0.1540 -0.4783 -0.1793
  115CHL1   H1714721   2.089   1.590  15.728  0.3722  0.4374  0.8341
  115CHL1   C1314722   2.026   1.506  15.915 -0.5639  0.3095  0.6902
  115CHL1   C1814723   1.883   1.468  15.967 -0.7597  0.0899  0.4785
  115CHL1  H18A14724   1.812   1.553  15.969  1.4952  2.1301 -0.5441
  115CHL1  H18B14725   1.834   1.393  15.901  0.5301 -0.2422 -0.1373
  115CHL1  H18C14726   1.880   1.431  16.071 -1.0084 -1.4824 -0.0641
  115CHL1   C1214727   2.124   1.384  15.913 -0.4591 -0.1269 -0.2903
  115CHL1  H12A14728   2.078   1.308  15.847 -1.4031 -0.5407  0.8125
  115CHL1  H12B14729   2.226   1.399  15.872 -0.7317  1.4747 -0.4280
  115CHL1   C1114730   2.150   1.352  16.060 -0.2439  0.3953 -0.4999
  115CHL1  H11A14731   2.056   1.308  16.101 -0.9174  4.2390  2.6248
  115CHL1  H11B14732   2.230   1.274  16.061 -0.1403  0.4966 -0.8805
  115CHL1    C914733   2.202   1.456  16.153  0.1102  1.0735  0.8732
  115CHL1    H914734   2.300   1.475  16.104  0.3279 -2.3506 -0.2795
  115CHL1   C1014735   2.235   1.414  16.296 -0.0366  0.3699  0.0059
  115CHL1   C1914736   2.103   1.355  16.351  0.1658  0.4781  0.0959
  115CHL1  H19A14737   2.107   1.336  16.460  0.6810 -0.3528 -0.0587
  115CHL1  H19B14738   2.029   1.437  16.340  0.1386  0.3444 -0.7598
  115CHL1  H19C14739   2.074   1.259  16.302  1.3926  0.1394  0.0056
  115CHL1    C114740   2.353   1.303  16.295  0.5153  0.5411 -0.4641
  115CHL1   H1A14741   2.317   1.208  16.249 -0.1605  0.7976 -0.4816
  115CHL1   H1B14742   2.434   1.342  16.230  0.2946 -0.4834 -1.3876
  115CHL1    C214743   2.415   1.274  16.432  0.4633 -0.6351  0.2691
  115CHL1   H2A14744   2.500   1.203  16.423  0.0952 -0.7877 -3.4084
  115CHL1   H2B14745   2.334   1.227  16.493 -2.3357  2.6276 -0.6206
  115CHL1   C2014746   1.891   1.526  15.682  0.4325 -0.4322  0.8102
  115CHL1   H2014747   1.799   1.510  15.742 -0.5417  0.4934 -0.3814
  115CHL1   C2114748   1.926   1.389  15.631  0.2200 -0.0066  1.1324
  115CHL1  H21A14749   1.854   1.360  15.551  1.9181  2.2032 -1.3972
  115CHL1  H21B14750   1.932   1.315  15.714  1.0072  1.0281  2.0363
  115CHL1  H21C14751   2.025   1.383  15.581  0.7280  1.3476  1.9139
  115CHL1   C2214752   1.866   1.618  15.553  0.2656  0.2664  0.7180
  115CHL1  H22A14753   1.874   1.722  15.592  0.3949  1.3299 -1.9750
  115CHL1  H22B14754   1.931   1.600  15.465 -0.3102  0.6167  0.2112
  115CHL1   C2314755   1.722   1.604  15.492  0.5160  0.0801 -0.2580
  115CHL1  H23A14756   1.701   1.496  15.473 -1.5874  0.6291 -1.4434
  115CHL1  H23B14757   1.653   1.621  15.578 -0.0537  0.3460 -0.7540
  115CHL1   C2414758   1.688   1.680  15.366 -0.1475  0.6513 -0.0807
  115CHL1  H24A14759   1.712   1.787  15.380  1.0180  0.3763  0.1393
  115CHL1  H24B14760   1.766   1.653  15.291 -0.9404 -0.7191 -0.4574
  115CHL1   C2514761   1.543   1.663  15.313  0.3911  0.1504 -0.2185
  115CHL1   H2514762   1.474   1.704  15.389  0.4408  1.0561 -0.6397
  115CHL1   C2614763   1.517   1.736  15.179 -0.3632 -0.2378 -0.5468
  115CHL1  H26A14764   1.424   1.694  15.135 -0.0456 -1.5571 -0.0194
  115CHL1  H26B14765   1.527   1.847  15.182 -1.1107 -0.0977 -2.4311
  115CHL1  H26C14766   1.596   1.712  15.105  1.0847  4.3776 -0.7858
  115CHL1   C2714767   1.510   1.515  15.284  0.0976 -0.1293 -0.0993
  115CHL1  H27A14768   1.502   1.471  15.386 -0.3692  0.3309  0.0629
  115CHL1  H27B14769   1.407   1.497  15.247  0.2720  0.8732 -1.1136
  115CHL1  H27C14770   1.590   1.459  15.231 -0.9519  0.3893 -2.3276
  116CHL1    C314771   2.484   7.630  16.052 -0.3231 -0.2813  0.8079
  116CHL1    H314772   2.441   7.731  16.041  1.1573  0.2912 -0.0983
  116CHL1    O314773   2.547   7.616  16.178 -0.6363 -0.0301 -0.6175
  116CHL1   H3'14774   2.598   7.537  16.194 -2.0674 -0.4803  2.4096
  116CHL1    C414775   2.368   7.535  16.048 -0.2555  0.0367 -0.2930
  116CHL1   H4A14776   2.399   7.435  16.085 -1.2388  0.1001  0.7740
  116CHL1   H4B14777   2.298   7.571  16.126 -0.6179  1.1104 -1.0886
  116CHL1    C514778   2.296   7.521  15.915 -0.0821 -0.3821  0.9834
  116CHL1    C614779   2.164   7.533  15.909  0.2694  0.6408  0.3269
  116CHL1    H614780   2.107   7.567  15.996 -0.6550 -0.8778  0.3463
  116CHL1    C714781   2.078   7.524  15.782  0.3838  0.0688  0.4339
  116CHL1   H7A14782   1.986   7.462  15.787  1.4849 -1.5980  0.7462
  116CHL1   H7B14783   2.055   7.631  15.764 -1.5739 -0.2573  0.7475
  116CHL1    C814784   2.155   7.476  15.654  0.0255  0.7806  0.4996
  116CHL1    H814785   2.153   7.365  15.654 -1.4729  0.7039 -2.5022
  116CHL1   C1414786   2.082   7.526  15.533  0.5083 -0.3593  1.0487
  116CHL1   H1414787   2.083   7.637  15.538 -0.5646 -0.3107  0.5775
  116CHL1   C1514788   1.935   7.502  15.502 -0.3867  0.9533 -0.8510
  116CHL1  H15A14789   1.921   7.394  15.524 -1.0148  1.1466 -0.2677
  116CHL1  H15B14790   1.862   7.564  15.559  1.5730  0.9737  1.7789
  116CHL1   C1614791   1.923   7.532  15.344 -0.2413 -0.4559  0.1127
  116CHL1  H16A14792   1.880   7.441  15.296 -0.7300  0.8194 -1.9890
  116CHL1  H16B14793   1.863   7.620  15.314 -1.9579 -2.3697 -2.5063
  116CHL1   C1714794   2.068   7.558  15.289  0.4966  0.1737 -0.1079
  116CHL1   H1714795   2.090   7.667  15.289  0.8732  0.1039 -0.9089
  116CHL1   C1314796   2.155   7.495  15.403  0.1937  0.3940  0.5931
  116CHL1   C1814797   2.158   7.341  15.392 -0.7004  0.7175  0.6594
  116CHL1  H18A14798   2.058   7.294  15.397  0.4283 -1.7361  1.5504
  116CHL1  H18B14799   2.199   7.318  15.291  0.2021  0.0464  1.1687
  116CHL1  H18C14800   2.220   7.296  15.472 -1.8320 -0.0072  1.1474
  116CHL1   C1214801   2.298   7.561  15.409  0.5751  0.2324  0.7834
  116CHL1  H12A14802   2.362   7.539  15.320 -1.4935 -3.5341  0.0154
  116CHL1  H12B14803   2.274   7.669  15.401 -0.2950  0.0220  0.4702
  116CHL1   C1114804   2.380   7.510  15.528  0.3051  0.0487 -0.0133
  116CHL1  H11A14805   2.420   7.408  15.510 -1.1022 -0.1743 -2.2514
  116CHL1  H11B14806   2.471   7.573  15.539  0.4351 -0.1609  0.1217
  116CHL1    C914807   2.295   7.530  15.660 -0.3295 -0.2150 -0.2047
  116CHL1    H914808   2.288   7.641  15.661  1.3428 -0.0724  1.0966
  116CHL1   C1014809   2.376   7.499  15.793 -0.2599  0.4878  0.1517
  116CHL1   C1914810   2.417   7.352  15.786  0.6651 -0.2747  0.2376
  116CHL1  H19A14811   2.340   7.279  15.752  0.7863 -0.1018 -0.4286
  116CHL1  H19B14812   2.499   7.338  15.712  2.1301  0.3767  1.6660
  116CHL1  H19C14813   2.469   7.321  15.879  1.1639  0.6398  0.2750
  116CHL1    C114814   2.505   7.589  15.798  0.3441 -0.6301  0.5679
  116CHL1   H1A14815   2.577   7.551  15.723 -0.6768  1.0040 -1.3283
  116CHL1   H1B14816   2.472   7.692  15.772  0.7295 -1.2148 -2.6168
  116CHL1    C214817   2.576   7.592  15.936  0.6844 -0.1808 -0.4153
  116CHL1   H2A14818   2.668   7.654  15.928  2.6909 -3.0581 -1.4344
  116CHL1   H2B14819   2.601   7.485  15.950 -0.0688 -0.8538 -3.4607
  116CHL1   C2014820   2.073   7.508  15.138 -0.9803 -0.2613 -0.1335
  116CHL1   H2014821   2.054   7.398  15.136 -0.9165 -0.2771  0.0771
  116CHL1   C2114822   2.203   7.559  15.075  0.9371  0.8169  0.3727
  116CHL1  H21A14823   2.217   7.668  15.086 -0.7232  1.0151  0.8040
  116CHL1  H21B14824   2.217   7.526  14.970  1.7646 -0.1725  0.7727
  116CHL1  H21C14825   2.288   7.511  15.129  0.4827 -2.3754 -1.4781
  116CHL1   C2214826   1.956   7.559  15.047  0.3205 -0.4555 -0.2656
  116CHL1  H22A14827   1.969   7.514  14.947  0.8876  1.1176 -0.9241
  116CHL1  H22B14828   1.855   7.529  15.080  0.0243 -1.3160 -1.8602
  116CHL1   C2314829   1.942   7.715  15.028  0.1133 -0.6541 -0.1000
  116CHL1  H23A14830   1.915   7.756  15.128  1.1810 -0.8914  0.2930
  116CHL1  H23B14831   2.035   7.766  14.995  0.9902 -2.2572 -0.2151
  116CHL1   C2414832   1.832   7.758  14.925  0.0521  0.1619  0.1615
  116CHL1  H24A14833   1.844   7.685  14.843 -0.0030 -0.8550  1.0416
  116CHL1  H24B14834   1.730   7.743  14.965 -0.9064 -1.5610 -2.6521
  116CHL1   C2514835   1.846   7.905  14.871 -0.5137 -0.1535 -0.4874
  116CHL1   H2514836   1.951   7.917  14.837 -0.9080 -0.5699 -1.9434
  116CHL1   C2614837   1.756   7.933  14.753 -0.0053  0.3116 -0.5250
  116CHL1  H26A14838   1.769   7.885  14.654 -0.9733  0.0975 -0.5606
  116CHL1  H26B14839   1.648   7.919  14.773 -0.2753  1.4647 -1.1327
  116CHL1  H26C14840   1.763   8.041  14.731 -0.7547  0.6896  0.9390
  116CHL1   C2714841   1.815   8.006  14.981  0.2435 -0.1960  0.1465
  116CHL1  H27A14842   1.892   8.005  15.062 -0.0059  2.3129  0.4928
  116CHL1  H27B14843   1.834   8.109  14.946  0.0952  0.2137  1.2172
  116CHL1  H27C14844   1.718   7.993  15.034  1.7532  0.9469  3.4854
  117CHL1    C314845   4.824   0.869  16.109 -0.0223 -0.1290  0.1109
  117CHL1    H314846   4.771   0.965  16.127  0.9417  0.3865  0.2370
  117CHL1    O314847   4.861   0.808  16.234 -0.3120 -0.2035  0.0023
  117CHL1   H3'14848   4.886   0.893  16.272 -1.4701 -0.1765  0.7436
  117CHL1    C414849   4.719   0.777  16.033 -0.7200  0.2655 -0.3470
  117CHL1   H4A14850   4.766   0.677  16.018 -1.2502  0.0654 -0.7171
  117CHL1   H4B14851   4.631   0.754  16.096 -0.5459  0.6232  0.0259
  117CHL1    C514852   4.693   0.834  15.895 -0.3284 -0.7963 -0.1735
  117CHL1    C614853   4.570   0.871  15.864  0.1974  0.7447  0.5640
  117CHL1    H614854   4.488   0.858  15.936 -0.0477  1.5885  0.4488
  117CHL1    C714855   4.531   0.920  15.727  0.1325 -0.9105  0.1441
  117CHL1   H7A14856   4.436   0.871  15.695  1.3129 -3.8442  0.8123
  117CHL1   H7B14857   4.500   1.026  15.734  0.9532 -0.6525  0.0352
  117CHL1    C814858   4.638   0.918  15.620  0.3317 -0.0768 -0.0571
  117CHL1    H814859   4.648   0.815  15.579  0.8973  0.0597 -0.2640
  117CHL1   C1414860   4.597   1.009  15.515 -0.4473  0.9653  0.3610
  117CHL1   H1414861   4.603   1.110  15.562 -0.9460  0.3793  1.7431
  117CHL1   C1514862   4.447   1.007  15.460 -0.1437  0.0741  0.2819
  117CHL1  H15A14863   4.426   0.899  15.449 -1.5274  0.1118  2.0515
  117CHL1  H15B14864   4.362   1.045  15.521  0.1178  1.8409 -0.3977
  117CHL1   C1614865   4.464   1.088  15.327  0.3417  0.2485  0.0643
  117CHL1  H16A14866   4.442   1.020  15.242  1.1533  0.3285 -0.2244
  117CHL1  H16B14867   4.403   1.181  15.325 -0.6672 -0.4093 -1.8416
  117CHL1   C1714868   4.617   1.125  15.307 -0.1837  0.7919 -0.0443
  117CHL1   H1714869   4.625   1.220  15.364 -0.6030 -0.7952  2.8274
  117CHL1   C1314870   4.691   1.015  15.389  0.3369 -0.4483 -0.5249
  117CHL1   C1814871   4.701   0.888  15.304 -0.0239 -0.7276 -0.0465
  117CHL1  H18A14872   4.779   0.904  15.225 -0.0188 -1.1009 -0.1168
  117CHL1  H18B14873   4.727   0.798  15.364 -0.1945  0.2034  1.4586
  117CHL1  H18C14874   4.606   0.862  15.253 -0.1240  0.7345 -0.6714
  117CHL1   C1214875   4.830   1.051  15.452 -0.6559 -0.1761 -0.0365
  117CHL1  H12A14876   4.910   1.065  15.376 -0.4075  1.2051  0.4530
  117CHL1  H12B14877   4.830   1.155  15.492 -1.5841 -0.1516 -0.0597
  117CHL1   C1114878   4.879   0.955  15.564 -0.2248  0.2866  0.0174
  117CHL1  H11A14879   4.894   0.855  15.517 -2.2769 -0.0838  0.0490
  117CHL1  H11B14880   4.979   0.998  15.587  0.3459 -0.7182 -0.5030
  117CHL1    C914881   4.773   0.945  15.675 -0.1579  0.7825 -0.0257
  117CHL1    H914882   4.753   1.047  15.717  0.0663  0.1018  1.8214
  117CHL1   C1014883   4.815   0.865  15.803  0.8860  0.6968  0.3883
  117CHL1   C1914884   4.877   0.733  15.749  0.0242  0.2611  0.1671
  117CHL1  H19A14885   4.796   0.686  15.689 -2.3360  3.0085  0.9352
  117CHL1  H19B14886   4.972   0.757  15.698 -0.9296  0.8395 -1.4093
  117CHL1  H19C14887   4.906   0.671  15.837  4.6795  2.3036  0.3287
  117CHL1    C114888   4.929   0.947  15.879  0.2120  0.4215 -0.2061
  117CHL1   H1A14889   5.017   0.952  15.810 -0.7292 -0.2716 -1.4913
  117CHL1   H1B14890   4.904   1.053  15.903  0.8931  0.7645 -0.9266
  117CHL1    C214891   4.956   0.883  16.020 -0.0301  0.8226  0.3933
  117CHL1   H2A14892   5.024   0.952  16.074  0.1635  1.1553 -0.2595
  117CHL1   H2B14893   4.995   0.780  16.011 -1.5605  0.3515 -1.7924
  117CHL1   C2014894   4.665   1.153  15.168 -1.1875  0.1615 -0.5049
  117CHL1   H2014895   4.669   1.061  15.106  1.8991 -0.0883 -0.1127
  117CHL1   C2114896   4.805   1.225  15.172 -0.5050  0.1736 -0.4413
  117CHL1  H21A14897   4.892   1.163  15.206  1.8321  2.9964 -0.8655
  117CHL1  H21B14898   4.802   1.302  15.253 -1.0123  1.1943 -1.4105
  117CHL1  H21C14899   4.829   1.280  15.079 -3.0179  1.5431 -0.3361
  117CHL1   C2214900   4.572   1.249  15.088  0.8348  0.0870 -0.0235
  117CHL1  H22A14901   4.470   1.208  15.104  1.3478 -0.5066  1.9282
  117CHL1  H22B14902   4.580   1.358  15.108  1.6731  0.3339 -1.5119
  117CHL1   C2314903   4.592   1.248  14.935  0.3033 -0.3669 -0.5789
  117CHL1  H23A14904   4.693   1.286  14.910 -0.5638  2.6762  0.1123
  117CHL1  H23B14905   4.575   1.142  14.905 -0.3021 -0.6151  0.5714
  117CHL1   C2414906   4.485   1.332  14.873 -0.0409 -0.6185  0.5836
  117CHL1  H24A14907   4.382   1.291  14.886 -1.3643  2.5771  1.0078
  117CHL1  H24B14908   4.484   1.435  14.913 -0.6331  0.6955 -2.5538
  117CHL1   C2514909   4.477   1.342  14.715  0.1715 -0.4173 -0.5286
  117CHL1   H2514910   4.397   1.418  14.697  0.0391  0.4183  2.8956
  117CHL1   C2614911   4.603   1.394  14.654 -0.3219  0.1708  0.1556
  117CHL1  H26A14912   4.623   1.496  14.694  0.8020 -0.7363  2.0546
  117CHL1  H26B14913   4.688   1.326  14.677 -0.8233 -1.0161 -1.3357
  117CHL1  H26C14914   4.605   1.402  14.544 -0.4043  3.1332  0.2799
  117CHL1   C2714915   4.429   1.210  14.664 -0.0816  0.1855 -0.4842
  117CHL1  H27A14916   4.330   1.173  14.698  0.2864  0.6619  1.1600
  117CHL1  H27B14917   4.427   1.218  14.553 -0.6211  0.3499 -0.4662
  117CHL1  H27C14918   4.504   1.129  14.681 -0.0364  0.5528  1.2488
  118CHL1    C314919   0.417   1.618  16.309  0.6231 -0.3596 -0.9025
  118CHL1    H314920   0.473   1.524  16.291  1.2491 -0.2233  0.2150
  118CHL1    O314921   0.448   1.658  16.445  0.0548  0.3329 -0.1754
  118CHL1   H3'14922   0.393   1.601  16.499  2.1441 -1.5275  0.1832
  118CHL1    C414923   0.466   1.721  16.199  0.1222 -0.0530  0.4989
  118CHL1   H4A14924   0.430   1.820  16.233 -1.6118 -0.8777  1.2392
  118CHL1   H4B14925   0.577   1.728  16.202  0.0470  2.1621 -0.4600
  118CHL1    C514926   0.421   1.685  16.059 -0.0729  0.5904  0.2607
  118CHL1    C614927   0.496   1.682  15.950 -0.4668 -0.0334 -0.6012
  118CHL1    H614928   0.602   1.711  15.950 -0.1692 -1.0422 -1.4229
  118CHL1    C714929   0.450   1.650  15.809  0.5167  0.6290 -0.5338
  118CHL1   H7A14930   0.494   1.724  15.739  0.4101  1.3544  0.1465
  118CHL1   H7B14931   0.482   1.553  15.766  2.2586  1.0239 -0.1758
  118CHL1    C814932   0.292   1.662  15.803  0.1992 -0.3543 -0.7641
  118CHL1    H814933   0.264   1.770  15.804 -0.9510 -0.6348 -1.2971
  118CHL1   C1414934   0.255   1.593  15.672  0.1622  0.4536 -0.2988
  118CHL1   H1414935   0.276   1.485  15.689 -2.6286  0.1405  1.9309
  118CHL1   C1514936   0.328   1.629  15.543  0.1068 -0.6536 -0.4228
  118CHL1  H15A14937   0.334   1.739  15.536 -1.9536 -0.0795  3.7862
  118CHL1  H15B14938   0.430   1.589  15.529 -0.3067 -1.0741 -2.6980
  118CHL1   C1614939   0.241   1.575  15.430  0.2793  0.1564  0.1355
  118CHL1  H16A14940   0.227   1.660  15.359 -1.4298  0.8482  1.2387
  118CHL1  H16B14941   0.285   1.485  15.383  0.5922  0.5686 -0.3745
  118CHL1   C1714942   0.100   1.543  15.504 -0.1008 -0.0792  0.9148
  118CHL1   H1714943   0.115   1.434  15.520  2.5921  0.3158  1.4799
  118CHL1   C1314944   0.100   1.597  15.647 -0.6905  0.1418 -0.5525
  118CHL1   C1814945   0.051   1.745  15.639  0.2511  0.0858 -0.1519
  118CHL1  H18A14946   0.110   1.774  15.550 -0.9162  1.1008 -0.6246
  118CHL1  H18B14947  -0.058   1.744  15.614  0.1070  1.2995  0.3761
  118CHL1  H18C14948   0.086   1.797  15.730  1.1108  0.7740 -0.8531
  118CHL1   C1214949   0.034   1.515  15.762  0.5522  0.3430 -0.3235
  118CHL1  H12A14950  -0.076   1.518  15.748  0.3449 -1.3943  0.6279
  118CHL1  H12B14951   0.073   1.411  15.753  0.5461  0.2724  0.3995
  118CHL1   C1114952   0.072   1.575  15.905  0.0039  0.0236  0.2287
  118CHL1  H11A14953   0.025   1.675  15.913  1.8417  0.8962  0.6078
  118CHL1  H11B14954   0.017   1.519  15.983  1.2378 -0.2275  0.9486
  118CHL1    C914955   0.224   1.594  15.923 -0.5102  0.1868 -0.6267
  118CHL1    H914956   0.271   1.494  15.908  0.3688  0.7149 -1.5249
  118CHL1   C1014957   0.265   1.648  16.059 -0.9198  0.1118  0.3593
  118CHL1   C1914958   0.188   1.781  16.085  0.2144  0.6411  0.1929
  118CHL1  H19A14959   0.216   1.859  16.010  2.5302  0.8411  1.1719
  118CHL1  H19B14960   0.079   1.761  16.091  0.3858 -0.0689  1.1833
  118CHL1  H19C14961   0.223   1.827  16.180  0.0045 -1.4857  1.3521
  118CHL1    C114962   0.245   1.536  16.162  0.6089 -0.6451 -0.2914
  118CHL1   H1A14963   0.136   1.515  16.156  0.4967 -0.3444  0.5154
  118CHL1   H1B14964   0.298   1.443  16.132  1.3247  0.1591 -1.6061
  118CHL1    C214965   0.270   1.587  16.304 -0.2280  0.5148  0.3983
  118CHL1   H2A14966   0.239   1.506  16.375 -1.0114  0.8172  0.4163
  118CHL1   H2B14967   0.204   1.674  16.327 -2.7945 -1.5991  1.6406
  118CHL1   C2014968  -0.025   1.553  15.417  0.2864  0.1521  0.0039
  118CHL1   H2014969  -0.080   1.642  15.456  0.6330  0.7640 -0.8708
  118CHL1   C2114970  -0.113   1.431  15.457  0.6813  0.3184 -0.1194
  118CHL1  H21A14971  -0.123   1.424  15.567  2.5968  0.1625  0.0787
  118CHL1  H21B14972  -0.067   1.335  15.423 -0.2239 -0.6938  1.3778
  118CHL1  H21C14973  -0.216   1.450  15.422  0.4192 -0.8685 -0.0418
  118CHL1   C2214974  -0.009   1.554  15.270 -0.2733 -0.1804 -0.1599
  118CHL1  H22A14975   0.031   1.653  15.236  0.5037 -0.5308 -0.2984
  118CHL1  H22B14976   0.069   1.476  15.255 -0.6930 -0.6556  0.1350
  118CHL1   C2314977  -0.130   1.513  15.178  0.1374  0.1089 -0.4239
  118CHL1  H23A14978  -0.166   1.411  15.203  0.7737 -0.0266 -0.0422
  118CHL1  H23B14979  -0.209   1.587  15.205 -0.2783 -0.2211 -0.7294
  118CHL1   C2414980  -0.102   1.526  15.028 -0.3546  0.2011  0.7460
  118CHL1  H24A14981  -0.183   1.571  14.967  3.0830  0.6823 -4.0144
  118CHL1  H24B14982  -0.020   1.601  15.021 -1.0984  0.9292 -0.5888
  118CHL1   C2514983  -0.079   1.389  14.959 -0.6942 -0.1646 -1.0575
  118CHL1   H2514984  -0.014   1.333  15.030 -0.0162  0.6574 -1.0161
  118CHL1   C2614985  -0.198   1.301  14.939 -0.1352 -0.4856  0.1965
  118CHL1  H26A14986  -0.261   1.334  14.853 -0.6709  0.8878  1.0889
  118CHL1  H26B14987  -0.162   1.200  14.910 -0.0188 -0.8838  1.6391
  118CHL1  H26C14988  -0.264   1.301  15.028  0.2203 -1.1833  0.4626
  118CHL1   C2714989   0.007   1.399  14.827  0.2100 -0.2385 -0.0046
  118CHL1  H27A14990   0.050   1.300  14.803  2.5201  0.8081 -0.4288
  118CHL1  H27B14991  -0.063   1.425  14.745  0.4246 -2.1300 -0.8260
  118CHL1  H27C14992   0.091   1.472  14.830  1.0953 -1.2574  0.5817
  119CHL1    C314993   0.435   0.459  16.568  0.7156 -0.6601 -0.3883
  119CHL1    H314994   0.347   0.486  16.506 -0.2062 -1.4529  0.5431
  119CHL1    O314995   0.390   0.422  16.696 -0.1551  0.0151  0.0925
  119CHL1   H3'14996   0.389   0.505  16.746 -0.7533  0.7426 -1.0956
  119CHL1    C414997   0.526   0.351  16.510  0.1016  0.5126  0.0626
  119CHL1   H4A14998   0.609   0.319  16.577 -0.3415  1.0594  0.8875
  119CHL1   H4B14999   0.454   0.266  16.505  1.2687 -0.6266  1.5312
  119CHL1    C515000   0.580   0.389  16.376  0.1038  0.7130  0.7369
  119CHL1    C615001   0.556   0.316  16.268 -0.7112 -0.0577  0.3240
  119CHL1    H615002   0.491   0.228  16.276  0.6242 -0.9958  1.2861
  119CHL1    C715003   0.607   0.352  16.129 -0.5540  0.2685 -0.2949
  119CHL1   H7A15004   0.636   0.257  16.080 -1.5815 -0.2696  0.1013
  119CHL1   H7B15005   0.520   0.387  16.069 -1.9120 -1.0078  0.8554
  119CHL1    C815006   0.715   0.467  16.129  0.5719 -0.5894 -0.0113
  119CHL1    H815007   0.810   0.423  16.169 -0.3418  0.5042  3.7964
  119CHL1   C1415008   0.740   0.528  15.986 -0.5368 -0.3856  0.0350
  119CHL1   H1415009   0.643   0.569  15.949 -0.2217  0.4941  0.1864
  119CHL1   C1515010   0.776   0.424  15.879 -0.0063 -0.2792  0.3402
  119CHL1  H15A15011   0.839   0.337  15.910 -0.2913 -0.3518  0.7130
  119CHL1  H15B15012   0.679   0.379  15.851 -0.2506 -1.0341  2.2373
  119CHL1   C1615013   0.835   0.508  15.765 -0.5821  0.1150 -0.3097
  119CHL1  H16A15014   0.940   0.474  15.748  0.2404  3.0188 -1.5977
  119CHL1  H16B15015   0.778   0.497  15.670  1.3758 -0.0652 -1.5352
  119CHL1   C1715016   0.837   0.654  15.821 -0.1696 -0.1150 -0.1439
  119CHL1   H1715017   0.734   0.684  15.794 -0.9833 -1.3942  1.3591
  119CHL1   C1315018   0.843   0.635  15.976 -0.9658 -0.3342 -0.1903
  119CHL1   C1815019   0.985   0.580  16.008 -0.2399 -0.1495  0.7525
  119CHL1  H18A15020   0.991   0.566  16.118 -1.3359  0.8826  0.9625
  119CHL1  H18B15021   1.015   0.484  15.960  1.5745  1.0281 -0.5909
  119CHL1  H18C15022   1.059   0.655  15.975 -1.1688 -0.5101 -2.5514
  119CHL1   C1215023   0.793   0.743  16.072 -0.0251  0.1761 -0.5772
  119CHL1  H12A15024   0.841   0.843  16.078 -2.0896  1.2176 -0.6695
  119CHL1  H12B15025   0.691   0.762  16.034 -1.2900 -3.2425  0.7735
  119CHL1   C1115026   0.769   0.699  16.220 -0.3374  0.1574  0.1915
  119CHL1  H11A15027   0.864   0.682  16.275 -0.1351 -0.6910 -0.3876
  119CHL1  H11B15028   0.722   0.784  16.274  2.1766  2.4103 -0.9299
  119CHL1    C915029   0.677   0.578  16.224 -0.1161 -0.1428 -0.5749
  119CHL1    H915030   0.578   0.608  16.183  0.4159  0.5988 -1.3686
  119CHL1   C1015031   0.653   0.522  16.371  0.0027  0.6648  0.7277
  119CHL1   C1915032   0.795   0.498  16.434  0.4162 -0.5743  0.4048
  119CHL1  H19A15033   0.800   0.452  16.535  1.2240  1.7716  1.4989
  119CHL1  H19B15034   0.851   0.428  16.369  2.8611 -0.5326  2.3049
  119CHL1  H19C15035   0.859   0.588  16.448 -1.8961  1.1061  0.7215
  119CHL1    C115036   0.566   0.630  16.443 -1.0883  0.1983 -0.3394
  119CHL1   H1A15037   0.638   0.713  16.463 -0.0594 -0.7012 -0.2301
  119CHL1   H1B15038   0.482   0.666  16.380  0.1580  1.8603 -1.1476
  119CHL1    C215039   0.505   0.596  16.580 -0.1037  0.5818  0.1920
  119CHL1   H2A15040   0.434   0.675  16.611  1.1639  1.3265  1.3309
  119CHL1   H2B15041   0.587   0.586  16.655 -1.1471  0.1143  1.3091
  119CHL1   C2015042   0.939   0.734  15.744 -0.6524  0.6706  0.5328
  119CHL1   H2015043   1.025   0.666  15.729 -1.1457  0.4461 -1.4718
  119CHL1   C2115044   0.975   0.862  15.827 -0.4642 -0.3901  0.3038
  119CHL1  H21A15045   1.000   0.836  15.932 -0.5121 -2.7379 -0.2101
  119CHL1  H21B15046   0.887   0.930  15.836 -0.9635 -1.0553  0.5089
  119CHL1  H21C15047   1.064   0.906  15.776 -0.9926  2.1671  1.4554
  119CHL1   C2215048   0.891   0.769  15.602 -0.2877 -0.7988 -0.0432
  119CHL1  H22A15049   0.838   0.681  15.559 -1.4225 -0.7515  1.2135
  119CHL1  H22B15050   0.808   0.843  15.600 -0.4652 -0.9914 -1.7621
  119CHL1   C2315051   1.007   0.827  15.513  0.8399 -0.8590  0.0563
  119CHL1  H23A15052   1.048   0.912  15.572 -1.5657  0.4683 -0.0769
  119CHL1  H23B15053   1.088   0.752  15.498  1.5282 -0.0699 -0.2780
  119CHL1   C2415054   0.960   0.881  15.381  0.3836  0.3499  0.5424
  119CHL1  H24A15055   0.895   0.801  15.339 -0.7968  2.1760 -1.2991
  119CHL1  H24B15056   0.901   0.973  15.400 -0.1676 -0.3538  2.4921
  119CHL1   C2515057   1.070   0.903  15.276  0.1174 -0.3722  0.2663
  119CHL1   H2515058   1.142   0.818  15.275  1.9203  1.0679  1.0755
  119CHL1   C2615059   1.016   0.914  15.128 -1.0269 -0.0574  0.3802
  119CHL1  H26A15060   1.102   0.943  15.063 -1.6920  2.5433  0.5712
  119CHL1  H26B15061   0.960   0.822  15.099 -1.0287  0.4599 -1.4023
  119CHL1  H26C15062   0.946   0.999  15.135 -0.2174  0.6322  0.3055
  119CHL1   C2715063   1.157   1.028  15.309 -0.5352 -0.8497 -1.0076
  119CHL1  H27A15064   1.223   0.997  15.393  2.1601  1.7462 -1.9802
  119CHL1  H27B15065   1.218   1.054  15.220 -0.2729 -1.9375 -1.1622
  119CHL1  H27C15066   1.099   1.115  15.345  0.7677 -1.3622  2.7793
  120CHL1    C315067   6.552   0.568  16.471 -0.2121  0.0588  0.3883
  120CHL1    H315068   6.479   0.640  16.427 -0.7536  0.2622  1.5702
  120CHL1    O315069   6.524   0.548  16.609 -0.7699 -0.1196 -0.2054
  120CHL1   H3'15070   6.597   0.492  16.637  0.7666  0.8314 -2.0193
  120CHL1    C415071   6.550   0.436  16.388  0.0742 -0.4853  0.8225
  120CHL1   H4A15072   6.627   0.370  16.434 -1.7084 -1.9984  1.7902
  120CHL1   H4B15073   6.449   0.391  16.388  0.2533 -0.8919  1.1143
  120CHL1    C515074   6.593   0.453  16.239 -0.0701 -0.2758 -1.2432
  120CHL1    C615075   6.511   0.423  16.141  0.1833  0.6133 -0.3754
  120CHL1    H615076   6.415   0.378  16.171  0.0588  0.7502 -0.5656
  120CHL1    C715077   6.539   0.434  15.995 -0.2034 -0.1543 -0.4603
  120CHL1   H7A15078   6.515   0.337  15.948  1.1679 -1.7330  1.9029
  120CHL1   H7B15079   6.471   0.513  15.957  1.0964  0.3086 -1.9001
  120CHL1    C815080   6.691   0.480  15.966 -0.5851  0.9965 -0.2053
  120CHL1    H815081   6.740   0.380  15.975 -0.7593  0.6617 -2.4032
  120CHL1   C1415082   6.705   0.537  15.823  0.1613  0.5425 -0.4243
  120CHL1   H1415083   6.654   0.635  15.823 -0.2803  0.3489 -2.4249
  120CHL1   C1515084   6.633   0.457  15.704  0.3255  0.0868 -0.1370
  120CHL1  H15A15085   6.674   0.355  15.721  3.0245  0.5295 -3.1011
  120CHL1  H15B15086   6.522   0.464  15.707  0.3318  0.8386 -1.3761
  120CHL1   C1615087   6.705   0.519  15.581 -0.0159 -0.2210 -0.4932
  120CHL1  H16A15088   6.740   0.433  15.520 -1.4899 -0.4447 -1.0757
  120CHL1  H16B15089   6.635   0.566  15.508  0.1031  0.2100 -0.3312
  120CHL1   C1715090   6.830   0.609  15.625  0.3035  0.2879 -0.4401
  120CHL1   H1715091   6.790   0.713  15.629 -0.3744 -0.0062  0.9182
  120CHL1   C1315092   6.850   0.563  15.776  0.3972 -0.5161 -0.3844
  120CHL1   C1815093   6.928   0.430  15.778  0.3220  0.0776  0.3591
  120CHL1  H18A15094   6.921   0.367  15.870 -1.7666 -0.0790  0.1385
  120CHL1  H18B15095   6.894   0.359  15.700  1.0318 -0.4961  0.5608
  120CHL1  H18C15096   7.038   0.444  15.766  0.5374 -2.5479 -1.5492
  120CHL1   C1215097   6.914   0.655  15.872 -0.1718 -0.0592 -0.4036
  120CHL1  H12A15098   7.025   0.657  15.862 -0.0702 -2.3972 -0.1702
  120CHL1  H12B15099   6.866   0.754  15.860  0.0373  0.0142 -0.6328
  120CHL1   C1115100   6.893   0.624  16.025  0.6057 -0.4462  0.3459
  120CHL1  H11A15101   6.959   0.536  16.042  1.7319 -0.0164 -1.5086
  120CHL1  H11B15102   6.925   0.704  16.095  2.3160 -0.6065 -0.1891
  120CHL1    C915103   6.751   0.579  16.069 -0.1335  0.3576  0.2968
  120CHL1    H915104   6.678   0.660  16.051 -2.6400 -1.7761  0.1268
  120CHL1   C1015105   6.730   0.526  16.216  0.0459 -1.7419  0.1357
  120CHL1   C1915106   6.853   0.438  16.261 -0.3397 -0.4114  0.6241
  120CHL1  H19A15107   6.846   0.341  16.208 -1.5134  0.0597 -0.1273
  120CHL1  H19B15108   6.951   0.490  16.267 -0.5744  0.3122 -1.0121
  120CHL1  H19C15109   6.828   0.401  16.362 -2.4378 -1.3953 -0.1980
  120CHL1    C115110   6.732   0.655  16.308  0.8443  0.5191  0.4636
  120CHL1   H1A15111   6.826   0.713  16.314 -0.1547  2.0795  2.2009
  120CHL1   H1B15112   6.648   0.714  16.265 -0.5169 -1.2433  0.5724
  120CHL1    C215113   6.682   0.634  16.453 -0.9292 -0.5714  0.5044
  120CHL1   H2A15114   6.685   0.726  16.515 -0.6944  0.8353 -1.5193
  120CHL1   H2B15115   6.756   0.570  16.507  1.6763  1.0178 -0.9608
  120CHL1   C2015116   6.946   0.600  15.523 -0.5053  0.4132 -0.6773
  120CHL1   H2015117   6.979   0.494  15.527 -3.1964 -0.4633  1.2898
  120CHL1   C2115118   7.061   0.682  15.573  0.3659 -0.0826  0.2159
  120CHL1  H21A15119   7.098   0.637  15.667 -1.5125 -2.0533  0.0962
  120CHL1  H21B15120   7.025   0.787  15.587 -0.6607 -0.3069 -0.5830
  120CHL1  H21C15121   7.138   0.683  15.493  0.4877  0.9782  0.3325
  120CHL1   C2215122   6.906   0.639  15.381 -0.4193  0.3460 -0.0388
  120CHL1  H22A15123   6.984   0.599  15.312 -1.8440 -1.6604 -0.5531
  120CHL1  H22B15124   6.820   0.574  15.354  0.1300 -0.7855  0.8519
  120CHL1   C2315125   6.872   0.788  15.366  0.1980  0.3328 -0.0222
  120CHL1  H23A15126   6.798   0.835  15.435  1.9893  0.9372  1.5653
  120CHL1  H23B15127   6.959   0.851  15.393  0.3241  0.6860 -1.1746
  120CHL1   C2415128   6.826   0.800  15.218  0.3294 -0.4033  0.3889
  120CHL1  H24A15129   6.909   0.753  15.161  0.3144 -0.5652  0.4982
  120CHL1  H24B15130   6.731   0.744  15.204 -1.9497  2.1999  3.7560
  120CHL1   C2515131   6.802   0.943  15.167 -0.1512  0.5363 -1.1674
  120CHL1   H2515132   6.699   0.964  15.202  0.2781  0.7474  0.0001
  120CHL1   C2615133   6.877   1.062  15.238  0.2868 -0.2556  0.1067
  120CHL1  H26A15134   6.843   1.163  15.206 -0.8890 -0.6204  0.1595
  120CHL1  H26B15135   6.858   1.053  15.347  0.7201  1.4933  0.3632
  120CHL1  H26C15136   6.987   1.068  15.219  0.5242 -0.3384  1.3788
  120CHL1   C2715137   6.787   0.950  15.014  0.2487 -0.7919 -0.0239
  120CHL1  H27A15138   6.878   0.933  14.951 -0.7555 -0.4368 -1.6411
  120CHL1  H27B15139   6.712   0.873  14.986 -1.9979  0.7750  1.3877
  120CHL1  H27C15140   6.744   1.047  14.981 -1.1600 -1.1627  0.6512
  121CHL1    C315141   4.763   4.255  13.652  0.0233 -0.0200  0.5536
  121CHL1    H315142   4.761   4.346  13.715 -0.0567 -0.4774  1.2350
  121CHL1    O315143   4.676   4.267  13.537  0.6942  0.4312 -0.2495
  121CHL1   H3'15144   4.669   4.174  13.515 -1.0430  0.6742 -0.8825
  121CHL1    C415145   4.906   4.234  13.603 -0.9575 -0.2846 -0.0276
  121CHL1   H4A15146   4.910   4.159  13.521  1.9986  1.0915 -1.2949
  121CHL1   H4B15147   4.939   4.331  13.561 -1.1019 -0.4072 -0.4279
  121CHL1    C515148   5.004   4.202  13.716  0.6921  0.8169  0.4603
  121CHL1    C615149   5.113   4.272  13.732  0.2590  0.3965 -0.1185
  121CHL1    H615150   5.144   4.358  13.670  1.0033  0.0989 -0.1656
  121CHL1    C715151   5.212   4.251  13.844 -0.2847  0.2824 -0.8561
  121CHL1   H7A15152   5.319   4.257  13.814 -0.2452 -1.2636 -1.0900
  121CHL1   H7B15153   5.182   4.330  13.916  0.8056  1.6184 -1.8101
  121CHL1    C815154   5.202   4.109  13.903  0.2742  0.7903 -0.0709
  121CHL1    H815155   5.237   4.036  13.827 -2.2440 -0.5819 -0.0263
  121CHL1   C1415156   5.278   4.088  14.035 -0.8832  0.1885  0.5879
  121CHL1   H1415157   5.238   4.162  14.108 -0.0011  1.9227 -0.6081
  121CHL1   C1515158   5.428   4.127  14.030 -0.1044  0.2953 -0.3722
  121CHL1  H15A15159   5.465   4.091  13.932 -1.9688 -2.9303 -0.0632
  121CHL1  H15B15160   5.442   4.236  14.039  1.1999  0.2678 -1.7400
  121CHL1   C1615161   5.501   4.051  14.142  0.1218 -0.3516 -0.7036
  121CHL1  H16A15162   5.578   3.989  14.092  0.1149  1.6405 -3.4446
  121CHL1  H16B15163   5.543   4.126  14.213 -1.2596  0.5096 -0.7546
  121CHL1   C1715164   5.392   3.957  14.200  0.3704 -0.0718  0.2693
  121CHL1   H1715165   5.348   4.018  14.283  1.9173 -0.3478  1.3232
  121CHL1   C1315166   5.278   3.953  14.094  0.5614  0.5492  0.4556
  121CHL1   C1815167   5.311   3.849  13.990 -0.8404  0.4757 -0.0555
  121CHL1  H18A15168   5.315   3.752  14.043  1.6449  0.2069 -0.6306
  121CHL1  H18B15169   5.242   3.836  13.903 -1.1771  0.2173  0.2495
  121CHL1  H18C15170   5.411   3.855  13.942 -0.0777 -2.6452  0.9815
  121CHL1   C1215171   5.126   3.926  14.143 -0.5537  0.0311  0.1626
  121CHL1  H12A15172   5.119   3.820  14.176 -0.6595  0.1893  0.6539
  121CHL1  H12B15173   5.101   3.993  14.229  1.0425  0.4175  0.3565
  121CHL1   C1115174   5.031   3.948  14.026  0.2433 -0.0922  0.2166
  121CHL1  H11A15175   5.031   3.857  13.962  1.4824 -0.4049  0.6435
  121CHL1  H11B15176   4.927   3.954  14.065 -0.3901 -0.0873 -1.3743
  121CHL1    C915177   5.054   4.078  13.940 -0.1703 -0.6682  0.2568
  121CHL1    H915178   5.019   4.148  14.019 -1.9101 -4.6400  3.3517
  121CHL1   C1015179   4.959   4.095  13.816 -0.0872 -0.7836 -0.3586
  121CHL1   C1915180   4.970   3.959  13.738  0.4306 -0.1745 -0.4645
  121CHL1  H19A15181   4.919   3.961  13.639 -1.7593  0.2347  0.6047
  121CHL1  H19B15182   5.078   3.937  13.722  0.0420 -2.6953  0.0281
  121CHL1  H19C15183   4.925   3.873  13.791 -0.1027 -1.7352 -3.2638
  121CHL1    C115184   4.811   4.122  13.862  0.3297 -0.2805 -0.3275
  121CHL1   H1A15185   4.777   4.035  13.923  0.1879 -0.5473 -0.7797
  121CHL1   H1B15186   4.809   4.212  13.927 -0.9132 -1.1136  0.8601
  121CHL1    C215187   4.720   4.143  13.739  0.5785  0.6389  0.2762
  121CHL1   H2A15188   4.612   4.164  13.760  0.5453  0.7888 -0.0445
  121CHL1   H2B15189   4.713   4.045  13.687  0.1904  0.7310  0.1528
  121CHL1   C2015190   5.435   3.827  14.269 -0.0459  0.0099  0.3907
  121CHL1   H2015191   5.340   3.769  14.258  0.1950 -0.0859 -1.7019
  121CHL1   C2115192   5.453   3.857  14.422 -0.0437 -0.4420 -0.3533
  121CHL1  H21A15193   5.501   3.772  14.473  1.9544  1.0831  0.4610
  121CHL1  H21B15194   5.355   3.877  14.470  0.2544  0.1461  0.0234
  121CHL1  H21C15195   5.521   3.944  14.441 -0.6907  0.0700 -0.3386
  121CHL1   C2215196   5.548   3.744  14.199  0.2611  0.7350  0.6228
  121CHL1  H22A15197   5.542   3.752  14.088  0.4259 -1.5320  0.3947
  121CHL1  H22B15198   5.647   3.779  14.233  1.2533 -0.8686 -0.4814
  121CHL1   C2315199   5.519   3.596  14.230 -0.4016 -0.3138  0.3105
  121CHL1  H23A15200   5.513   3.596  14.341 -1.1099  1.2033  0.3056
  121CHL1  H23B15201   5.425   3.548  14.195  0.0543 -1.0618  0.0753
  121CHL1   C2415202   5.640   3.503  14.201  0.3490  0.0976 -0.5045
  121CHL1  H24A15203   5.658   3.507  14.092  2.9674 -0.2092 -0.1360
  121CHL1  H24B15204   5.723   3.559  14.249  0.0399  0.8077 -0.7891
  121CHL1   C2515205   5.631   3.357  14.244  0.4960 -0.0806 -0.0943
  121CHL1   H2515206   5.547   3.299  14.201  0.1065 -0.5400  1.2312
  121CHL1   C2615207   5.771   3.294  14.205  0.5998  0.3199 -0.2380
  121CHL1  H26A15208   5.792   3.198  14.258  0.6734  0.2895 -0.3206
  121CHL1  H26B15209   5.775   3.268  14.097  0.3409 -0.3865 -0.0851
  121CHL1  H26C15210   5.853   3.366  14.223  1.0199 -0.1749 -0.1322
  121CHL1   C2715211   5.614   3.349  14.396 -0.4365  0.2540 -0.7522
  121CHL1  H27A15212   5.514   3.388  14.425 -0.6072 -0.1543 -0.7757
  121CHL1  H27B15213   5.642   3.246  14.428  1.6140  1.0998  0.4104
  121CHL1  H27C15214   5.678   3.432  14.434 -0.2489 -0.0277 -0.4484
  122CHL1    C315215   3.726   4.116  13.455  0.3308 -0.6337  0.6159
  122CHL1    H315216   3.625   4.073  13.468 -0.2971  0.2555 -0.9844
  122CHL1    O315217   3.775   4.069  13.326  0.0266  0.0355  0.1643
  122CHL1   H3'15218   3.813   3.983  13.344  0.6635  0.6057  1.7128
  122CHL1    C415219   3.714   4.273  13.434  0.0498 -0.2111 -0.2977
  122CHL1   H4A15220   3.817   4.301  13.404 -0.0209 -0.5354 -0.8547
  122CHL1   H4B15221   3.651   4.284  13.344  2.4167  0.3447 -1.9751
  122CHL1    C515222   3.670   4.341  13.562 -0.0509 -0.3107 -0.0503
  122CHL1    C615223   3.577   4.431  13.566  0.4202 -0.0306 -0.0118
  122CHL1    H615224   3.526   4.462  13.474 -1.4206  1.0799  1.3192
  122CHL1    C715225   3.538   4.514  13.683  0.4434 -0.2634  0.0719
  122CHL1   H7A15226   3.532   4.622  13.660  0.1219 -0.5960 -1.5109
  122CHL1   H7B15227   3.434   4.488  13.713  0.9669  0.5828  2.9149
  122CHL1    C815228   3.641   4.507  13.793 -0.3784 -0.3511 -0.3618
  122CHL1    H815229   3.727   4.572  13.764 -1.1876  1.1906  0.5487
  122CHL1   C1415230   3.581   4.565  13.921  0.1446  0.2738 -0.3064
  122CHL1   H1415231   3.493   4.499  13.933 -1.1812  1.6825 -1.8640
  122CHL1   C1515232   3.522   4.703  13.913  0.3604 -0.0091 -0.1770
  122CHL1  H15A15233   3.578   4.771  13.847 -0.9943  0.6637 -0.6681
  122CHL1  H15B15234   3.420   4.692  13.869  0.3369  0.5569 -0.2689
  122CHL1   C1615235   3.518   4.750  14.060  0.1891 -0.1156  0.1431
  122CHL1  H16A15236   3.566   4.850  14.068 -1.2226  0.7954 -1.9573
  122CHL1  H16B15237   3.417   4.776  14.099  0.3346  1.7215 -0.6287
  122CHL1   C1715238   3.587   4.642  14.153  0.0320 -0.0178  0.7354
  122CHL1   H1715239   3.512   4.565  14.181 -1.6655  1.6071  0.9042
  122CHL1   C1315240   3.669   4.560  14.046 -1.3515 -0.2879 -0.0091
  122CHL1   C1815241   3.793   4.648  14.020 -0.6067 -1.3418  0.7086
  122CHL1  H18A15242   3.830   4.639  13.916 -2.2627 -1.2406  0.0718
  122CHL1  H18B15243   3.775   4.758  14.027 -0.9020 -0.8638 -4.0994
  122CHL1  H18C15244   3.877   4.630  14.090  2.6926  1.6695 -2.0483
  122CHL1   C1215245   3.704   4.414  14.075  0.3702 -0.7915 -0.1691
  122CHL1  H12A15246   3.772   4.408  14.162  0.4740 -0.8431 -0.2515
  122CHL1  H12B15247   3.609   4.361  14.094 -0.2187 -0.0141 -0.8431
  122CHL1   C1115248   3.773   4.350  13.952 -0.2365  0.1749  1.3075
  122CHL1  H11A15249   3.866   4.411  13.942 -0.7276  0.6319 -1.0829
  122CHL1  H11B15250   3.789   4.244  13.981  0.0687  0.7687  3.4618
  122CHL1    C915251   3.695   4.359  13.812 -0.4528 -0.1195  0.4509
  122CHL1    H915252   3.601   4.302  13.818  0.5765 -2.2798 -2.0796
  122CHL1   C1015253   3.760   4.305  13.683 -0.7070 -0.0344 -0.0082
  122CHL1   C1915254   3.900   4.374  13.672 -0.2103 -0.6221  0.4491
  122CHL1  H19A15255   3.964   4.347  13.759  0.4143  1.1355  0.5577
  122CHL1  H19B15256   3.950   4.339  13.579 -1.3172 -1.3995  0.1265
  122CHL1  H19C15257   3.905   4.484  13.663 -1.4638 -0.5452  0.5976
  122CHL1    C115258   3.776   4.149  13.693 -0.0420 -0.0556 -0.2586
  122CHL1   H1A15259   3.840   4.130  13.781 -1.6059  0.1594  0.9693
  122CHL1   H1B15260   3.677   4.104  13.713 -0.6604  2.0172  1.7959
  122CHL1    C215261   3.830   4.085  13.567  0.3235  0.4665  0.0707
  122CHL1   H2A15262   3.829   3.974  13.580 -2.4971  0.3905 -0.2523
  122CHL1   H2B15263   3.931   4.119  13.536  1.0891 -1.8266 -0.1816
  122CHL1   C2015264   3.640   4.691  14.287 -0.0839  0.3047 -0.1153
  122CHL1   H2015265   3.735   4.744  14.263  0.3359 -0.3384  0.0908
  122CHL1   C2115266   3.666   4.565  14.384  0.5348 -0.7536 -0.3569
  122CHL1  H21A15267   3.737   4.489  14.345  1.1923 -0.8681  1.0289
  122CHL1  H21B15268   3.564   4.523  14.400  0.2380 -0.4438 -1.3582
  122CHL1  H21C15269   3.704   4.607  14.480  0.6446 -3.3776  0.8158
  122CHL1   C2215270   3.551   4.806  14.345  0.1507 -0.4985 -0.1955
  122CHL1  H22A15271   3.532   4.890  14.274  0.9391 -0.3947 -0.2918
  122CHL1  H22B15272   3.451   4.759  14.358 -0.3587  0.8409  1.1356
  122CHL1   C2315273   3.590   4.872  14.476 -0.4472  0.0876  0.3078
  122CHL1  H23A15274   3.628   4.808  14.558  1.4381 -0.3364 -0.8242
  122CHL1  H23B15275   3.687   4.917  14.445 -0.4394  1.6433  2.3099
  122CHL1   C2415276   3.493   4.985  14.520 -0.3801  0.4539  0.3771
  122CHL1  H24A15277   3.486   5.052  14.431  0.0722 -0.9234 -0.7364
  122CHL1  H24B15278   3.395   4.945  14.554  0.0328  0.0427  1.0956
  122CHL1   C2515279   3.540   5.072  14.637  0.5196  0.5196  0.1477
  122CHL1   H2515280   3.574   5.006  14.720 -2.1878 -1.0693  0.1200
  122CHL1   C2615281   3.659   5.158  14.595  0.2827 -0.1172 -0.5291
  122CHL1  H26A15282   3.742   5.097  14.554 -0.6991 -0.2329 -2.4397
  122CHL1  H26B15283   3.622   5.232  14.521 -2.6615  3.0600  3.5848
  122CHL1  H26C15284   3.696   5.223  14.678 -1.6478 -0.0366  0.3315
  122CHL1   C2715285   3.431   5.169  14.686  0.4162 -0.6913 -0.2152
  122CHL1  H27A15286   3.355   5.120  14.750  0.3798 -0.1100  0.2026
  122CHL1  H27B15287   3.477   5.252  14.744  1.8151 -1.1504 -0.6206
  122CHL1  H27C15288   3.385   5.214  14.596  2.9160 -0.9107 -1.6820
  123CHL1    C315289   6.311   4.054  13.432  0.3125  0.5510  0.2151
  123CHL1    H315290   6.273   3.949  13.435  1.8426 -0.0198  0.6869
  123CHL1    O315291   6.281   4.110  13.304 -0.1633 -0.0091 -0.0387
  123CHL1   H3'15292   6.321   4.047  13.243 -1.4160  0.6440 -1.6037
  123CHL1    C415293   6.245   4.128  13.557  0.2260  0.9325 -0.2667
  123CHL1   H4A15294   6.267   4.237  13.554 -3.9269  2.0072  1.5127
  123CHL1   H4B15295   6.135   4.124  13.545  0.4435  2.2542 -4.2720
  123CHL1    C515296   6.288   4.075  13.692  1.1155  0.1056 -0.4012
  123CHL1    C615297   6.192   4.039  13.790 -0.8020 -0.2510 -0.2574
  123CHL1    H615298   6.090   4.072  13.765 -0.4799  1.2388  0.2912
  123CHL1    C715299   6.226   3.989  13.922 -0.5925 -0.2717 -0.3672
  123CHL1   H7A15300   6.159   4.036  13.997 -0.6554 -0.9887  0.0322
  123CHL1   H7B15301   6.207   3.880  13.933 -3.6719  0.2055  0.0073
  123CHL1    C815302   6.374   4.012  13.954  0.5626  0.9353  0.2935
  123CHL1    H815303   6.392   4.119  13.977  1.0368  1.0333 -0.5069
  123CHL1   C1415304   6.414   3.933  14.082 -0.1761  0.5958 -0.0269
  123CHL1   H1415305   6.392   3.828  14.051  0.2699  0.3851  0.3769
  123CHL1   C1515306   6.320   3.959  14.204 -0.5483  0.4508 -0.0917
  123CHL1  H15A15307   6.271   4.059  14.196 -1.1429  0.2051  0.4024
  123CHL1  H15B15308   6.238   3.885  14.197 -1.5226  1.5602 -0.8058
  123CHL1   C1615309   6.418   3.933  14.326  1.1789 -0.0173 -0.7424
  123CHL1  H16A15310   6.441   4.024  14.385 -0.5197  0.8447 -1.3071
  123CHL1  H16B15311   6.375   3.857  14.395  2.5538 -0.6589 -0.5574
  123CHL1   C1715312   6.545   3.879  14.270 -0.9950  0.2326  0.0157
  123CHL1   H1715313   6.542   3.769  14.255 -0.0023  0.5679 -3.3297
  123CHL1   C1315314   6.558   3.948  14.130  0.6889  0.5290 -0.3960
  123CHL1   C1815315   6.591   4.100  14.142 -0.4955 -0.5107 -0.1206
  123CHL1  H18A15316   6.690   4.128  14.183  0.8420 -1.8259 -2.1893
  123CHL1  H18B15317   6.585   4.162  14.050  0.7041  1.5003  1.1072
  123CHL1  H18C15318   6.522   4.141  14.218 -0.3916 -2.0569  0.8594
  123CHL1   C1215319   6.639   3.883  14.017  0.8309 -0.1653 -0.3579
  123CHL1  H12A15320   6.746   3.903  14.038  0.7050 -0.1267  0.2890
  123CHL1  H12B15321   6.611   3.775  14.013  1.7851 -0.4999  1.1293
  123CHL1   C1115322   6.614   3.953  13.881  0.0471 -0.5584 -0.3612
  123CHL1  H11A15323   6.673   4.047  13.881 -0.0844 -0.4547  0.8972
  123CHL1  H11B15324   6.656   3.887  13.802 -0.2233 -2.4296  0.9929
  123CHL1    C915325   6.466   3.968  13.838 -0.0672 -0.9254 -0.3282
  123CHL1    H915326   6.439   3.863  13.812  0.9313 -1.1598 -0.4486
  123CHL1   C1015327   6.434   4.057  13.709 -0.8824 -0.8157 -0.5262
  123CHL1   C1915328   6.503   4.194  13.737  0.5608 -0.0449  0.4427
  123CHL1  H19A15329   6.486   4.234  13.839 -1.2748 -1.2025  0.6541
  123CHL1  H19B15330   6.612   4.174  13.724  0.4019 -0.5744 -0.1578
  123CHL1  H19C15331   6.474   4.271  13.663 -0.3514 -0.1352  0.6929
  123CHL1    C115332   6.503   3.988  13.585 -0.5695  0.3909  0.2517
  123CHL1   H1A15333   6.614   3.977  13.588 -0.6407 -0.5674 -0.1272
  123CHL1   H1B15334   6.465   3.883  13.590  0.4134  0.0598  1.2798
  123CHL1    C215335   6.462   4.052  13.447  0.4631 -0.4078 -0.1900
  123CHL1   H2A15336   6.499   3.990  13.363 -1.2281  2.4084 -3.2585
  123CHL1   H2B15337   6.508   4.153  13.447 -0.6303  0.1231  1.5045
  123CHL1   C2015338   6.660   3.899  14.363 -0.0360 -0.4334  0.5109
  123CHL1   H2015339   6.663   4.007  14.392 -0.5018 -0.6047  1.2215
  123CHL1   C2115340   6.799   3.869  14.296  0.1333  0.2175  0.2976
  123CHL1  H21A15341   6.821   3.956  14.231 -0.5065  0.6088  0.5946
  123CHL1  H21B15342   6.791   3.777  14.234  0.7459 -2.1306  3.4396
  123CHL1  H21C15343   6.884   3.857  14.367  1.1663  1.6350 -0.6407
  123CHL1   C2215344   6.640   3.821  14.496 -0.2905 -0.1088 -0.6782
  123CHL1  H22A15345   6.536   3.812  14.535 -0.3787  1.3177 -0.5312
  123CHL1  H22B15346   6.671   3.719  14.465 -1.2873 -0.0444 -1.9553
  123CHL1   C2315347   6.715   3.883  14.614  0.5710  0.5935 -0.8395
  123CHL1  H23A15348   6.715   3.802  14.690  0.2613  1.5132  0.1583
  123CHL1  H23B15349   6.821   3.889  14.582  0.6874 -3.0430 -1.5967
  123CHL1   C2415350   6.666   4.017  14.675 -0.2355 -0.2420 -0.0060
  123CHL1  H24A15351   6.693   4.096  14.601  1.0419  0.4799  1.1865
  123CHL1  H24B15352   6.557   4.009  14.694 -0.8985  0.6192 -2.9018
  123CHL1   C2515353   6.723   4.047  14.815  0.2469  0.1142  0.4861
  123CHL1   H2515354   6.681   3.970  14.883 -1.6283  1.0434  0.4393
  123CHL1   C2615355   6.873   4.062  14.822 -0.2254  0.1356 -0.4210
  123CHL1  H26A15356   6.909   4.099  14.724  0.7414 -1.7419 -0.8119
  123CHL1  H26B15357   6.904   4.127  14.906 -3.5794  1.4181 -0.0117
  123CHL1  H26C15358   6.926   3.966  14.841 -1.9078 -1.0866 -1.6289
  123CHL1   C2715359   6.657   4.172  14.870  0.1205  0.3305  0.2732
  123CHL1  H27A15360   6.692   4.259  14.811 -2.2507  1.4169  0.3385
  123CHL1  H27B15361   6.546   4.166  14.859  0.1375 -0.8594  0.6969
  123CHL1  H27C15362   6.676   4.186  14.979 -0.9182 -0.3280  0.5528
  124CHL1    C315363   3.214   5.584  13.504 -0.4057 -0.3881 -0.2671
  124CHL1    H315364   3.151   5.661  13.552 -0.1938  0.1746 -0.8829
  124CHL1    O315365   3.168   5.575  13.369 -0.0639  0.2844 -0.3222
  124CHL1   H3'15366   3.073   5.567  13.373 -0.2123  1.7937 -0.0379
  124CHL1    C415367   3.357   5.638  13.518 -0.3202 -0.0792 -0.1405
  124CHL1   H4A15368   3.417   5.569  13.454 -0.8698 -1.5914  0.9125
  124CHL1   H4B15369   3.354   5.743  13.482 -0.3223  1.0551  2.9083
  124CHL1    C515370   3.415   5.656  13.656  0.1289  0.1837 -0.1477
  124CHL1    C615371   3.452   5.781  13.695  0.2661  0.5852 -0.2626
  124CHL1    H615372   3.447   5.863  13.623 -0.1278 -1.8363 -3.1821
  124CHL1    C715373   3.507   5.803  13.829 -0.3336 -0.2207  0.0313
  124CHL1   H7A15374   3.604   5.855  13.814  0.6704 -1.6034  1.3852
  124CHL1   H7B15375   3.439   5.874  13.881  0.5892  0.6384  0.0979
  124CHL1    C815376   3.536   5.672  13.910  0.2331  0.0513 -0.1097
  124CHL1    H815377   3.629   5.635  13.863 -0.0341  0.7635 -1.2579
  124CHL1   C1415378   3.560   5.695  14.062 -0.1604  0.7640  0.5057
  124CHL1   H1415379   3.466   5.740  14.101  0.1934  0.2428  2.0428
  124CHL1   C1515380   3.668   5.792  14.100 -0.3443 -0.4963 -0.1131
  124CHL1  H15A15381   3.752   5.765  14.033  0.2091  0.2962  0.2380
  124CHL1  H15B15382   3.637   5.898  14.088 -1.9774 -0.7922  1.1675
  124CHL1   C1615383   3.700   5.751  14.247 -0.5700 -1.2746 -0.2343
  124CHL1  H16A15384   3.809   5.733  14.255 -0.3554  0.3211  0.8529
  124CHL1  H16B15385   3.682   5.839  14.313  1.0875 -1.4024  0.4180
  124CHL1   C1715386   3.617   5.626  14.285 -0.6006  0.2617 -0.8624
  124CHL1   H1715387   3.522   5.660  14.333 -0.0836  1.7732 -0.8633
  124CHL1   C1315388   3.578   5.567  14.145 -0.2623 -0.2712 -0.4472
  124CHL1   C1815389   3.696   5.487  14.090 -0.8816 -0.0323  0.1004
  124CHL1  H18A15390   3.708   5.395  14.152  0.3856  0.4558  0.6136
  124CHL1  H18B15391   3.681   5.452  13.986 -0.9972 -0.9313  0.4050
  124CHL1  H18C15392   3.795   5.537  14.098  0.0228 -1.5119 -1.3200
  124CHL1   C1215393   3.440   5.502  14.141  0.1734 -0.4800  0.4566
  124CHL1  H12A15394   3.439   5.412  14.207  2.6130 -0.1946  0.9569
  124CHL1  H12B15395   3.356   5.568  14.171 -0.3958 -0.3124 -1.3889
  124CHL1   C1115396   3.404   5.460  14.000  0.1854 -0.3848  0.2007
  124CHL1  H11A15397   3.464   5.372  13.969  1.5814 -0.5607  3.0337
  124CHL1  H11B15398   3.304   5.412  14.003  0.1522 -0.2683  1.9342
  124CHL1    C915399   3.417   5.575  13.896  0.1437 -0.7383  0.2494
  124CHL1    H915400   3.332   5.642  13.919  1.1311  0.9124 -0.6920
  124CHL1   C1015401   3.393   5.526  13.745 -0.1499  0.0061  0.4248
  124CHL1   C1915402   3.512   5.437  13.708  0.4580  0.5364  0.4029
  124CHL1  H19A15403   3.496   5.352  13.777 -1.2033 -1.1990 -1.9830
  124CHL1  H19B15404   3.479   5.393  13.611  0.3384  0.3742  0.5181
  124CHL1  H19C15405   3.616   5.477  13.702 -0.3414  2.5018 -2.0348
  124CHL1    C115406   3.249   5.465  13.730  0.6668 -0.7387 -0.5556
  124CHL1   H1A15407   3.245   5.370  13.788  0.0006  0.0527  0.7336
  124CHL1   H1B15408   3.172   5.531  13.777 -1.1182 -3.4934  0.6981
  124CHL1    C215409   3.202   5.451  13.575 -0.8401  0.4439 -0.5800
  124CHL1   H2A15410   3.097   5.414  13.576 -0.8471  0.3808 -1.6889
  124CHL1   H2B15411   3.272   5.384  13.521  0.0788  1.6234 -0.8950
  124CHL1   C2015412   3.667   5.527  14.393 -0.6834  0.6161  0.0383
  124CHL1   H2015413   3.629   5.423  14.386 -0.5665  0.5227  0.7239
  124CHL1   C2115414   3.628   5.588  14.528 -0.3769  0.2662  0.4708
  124CHL1  H21A15415   3.687   5.679  14.549 -0.8535  0.2059  2.3061
  124CHL1  H21B15416   3.634   5.522  14.618 -0.4644 -1.3630 -0.6637
  124CHL1  H21C15417   3.521   5.617  14.524  0.0760  1.8539 -1.3536
  124CHL1   C2215418   3.820   5.500  14.393 -0.2455  0.3824  0.0025
  124CHL1  H22A15419   3.848   5.461  14.293  1.5371  2.4902 -0.3961
  124CHL1  H22B15420   3.875   5.593  14.418 -0.7123  0.1852  1.9817
  124CHL1   C2315421   3.870   5.391  14.486 -0.2642 -0.0487 -0.1647
  124CHL1  H23A15422   3.830   5.420  14.585  0.2731  0.7711 -0.1766
  124CHL1  H23B15423   3.834   5.295  14.442  3.0367 -1.3360 -0.3684
  124CHL1   C2415424   4.026   5.384  14.508 -0.2440 -0.5073  0.3365
  124CHL1  H24A15425   4.070   5.339  14.416 -1.7071 -1.9050  0.2941
  124CHL1  H24B15426   4.052   5.490  14.530  1.6123 -1.4250  3.0282
  124CHL1   C2515427   4.078   5.308  14.631 -0.7097  0.0399 -0.1517
  124CHL1   H2515428   4.037   5.350  14.725 -0.7674 -0.0541 -0.1359
  124CHL1   C2615429   4.041   5.161  14.625 -0.9844 -0.3879 -0.9723
  124CHL1  H26A15430   4.113   5.103  14.687 -0.7817  1.7095  0.8813
  124CHL1  H26B15431   3.939   5.132  14.660 -0.1556 -0.2941  1.7168
  124CHL1  H26C15432   4.062   5.111  14.528  3.8711  0.8762 -0.8002
  124CHL1   C2715433   4.233   5.318  14.643  0.1447  0.4205  0.2765
  124CHL1  H27A15434   4.281   5.263  14.560 -1.3939 -2.1970  0.9844
  124CHL1  H27B15435   4.275   5.420  14.653  0.9836 -0.0453  1.9875
  124CHL1  H27C15436   4.274   5.262  14.730  1.1072  1.1636  0.3076
  125CHL1    C315437   4.055   5.420  13.355 -0.4865  0.5911 -0.2628
  125CHL1    H315438   4.163   5.411  13.332 -0.7223 -0.5093 -0.9961
  125CHL1    O315439   3.990   5.384  13.234 -0.0518  0.0982  0.0732
  125CHL1   H3'15440   4.031   5.440  13.168 -2.9451  1.0120 -1.1013
  125CHL1    C415441   4.014   5.330  13.471 -0.2101 -0.5886  0.4971
  125CHL1   H4A15442   3.904   5.322  13.481 -0.5977 -2.2251 -3.3652
  125CHL1   H4B15443   4.051   5.228  13.445  2.3672  0.6725 -1.2490
  125CHL1    C515444   4.078   5.373  13.599 -0.2895 -0.0937  1.1519
  125CHL1    C615445   4.153   5.294  13.676 -0.1414 -0.3880 -1.2526
  125CHL1    H615446   4.176   5.189  13.651 -0.3898 -1.9993  4.0943
  125CHL1    C715447   4.206   5.335  13.808 -0.0931 -0.8511  0.5906
  125CHL1   H7A15448   4.194   5.256  13.885  0.1512 -1.9838 -0.4950
  125CHL1   H7B15449   4.314   5.358  13.796 -0.4551  0.4378 -0.4601
  125CHL1    C815450   4.141   5.463  13.864  0.0373  0.2418  0.1062
  125CHL1    H815451   4.037   5.443  13.899  0.6418 -1.4663  1.0141
  125CHL1   C1415452   4.226   5.516  13.974  0.4094 -0.4344 -0.1744
  125CHL1   H1415453   4.327   5.534  13.932 -0.0285  3.1569  0.0374
  125CHL1   C1515454   4.245   5.429  14.101  0.2162 -0.3938  0.0773
  125CHL1  H15A15455   4.140   5.401  14.126 -1.6749  4.0575 -1.7523
  125CHL1  H15B15456   4.309   5.340  14.082 -0.0037 -0.9399  1.7060
  125CHL1   C1615457   4.311   5.520  14.206  0.2857 -0.5343 -0.2526
  125CHL1  H16A15458   4.260   5.505  14.303 -0.6434  2.5151 -0.1750
  125CHL1  H16B15459   4.419   5.497  14.206 -0.5695 -6.1306 -0.9202
  125CHL1   C1715460   4.291   5.665  14.151 -1.0027 -0.9065  0.6814
  125CHL1   H1715461   4.381   5.685  14.090 -2.1715  0.2197 -0.7397
  125CHL1   C1315462   4.191   5.650  14.034 -0.9116  0.3388  0.1551
  125CHL1   C1815463   4.051   5.651  14.099 -0.1506  0.0661  0.1073
  125CHL1  H18A15464   3.974   5.633  14.020 -0.0325 -1.3763  0.2872
  125CHL1  H18B15465   4.040   5.569  14.174  0.5863 -1.1061 -1.0185
  125CHL1  H18C15466   4.016   5.746  14.145  0.8491 -0.4417  2.0132
  125CHL1   C1215467   4.192   5.752  13.919  0.1354  0.0331 -0.4792
  125CHL1  H12A15468   4.162   5.853  13.956  3.0820  0.6127  0.6024
  125CHL1  H12B15469   4.291   5.756  13.870  1.0447  2.4696  1.3035
  125CHL1   C1115470   4.100   5.716  13.799 -0.2483 -0.8340 -0.2619
  125CHL1  H11A15471   3.998   5.725  13.842 -0.8177  2.7768 -1.9881
  125CHL1  H11B15472   4.122   5.793  13.722 -0.3816 -0.5723 -0.0397
  125CHL1    C915473   4.128   5.569  13.752 -0.1726  0.8911 -0.3151
  125CHL1    H915474   4.228   5.572  13.706  0.0369 -0.1874  0.0528
  125CHL1   C1015475   4.048   5.517  13.634 -0.3353 -0.6466  0.1370
  125CHL1   C1915476   3.895   5.532  13.674 -0.3169 -0.9890 -0.2915
  125CHL1  H19A15477   3.869   5.491  13.774 -3.2686 -1.1387 -1.0384
  125CHL1  H19B15478   3.855   5.635  13.683  2.0751  0.3427 -3.1015
  125CHL1  H19C15479   3.830   5.487  13.596 -2.3639  0.4642  0.4833
  125CHL1    C115480   4.070   5.614  13.507 -0.5225 -0.3094 -0.4539
  125CHL1   H1A15481   4.019   5.707  13.538  1.0636 -0.0387  1.5499
  125CHL1   H1B15482   4.178   5.637  13.492 -1.4597  3.1660 -3.2479
  125CHL1    C215483   4.027   5.560  13.368  0.4604 -1.3384 -0.6796
  125CHL1   H2A15484   4.069   5.626  13.289 -2.9055  2.0319  0.0137
  125CHL1   H2B15485   3.918   5.581  13.365  0.8526  0.8626 -1.3375
  125CHL1   C2015486   4.271   5.782  14.247  0.0864 -0.3426  0.8719
  125CHL1   H2015487   4.211   5.866  14.207 -1.0731 -0.9076  1.3657
  125CHL1   C2115488   4.415   5.831  14.286 -0.2137 -0.0662 -0.1862
  125CHL1  H21A15489   4.455   5.898  14.206 -0.3587 -2.7066 -2.6140
  125CHL1  H21B15490   4.492   5.753  14.300 -2.8239 -2.7028  0.4162
  125CHL1  H21C15491   4.409   5.885  14.383 -0.8558 -2.3352  1.0986
  125CHL1   C2215492   4.196   5.748  14.376  0.0758  1.3811 -0.8148
  125CHL1  H22A15493   4.122   5.669  14.350  1.4119  0.2392 -1.2542
  125CHL1  H22B15494   4.270   5.709  14.450  1.6682  1.4972 -2.2843
  125CHL1   C2315495   4.107   5.868  14.438  0.1348 -0.2107 -0.1474
  125CHL1  H23A15496   4.163   5.956  14.475 -0.6042 -0.3105  1.2667
  125CHL1  H23B15497   4.029   5.896  14.364  1.5608  0.8307 -1.3091
  125CHL1   C2415498   4.035   5.834  14.571 -0.2453  0.4131  0.0079
  125CHL1  H24A15499   3.965   5.750  14.552  0.5438 -0.5645  1.2088
  125CHL1  H24B15500   4.107   5.807  14.652  1.5993  0.9641 -1.3837
  125CHL1   C2515501   3.953   5.950  14.627  0.1023 -0.1625  0.5659
  125CHL1   H2515502   4.029   6.028  14.645  0.9150 -0.6527 -0.5541
  125CHL1   C2615503   3.846   5.994  14.524 -0.1181 -0.0227  0.0256
  125CHL1  H26A15504   3.805   6.090  14.562 -1.3452 -0.7310  0.5209
  125CHL1  H26B15505   3.895   6.015  14.426 -0.1873  0.3120  0.0597
  125CHL1  H26C15506   3.780   5.906  14.510  2.9124 -2.0522 -3.2247
  125CHL1   C2715507   3.891   5.916  14.762 -0.1921  0.1650 -0.1900
  125CHL1  H27A15508   3.819   6.000  14.777  1.6164  1.9453 -1.0623
  125CHL1  H27B15509   3.836   5.820  14.769  0.9034 -0.5113 -0.7308
  125CHL1  H27C15510   3.962   5.917  14.847 -0.1029 -1.2734 -0.2171
  126CHL1    C315511   1.771   5.508  13.335 -0.2484  0.7308 -0.1424
  126CHL1    H315512   1.882   5.509  13.334 -0.1602 -1.8751 -0.6811
  126CHL1    O315513   1.704   5.554  13.219  0.7469  0.3327 -0.1809
  126CHL1   H3'15514   1.726   5.481  13.160  1.5027 -0.1547  0.6692
  126CHL1    C415515   1.733   5.360  13.349  0.1969  0.2694  0.7052
  126CHL1   H4A15516   1.622   5.357  13.348  0.1544 -1.5055 -2.2550
  126CHL1   H4B15517   1.753   5.298  13.259 -0.1545  1.1857 -0.0237
  126CHL1    C515518   1.788   5.295  13.467 -0.2716  0.2439 -0.3432
  126CHL1    C615519   1.886   5.200  13.451 -0.3435 -0.0841  0.5388
  126CHL1    H615520   1.923   5.169  13.352 -0.8731  3.0798 -0.7755
  126CHL1    C715521   1.946   5.129  13.563  0.2179  0.6515  0.7293
  126CHL1   H7A15522   1.951   5.019  13.547 -0.2363  0.7063  0.1688
  126CHL1   H7B15523   2.048   5.171  13.572  0.5209 -0.3685  2.4773
  126CHL1    C815524   1.883   5.159  13.704  0.5894  0.2817  0.3442
  126CHL1    H815525   1.785   5.106  13.706 -0.1765  1.6209 -0.5524
  126CHL1   C1415526   1.975   5.113  13.813 -0.2924 -1.1292  0.6860
  126CHL1   H1415527   2.068   5.171  13.795  0.0671 -1.6331  0.8984
  126CHL1   C1515528   2.019   4.965  13.812  0.0863  0.7690 -0.7696
  126CHL1  H15A15529   1.932   4.906  13.778  1.3336 -1.2584 -0.5998
  126CHL1  H15B15530   2.103   4.956  13.739  0.2162  1.8409 -0.7686
  126CHL1   C1615531   2.076   4.940  13.951  0.1047  0.3706  0.3487
  126CHL1  H16A15532   2.007   4.862  13.990  1.2129 -0.0753  1.5075
  126CHL1  H16B15533   2.180   4.901  13.949  0.4800  1.3902 -0.5726
  126CHL1   C1715534   2.047   5.079  14.033 -0.0228 -0.8588  0.3853
  126CHL1   H1715535   2.142   5.134  14.018  1.1115 -2.9348 -0.3900
  126CHL1   C1315536   1.934   5.152  13.954 -0.3897  0.0725  0.5447
  126CHL1   C1815537   1.795   5.072  13.982  0.1013  0.2980 -0.2716
  126CHL1  H18A15538   1.761   5.091  14.086  2.2501  3.1468  0.0557
  126CHL1  H18B15539   1.720   5.118  13.915  0.6941  2.3086  0.3438
  126CHL1  H18C15540   1.806   4.963  13.969  0.4569  0.2425  0.4541
  126CHL1   C1215541   1.933   5.306  13.969  0.9662 -0.4294 -0.2739
  126CHL1  H12A15542   1.889   5.327  14.068  1.2874 -2.4549  0.3580
  126CHL1  H12B15543   2.040   5.335  13.964  1.0323 -0.3228  1.3957
  126CHL1   C1115544   1.839   5.359  13.859 -0.7336  0.3538  0.0980
  126CHL1  H11A15545   1.734   5.331  13.879 -0.5494 -1.0695 -0.7808
  126CHL1  H11B15546   1.856   5.469  13.857  2.7055  0.0042  1.5935
  126CHL1    C915547   1.866   5.314  13.714  0.0150 -0.4930 -0.3695
  126CHL1    H915548   1.969   5.350  13.694 -0.1318  0.5609  0.6913
  126CHL1   C1015549   1.765   5.364  13.609  0.0280  0.2746 -0.0778
  126CHL1   C1915550   1.617   5.338  13.661  0.2398 -0.0292  1.1851
  126CHL1  H19A15551   1.551   5.396  13.593  2.5735 -1.6227 -2.7511
  126CHL1  H19B15552   1.590   5.232  13.644 -0.3030  0.1104  1.1731
  126CHL1  H19C15553   1.592   5.381  13.760 -1.9472 -1.4621  1.3128
  126CHL1    C115554   1.790   5.519  13.585  0.4077  0.1586 -0.8950
  126CHL1   H1A15555   1.766   5.569  13.681  0.6622 -2.6034  0.7129
  126CHL1   H1B15556   1.897   5.526  13.555  0.4078 -2.1875 -1.6699
  126CHL1    C215557   1.723   5.581  13.461 -0.0231  0.4464 -0.3523
  126CHL1   H2A15558   1.751   5.689  13.457  0.7739  0.2199 -2.7995
  126CHL1   H2B15559   1.612   5.577  13.461 -0.0147 -0.1749  0.9673
  126CHL1   C2015560   2.011   5.054  14.187 -0.9355  0.0980 -0.3606
  126CHL1   H2015561   1.928   4.979  14.193  1.1411 -2.4997 -1.7682
  126CHL1   C2115562   1.959   5.181  14.263 -0.0421  0.7559  0.1607
  126CHL1  H21A15563   1.960   5.172  14.374 -2.3446 -1.2584  0.0859
  126CHL1  H21B15564   1.850   5.182  14.245 -0.0406 -1.7349 -0.4254
  126CHL1  H21C15565   2.011   5.276  14.238  1.6601 -0.6984 -2.3033
  126CHL1   C2215566   2.131   4.980  14.256 -0.3841 -0.3529 -0.9401
  126CHL1  H22A15567   2.102   4.950  14.359  1.8033  0.8779  0.1078
  126CHL1  H22B15568   2.163   4.885  14.208 -2.5639 -1.4469 -0.3609
  126CHL1   C2315569   2.247   5.074  14.274 -0.4439 -0.0344 -0.0940
  126CHL1  H23A15570   2.288   5.090  14.172 -1.7999  2.1523 -0.3811
  126CHL1  H23B15571   2.213   5.167  14.325 -0.8752 -1.4756  2.4393
  126CHL1   C2415572   2.357   5.020  14.357  0.3360 -0.0515 -0.1001
  126CHL1  H24A15573   2.320   4.978  14.452  0.1555  0.2439 -0.0385
  126CHL1  H24B15574   2.406   4.931  14.312 -2.2214 -2.1444  0.9739
  126CHL1   C2515575   2.451   5.133  14.404  0.4123  0.2196 -0.0540
  126CHL1   H2515576   2.404   5.212  14.466  3.0794  2.0101 -0.1754
  126CHL1   C2615577   2.554   5.075  14.499  0.0159 -0.2172  0.4148
  126CHL1  H26A15578   2.643   5.140  14.504 -0.7105  0.9503 -1.0043
  126CHL1  H26B15579   2.524   5.045  14.602 -1.0699  0.8835  0.4366
  126CHL1  H26C15580   2.587   4.983  14.444 -0.3119  0.9497 -1.8577
  126CHL1   C2715581   2.515   5.194  14.277 -0.0506  0.3670 -0.4590
  126CHL1  H27A15582   2.597   5.263  14.305 -0.0267  0.6452 -1.2020
  126CHL1  H27B15583   2.551   5.111  14.212 -2.5739 -0.2739 -1.1472
  126CHL1  H27C15584   2.443   5.249  14.213  0.6289  1.9528  0.0988
  127CHL1    C315585   3.354   6.799  13.049  0.5006  0.0644  0.0293
  127CHL1    H315586   3.247   6.792  13.019  0.3751  0.8927  0.2777
  127CHL1    O315587   3.426   6.853  12.938  0.3014 -0.1292  0.1225
  127CHL1   H3'15588   3.442   6.780  12.878 -0.6771 -0.1983 -0.0587
  127CHL1    C415589   3.372   6.904  13.157 -0.6050  0.8382 -0.3606
  127CHL1   H4A15590   3.481   6.925  13.160 -0.7249  2.0523 -2.4984
  127CHL1   H4B15591   3.327   6.998  13.118 -1.9708  0.1691 -0.4790
  127CHL1    C515592   3.312   6.869  13.291 -0.4224 -0.2642 -0.1989
  127CHL1    C615593   3.229   6.954  13.361 -0.3732 -0.2028  0.7534
  127CHL1    H615594   3.200   7.054  13.326  2.8579  0.3189 -0.7848
  127CHL1    C715595   3.183   6.928  13.500  0.0818 -0.0699 -0.3118
  127CHL1   H7A15596   3.218   7.018  13.554  0.1951  0.5532 -1.4087
  127CHL1   H7B15597   3.073   6.931  13.507  0.1593  2.6895  0.6683
  127CHL1    C815598   3.236   6.793  13.557  0.2261 -0.0739  0.1584
  127CHL1    H815599   3.338   6.808  13.597  0.7301  0.0577 -1.1256
  127CHL1   C1415600   3.148   6.746  13.677 -0.2235  0.6736  0.2142
  127CHL1   H1415601   3.050   6.714  13.636  0.0537 -2.0619  1.4939
  127CHL1   C1515602   3.108   6.844  13.788  0.3667 -0.1276  0.3198
  127CHL1  H15A15603   3.197   6.888  13.837 -1.0620  1.2128  1.8660
  127CHL1  H15B15604   3.043   6.925  13.748  1.4362  0.1986 -0.8063
  127CHL1   C1615605   3.041   6.763  13.896  0.0290 -1.1686  0.9813
  127CHL1  H16A15606   3.091   6.784  13.993  2.4021 -1.7641 -0.0492
  127CHL1  H16B15607   2.932   6.787  13.892  0.2564 -0.2219 -0.8264
  127CHL1   C1715608   3.065   6.613  13.851  0.0279 -0.4468 -0.0143
  127CHL1   H1715609   2.973   6.605  13.789  0.2364  1.8845 -0.7405
  127CHL1   C1315610   3.184   6.617  13.746  0.0106  0.3998  0.2324
  127CHL1   C1815611   3.321   6.629  13.826 -0.3230 -0.6542 -0.4491
  127CHL1  H18A15612   3.299   6.694  13.913  0.9835 -0.2889 -0.3670
  127CHL1  H18B15613   3.368   6.531  13.849  1.7900  0.2062 -0.8145
  127CHL1  H18C15614   3.396   6.686  13.767 -0.6146  0.6189  0.3855
  127CHL1   C1215615   3.192   6.507  13.638  0.1010  0.0837 -0.5897
  127CHL1  H12A15616   3.236   6.423  13.695  0.1835  0.3205 -0.3023
  127CHL1  H12B15617   3.091   6.469  13.614 -0.0723  0.1440  0.0227
  127CHL1   C1115618   3.278   6.540  13.515 -0.1599  0.1425 -0.4065
  127CHL1  H11A15619   3.379   6.552  13.560 -0.2083  1.3145 -0.5676
  127CHL1  H11B15620   3.282   6.456  13.442  0.9694  0.2138 -0.4484
  127CHL1    C915621   3.242   6.680  13.450  0.0363 -0.2084  0.2871
  127CHL1    H915622   3.139   6.674  13.408 -0.2145  0.4093  0.8080
  127CHL1   C1015623   3.341   6.723  13.338 -0.1166  0.1653  0.3818
  127CHL1   C1915624   3.484   6.721  13.383 -0.6722  0.0381  0.3593
  127CHL1  H19A15625   3.554   6.749  13.302  1.7435 -1.9447  1.6199
  127CHL1  H19B15626   3.505   6.783  13.473 -2.3885  1.0908  0.0848
  127CHL1  H19C15627   3.510   6.615  13.401  1.2669 -0.0480 -2.3829
  127CHL1    C115628   3.334   6.619  13.217  0.7634 -0.2758  0.1195
  127CHL1   H1A15629   3.366   6.519  13.251  1.2402 -0.5495 -1.0635
  127CHL1   H1B15630   3.226   6.601  13.196  1.1323 -0.5915 -1.7350
  127CHL1    C215631   3.404   6.659  13.089  0.0837  0.2921 -0.5923
  127CHL1   H2A15632   3.368   6.581  13.018  1.3849 -0.2786 -0.6668
  127CHL1   H2B15633   3.515   6.665  13.100  0.1526  1.0910 -1.5630
  127CHL1   C2015634   3.068   6.512  13.962 -0.0174  0.0150  0.4318
  127CHL1   H2015635   3.173   6.508  13.998  0.9906  0.3588 -2.2590
  127CHL1   C2115636   3.016   6.378  13.904  0.1118 -0.5716  0.0799
  127CHL1  H21A15637   3.028   6.305  13.987 -3.3279  0.3100  1.4893
  127CHL1  H21B15638   3.075   6.350  13.814  2.0225 -2.4400  1.8118
  127CHL1  H21C15639   2.908   6.389  13.881 -0.0741  1.5308  1.6454
  127CHL1   C2215640   2.988   6.551  14.088 -0.4759 -0.3714  0.0277
  127CHL1  H22A15641   2.997   6.660  14.109 -0.0156 -0.0360 -1.7691
  127CHL1  H22B15642   2.878   6.537  14.077 -0.1508 -3.0692 -0.3301
  127CHL1   C2315643   3.031   6.476  14.216  0.0775 -0.6750  0.4689
  127CHL1  H23A15644   3.018   6.367  14.198 -2.4964 -0.1627 -1.4310
  127CHL1  H23B15645   3.138   6.496  14.236 -0.3976  0.6637  1.8990
  127CHL1   C2415646   2.953   6.509  14.346 -0.2214 -0.3720  0.2732
  127CHL1  H24A15647   2.982   6.610  14.381 -0.5092 -1.1786  3.0630
  127CHL1  H24B15648   2.843   6.505  14.325  0.0602 -2.0736 -1.1464
  127CHL1   C2515649   2.993   6.416  14.466 -0.1456 -0.6106  0.0379
  127CHL1   H2515650   3.099   6.420  14.497 -0.8641 -1.3743  2.9096
  127CHL1   C2615651   2.918   6.451  14.596 -0.1354  0.5652  0.4279
  127CHL1  H26A15652   2.910   6.561  14.609 -0.0182  0.5021  1.0895
  127CHL1  H26B15653   2.811   6.421  14.595 -0.5517  2.0188 -0.0977
  127CHL1  H26C15654   2.975   6.401  14.677  1.1363 -1.1501 -1.4221
  127CHL1   C2715655   2.952   6.271  14.433 -0.4843  0.0466  0.3784
  127CHL1  H27A15656   2.968   6.201  14.519  2.1235  0.5589  0.4067
  127CHL1  H27B15657   2.849   6.272  14.392 -0.7128 -0.6188  0.9024
  127CHL1  H27C15658   3.011   6.232  14.347  0.9564 -0.4123  1.5181
  128CHL1    C315659   3.061   2.700  13.318  0.3528  0.6489 -0.1618
  128CHL1    H315660   3.007   2.606  13.340  2.9904 -0.7809  0.5691
  128CHL1    O315661   3.073   2.707  13.177  0.0838  0.0518  0.1295
  128CHL1   H3'15662   3.140   2.772  13.158  0.6283 -0.4818  0.2039
  128CHL1    C415663   2.991   2.825  13.374  0.0671 -0.1124  0.5133
  128CHL1   H4A15664   3.041   2.912  13.326 -0.4156  0.1606  0.5019
  128CHL1   H4B15665   2.888   2.825  13.334  0.4473  1.3740 -0.5430
  128CHL1    C515666   2.994   2.839  13.522  0.4175  0.1479 -0.3288
  128CHL1    C615667   2.875   2.848  13.593 -1.2321 -0.2609 -0.1635
  128CHL1    H615668   2.777   2.843  13.545 -1.5066  2.0907  0.0276
  128CHL1    C715669   2.869   2.861  13.738 -0.2466  0.0671  0.9168
  128CHL1   H7A15670   2.800   2.941  13.772 -0.5601 -0.4654  1.5631
  128CHL1   H7B15671   2.830   2.765  13.779 -0.4004  1.0178  3.1806
  128CHL1    C815672   3.005   2.889  13.806  0.2505 -0.2902 -0.6045
  128CHL1    H815673   3.042   2.993  13.793  0.7796 -0.7728 -3.5908
  128CHL1   C1415674   2.988   2.859  13.963  0.7215  0.5768 -0.2169
  128CHL1   H1415675   2.964   2.751  13.975 -2.4434  1.3796  2.1194
  128CHL1   C1515676   2.869   2.921  14.037 -0.5878  0.6589 -0.1892
  128CHL1  H15A15677   2.858   3.029  14.016 -0.0880  0.7623  0.0555
  128CHL1  H15B15678   2.772   2.871  14.018 -0.0957  0.0669 -1.2350
  128CHL1   C1615679   2.917   2.901  14.184 -0.3669  0.0010  0.0208
  128CHL1  H16A15680   2.919   3.001  14.233 -0.7353 -0.5502  1.1804
  128CHL1  H16B15681   2.846   2.834  14.237 -0.5827  0.9854  0.9998
  128CHL1   C1715682   3.063   2.836  14.183 -0.2244  0.2476 -0.5367
  128CHL1   H1715683   3.050   2.726  14.184  0.6372  0.1439 -0.2924
  128CHL1   C1315684   3.114   2.872  14.045  0.4513 -0.7674  0.2209
  128CHL1   C1815685   3.157   3.025  14.044  0.1464 -0.0826 -0.0716
  128CHL1  H18A15686   3.081   3.083  14.102 -1.2529 -1.0561 -0.8601
  128CHL1  H18B15687   3.251   3.052  14.097 -1.7505  3.1295  2.0594
  128CHL1  H18C15688   3.170   3.066  13.942 -0.8080 -0.7830 -0.4998
  128CHL1   C1215689   3.208   2.770  13.984 -0.2258 -0.3654  0.7249
  128CHL1  H12A15690   3.303   2.764  14.040 -0.5381 -0.4906  1.2511
  128CHL1  H12B15691   3.163   2.668  13.991 -0.8487 -0.0336  1.7852
  128CHL1   C1115692   3.242   2.800  13.834 -1.1328 -0.4360  0.2701
  128CHL1  H11A15693   3.292   2.899  13.840 -0.0081 -1.0606  1.8399
  128CHL1  H11B15694   3.315   2.731  13.787 -0.3350 -0.6854  1.8283
  128CHL1    C915695   3.114   2.800  13.743 -0.2288  0.1579 -0.6258
  128CHL1    H915696   3.076   2.697  13.758 -2.1234  1.0077  0.8838
  128CHL1   C1015697   3.136   2.824  13.591 -0.5977  0.2893 -0.1766
  128CHL1   C1915698   3.223   2.954  13.568 -0.1332 -0.0588  0.1817
  128CHL1  H19A15699   3.329   2.956  13.599  0.3303 -0.9580 -1.2365
  128CHL1  H19B15700   3.208   2.990  13.464 -0.7630 -0.9017 -0.0383
  128CHL1  H19C15701   3.177   3.038  13.624  0.1117  0.5535 -0.5222
  128CHL1    C115702   3.214   2.705  13.533 -0.0824  0.0787 -0.2266
  128CHL1   H1A15703   3.321   2.716  13.561 -0.4008  1.2921  0.5565
  128CHL1   H1B15704   3.172   2.613  13.580  1.8573 -1.3613 -1.1610
  128CHL1    C215705   3.201   2.691  13.376 -0.0379  0.5039  0.2209
  128CHL1   H2A15706   3.249   2.594  13.350  1.0801 -0.4296  4.8468
  128CHL1   H2B15707   3.266   2.771  13.336  0.4471 -0.7147 -1.5424
  128CHL1   C2015708   3.138   2.876  14.308  0.2329  0.0027 -0.1231
  128CHL1   H2015709   3.129   2.985  14.325  0.8173  0.2022 -1.0793
  128CHL1   C2115710   3.290   2.838  14.298 -0.5860  0.1248  0.3960
  128CHL1  H21A15711   3.336   2.904  14.222 -1.5419 -0.2779 -0.5568
  128CHL1  H21B15712   3.297   2.729  14.277  1.1739  0.2650  0.1104
  128CHL1  H21C15713   3.350   2.856  14.390  3.3439 -2.1543 -1.4287
  128CHL1   C2215714   3.081   2.809  14.438 -0.2163 -0.9542 -0.1227
  128CHL1  H22A15715   2.971   2.822  14.442 -0.1505 -0.3726 -0.1157
  128CHL1  H22B15716   3.103   2.701  14.445  0.5861 -0.8885 -1.2914
  128CHL1   C2315717   3.116   2.880  14.565 -0.3167 -0.1881  0.0213
  128CHL1  H23A15718   3.213   2.841  14.604 -0.0282  0.0203 -0.4740
  128CHL1  H23B15719   3.117   2.990  14.551 -0.1425 -0.0787  0.8418
  128CHL1   C2415720   3.015   2.848  14.677  0.6734 -0.2841  0.3169
  128CHL1  H24A15721   2.916   2.892  14.651  0.0117 -1.0566  1.4206
  128CHL1  H24B15722   2.999   2.738  14.682 -0.9513 -0.1757 -1.3058
  128CHL1   C2515723   3.062   2.895  14.816  0.9948  0.3493 -0.0973
  128CHL1   H2515724   3.078   3.005  14.806 -2.4970  1.1343  1.1932
  128CHL1   C2615725   2.948   2.877  14.916  0.4267 -0.0518  0.2048
  128CHL1  H26A15726   2.851   2.899  14.866  0.6942  1.4984  0.3257
  128CHL1  H26B15727   2.938   2.773  14.955  1.0252 -1.0680 -2.1711
  128CHL1  H26C15728   2.960   2.954  14.996 -1.0042  2.7306 -2.0690
  128CHL1   C2715729   3.178   2.803  14.866  0.5475 -0.5239  0.4410
  128CHL1  H27A15730   3.257   2.786  14.789  1.0009 -0.0556  0.7960
  128CHL1  H27B15731   3.234   2.842  14.953  0.4510 -0.7050  0.5863
  128CHL1  H27C15732   3.131   2.707  14.895 -1.4629 -0.1258 -1.2765
  129CHL1    C315733   4.952   7.295  13.259 -0.4057  0.0731 -0.0523
  129CHL1    H315734   5.061   7.290  13.281 -0.7659 -2.0832  1.5844
  129CHL1    O315735   4.925   7.353  13.132  0.2531  0.3428 -0.1905
  129CHL1   H3'15736   4.829   7.358  13.130  0.2180  2.7159  1.7683
  129CHL1    C415737   4.905   7.143  13.262 -0.2288  0.0655 -0.4930
  129CHL1   H4A15738   4.804   7.127  13.220  0.3293 -1.9772 -1.1452
  129CHL1   H4B15739   4.967   7.095  13.183 -0.6460 -1.9060  0.3401
  129CHL1    C515740   4.931   7.095  13.405  0.0437  0.1348  0.7032
  129CHL1    C615741   5.011   6.987  13.419  0.0303  0.0086 -1.2508
  129CHL1    H615742   5.069   6.941  13.338  1.1773 -1.9795  0.5857
  129CHL1    C715743   5.036   6.931  13.562 -0.3964  0.4368 -0.4217
  129CHL1   H7A15744   5.035   6.820  13.556  0.1153  0.3665  0.5766
  129CHL1   H7B15745   5.136   6.972  13.589 -0.9629  1.2767  0.4504
  129CHL1    C815746   4.929   6.964  13.675  0.2972 -0.0247  0.5482
  129CHL1    H815747   4.835   6.909  13.654 -1.7653  2.2103  3.1495
  129CHL1   C1415748   4.977   6.931  13.816  0.1963 -0.0169  0.3051
  129CHL1   H1415749   5.065   6.997  13.830 -0.6180  0.7685  2.0000
  129CHL1   C1515750   5.032   6.791  13.840 -0.1242 -0.5225  0.3558
  129CHL1  H15A15751   4.957   6.715  13.809 -2.2165  2.0535 -1.3693
  129CHL1  H15B15752   5.127   6.763  13.790  0.2349 -0.6319  1.0855
  129CHL1   C1615753   5.044   6.778  13.995  0.4723 -0.5836 -0.3712
  129CHL1  H16A15754   4.982   6.691  14.025  0.6439 -0.8986 -0.9264
  129CHL1  H16B15755   5.149   6.793  14.026  0.4099 -0.4013 -0.2457
  129CHL1   C1715756   4.969   6.900  14.053  0.2445 -0.6950 -0.3700
  129CHL1   H1715757   5.048   6.976  14.070  0.8348 -1.2366 -0.6390
  129CHL1   C1315758   4.886   6.964  13.936  0.8767 -0.4983  0.8705
  129CHL1   C1815759   4.752   6.889  13.913  0.2269  0.7109 -0.2405
  129CHL1  H18A15760   4.681   6.920  13.993  0.4578 -0.1503  0.3134
  129CHL1  H18B15761   4.705   6.916  13.816  0.5383  1.2722 -0.2395
  129CHL1  H18C15762   4.767   6.779  13.915 -0.3701  0.6296 -0.0926
  129CHL1   C1215763   4.864   7.111  13.933 -0.5447 -0.3169  0.9112
  129CHL1  H12A15764   4.786   7.139  14.006 -1.1945 -0.8415  0.4265
  129CHL1  H12B15765   4.956   7.168  13.959 -0.7416  0.1850  0.5158
  129CHL1   C1115766   4.816   7.161  13.791  0.1188 -0.6449 -0.3581
  129CHL1  H11A15767   4.713   7.122  13.784 -0.2080 -0.0865  0.9620
  129CHL1  H11B15768   4.815   7.272  13.791  1.2202 -0.6119  0.6010
  129CHL1    C915769   4.901   7.120  13.666  0.3068 -0.0429 -0.5678
  129CHL1    H915770   4.998   7.174  13.675  0.2698 -0.3394  2.3942
  129CHL1   C1015771   4.856   7.157  13.525 -0.0629 -0.4519  0.3982
  129CHL1   C1915772   4.711   7.119  13.501  0.4803 -0.1947  0.3297
  129CHL1  H19A15773   4.676   7.140  13.398  0.4609 -0.2844  0.3173
  129CHL1  H19B15774   4.693   7.010  13.515 -0.7287 -0.0132  0.3019
  129CHL1  H19C15775   4.654   7.186  13.568  2.9592  2.1095  0.2908
  129CHL1    C115776   4.883   7.313  13.505  0.2510 -0.7975 -0.8816
  129CHL1   H1A15777   4.824   7.358  13.588  0.1043 -2.5839  0.0240
  129CHL1   H1B15778   4.988   7.335  13.533 -0.7315  1.7263  1.2753
  129CHL1    C215779   4.871   7.370  13.363 -0.1550 -0.2541  0.0055
  129CHL1   H2A15780   4.898   7.477  13.360 -0.9554  0.0386  1.7900
  129CHL1   H2B15781   4.767   7.363  13.326  0.3030 -1.3698 -1.1700
  129CHL1   C2015782   4.897   6.880  14.189  0.0021  0.1351 -0.4231
  129CHL1   H2015783   4.816   6.806  14.174  0.6536 -0.2434 -2.2853
  129CHL1   C2115784   4.830   7.004  14.235  0.0461  0.5985 -0.2142
  129CHL1  H21A15785   4.806   7.003  14.344 -1.0403  0.1963 -0.4476
  129CHL1  H21B15786   4.734   7.024  14.184  0.2163  2.8833  0.2505
  129CHL1  H21C15787   4.903   7.087  14.223  0.0821  0.2992 -2.3798
  129CHL1   C2215788   4.979   6.824  14.305  0.5704  0.4628  0.1204
  129CHL1  H22A15789   4.916   6.816  14.396  0.1754 -0.6913 -0.2498
  129CHL1  H22B15790   5.006   6.720  14.280 -1.7154 -0.2735  0.4762
  129CHL1   C2315791   5.095   6.910  14.351  0.3452 -0.2328 -0.1263
  129CHL1  H23A15792   5.168   6.918  14.267 -1.6086  1.9443 -1.7491
  129CHL1  H23B15793   5.056   7.010  14.379  0.2912 -0.0858 -0.7148
  129CHL1   C2415794   5.157   6.857  14.476  0.6671 -0.2593  0.4835
  129CHL1  H24A15795   5.232   6.932  14.509  1.7970 -0.1974 -2.0078
  129CHL1  H24B15796   5.075   6.836  14.547  0.5808  0.3071  0.5616
  129CHL1   C2515797   5.239   6.732  14.456 -0.7589  0.0551 -0.7506
  129CHL1   H2515798   5.174   6.652  14.414  0.1192 -1.1419  0.1050
  129CHL1   C2615799   5.363   6.754  14.374 -0.0899  0.2308  0.0739
  129CHL1  H26A15800   5.410   6.654  14.363  0.6116  0.3367  1.7853
  129CHL1  H26B15801   5.342   6.784  14.269  0.1535 -0.6779 -0.2447
  129CHL1  H26C15802   5.436   6.822  14.423  1.2658 -1.8134  1.0463
  129CHL1   C2715803   5.285   6.679  14.586 -0.4988 -0.0457 -0.0426
  129CHL1  H27A15804   5.195   6.652  14.647 -1.3819  0.2948 -1.1599
  129CHL1  H27B15805   5.353   6.592  14.585 -0.3278  0.0104  2.1039
  129CHL1  H27C15806   5.341   6.753  14.647  1.2551 -1.8288  0.6214
  130CHL1    C315807   2.849   7.536  13.350  0.1089  0.3021 -0.3715
  130CHL1    H315808   2.759   7.482  13.388  0.4612  0.1656  0.2748
  130CHL1    O315809   2.870   7.490  13.218 -0.2443 -0.1863  0.6572
  130CHL1   H3'15810   2.870   7.394  13.216 -0.3397 -0.1771 -0.1109
  130CHL1    C415811   2.832   7.686  13.355 -0.7090  0.5013 -0.3143
  130CHL1   H4A15812   2.923   7.737  13.318  0.0626  0.7560  1.7932
  130CHL1   H4B15813   2.748   7.715  13.288 -0.7924  1.6148  0.2576
  130CHL1    C515814   2.807   7.728  13.500  0.6111 -0.2468 -0.9125
  130CHL1    C615815   2.691   7.799  13.520  0.2145  0.3349 -0.1871
  130CHL1    H615816   2.630   7.827  13.433  0.0593 -2.7606 -1.1741
  130CHL1    C715817   2.646   7.842  13.654  0.7990 -0.1817  0.2871
  130CHL1   H7A15818   2.599   7.942  13.649  0.1369 -0.4950  0.2346
  130CHL1   H7B15819   2.556   7.782  13.679  0.9579 -0.2630  0.6836
  130CHL1    C815820   2.757   7.820  13.767 -0.1805  0.5268  0.3879
  130CHL1    H815821   2.833   7.901  13.758 -1.3893  1.6441 -0.1890
  130CHL1   C1415822   2.695   7.834  13.902  0.4946  0.2898 -0.7460
  130CHL1   H1415823   2.637   7.739  13.914  1.2689 -0.2733 -1.3323
  130CHL1   C1515824   2.605   7.954  13.943 -0.6250 -0.5484  0.8587
  130CHL1  H15A15825   2.656   8.045  13.903 -1.6876 -0.7517 -1.0764
  130CHL1  H15B15826   2.503   7.935  13.902 -0.3666 -1.4412  0.6089
  130CHL1   C1615827   2.614   7.956  14.102 -0.2317 -0.5487  0.9189
  130CHL1  H16A15828   2.638   8.058  14.140  0.0701 -0.5610  0.7601
  130CHL1  H16B15829   2.520   7.931  14.156 -0.2459  0.8695  1.5902
  130CHL1   C1715830   2.716   7.847  14.146 -0.2864  0.3248 -0.1461
  130CHL1   H1715831   2.663   7.754  14.176 -0.7821  0.6854  0.1213
  130CHL1   C1315832   2.796   7.813  14.017 -0.1593  0.4129 -0.0444
  130CHL1   C1815833   2.904   7.928  14.014  0.4781  0.2943  0.2891
  130CHL1  H18A15834   2.982   7.924  14.093  1.8758 -0.3910 -1.0448
  130CHL1  H18B15835   2.957   7.932  13.916  0.2138  2.4547  0.1955
  130CHL1  H18C15836   2.855   8.026  14.026  0.1401 -0.0230  1.5527
  130CHL1   C1215837   2.864   7.675  14.005 -0.0588  0.0376  0.6139
  130CHL1  H12A15838   2.942   7.673  14.084 -0.6567 -0.9800  1.1898
  130CHL1  H12B15839   2.791   7.593  14.023  0.3606 -0.7865 -1.1362
  130CHL1   C1115840   2.928   7.657  13.873 -0.0177  0.2281  0.0629
  130CHL1  H11A15841   3.019   7.721  13.865  0.4492 -0.4333  0.0567
  130CHL1  H11B15842   2.959   7.552  13.856 -0.8105  0.1810 -1.2166
  130CHL1    C915843   2.827   7.686  13.757 -0.4746 -0.1637 -0.2455
  130CHL1    H915844   2.748   7.608  13.759 -1.7614  1.1009 -0.4455
  130CHL1   C1015845   2.893   7.680  13.613  0.7682 -1.0787 -0.0926
  130CHL1   C1915846   3.026   7.766  13.606 -0.0359  0.4823 -0.2222
  130CHL1  H19A15847   3.000   7.873  13.616  2.6056  1.2584 -0.7923
  130CHL1  H19B15848   3.100   7.736  13.683  0.1831  2.7356  0.4869
  130CHL1  H19C15849   3.066   7.749  13.503  1.1576  1.6670  0.0207
  130CHL1    C115850   2.930   7.532  13.585  0.6071  0.6270 -0.1721
  130CHL1   H1A15851   3.008   7.500  13.658  0.4906 -1.4392 -0.8884
  130CHL1   H1B15852   2.842   7.465  13.600  1.6670 -1.3750 -2.2582
  130CHL1    C215853   2.965   7.497  13.437  0.5411  0.9274 -0.4593
  130CHL1   H2A15854   2.996   7.391  13.429 -0.6054  0.7157 -3.2492
  130CHL1   H2B15855   3.056   7.553  13.405  0.6388  0.9146 -0.2056
  130CHL1   C2015856   2.787   7.888  14.281  0.2300  0.0693  0.6291
  130CHL1   H2015857   2.837   7.985  14.259 -0.5225  0.0682 -1.2794
  130CHL1   C2115858   2.903   7.792  14.323  0.2059 -0.3176 -0.9704
  130CHL1  H21A15859   2.859   7.691  14.317 -0.1678 -0.4065  1.9860
  130CHL1  H21B15860   2.942   7.812  14.425  2.4763 -0.5856 -1.7249
  130CHL1  H21C15861   2.981   7.797  14.243 -0.5037 -2.4893 -1.8645
  130CHL1   C2215862   2.685   7.912  14.386  0.2916  0.1394  0.4098
  130CHL1  H22A15863   2.604   7.974  14.343  1.0901  0.2756 -0.9298
  130CHL1  H22B15864   2.645   7.816  14.424  1.7897  0.5934  3.5097
  130CHL1   C2315865   2.739   7.993  14.505  0.1720  0.1099 -0.4286
  130CHL1  H23A15866   2.657   7.997  14.580 -1.0156  1.6513 -1.7317
  130CHL1  H23B15867   2.819   7.935  14.556 -1.4740 -3.2444 -1.3527
  130CHL1   C2415868   2.780   8.134  14.473 -0.5386 -0.1628  0.2441
  130CHL1  H24A15869   2.878   8.138  14.420 -0.3732 -0.3302  0.5381
  130CHL1  H24B15870   2.711   8.176  14.396  0.7425  0.0372 -0.8328
  130CHL1   C2515871   2.784   8.228  14.593  0.1570  0.5104 -1.0708
  130CHL1   H2515872   2.689   8.214  14.649  1.4974 -0.7940  1.0120
  130CHL1   C2615873   2.892   8.189  14.699  0.1003 -0.3489  0.1269
  130CHL1  H26A15874   2.994   8.207  14.659  0.2604 -1.0006  0.2432
  130CHL1  H26B15875   2.869   8.244  14.793  0.6274 -0.4834  0.3340
  130CHL1  H26C15876   2.888   8.081  14.723  0.6571 -0.8980 -2.0494
  130CHL1   C2715877   2.786   8.385  14.566 -0.0264 -0.2167  0.6042
  130CHL1  H27A15878   2.694   8.421  14.515  0.9156  2.4307  0.6211
  130CHL1  H27B15879   2.800   8.437  14.663 -1.4347  0.3271  0.5295
  130CHL1  H27C15880   2.873   8.411  14.501 -1.5952  1.3501 -0.9746
  131CHL1    C315881   1.802   6.207  13.293  0.2122 -0.3975 -0.4746
  131CHL1    H315882   1.708   6.179  13.240 -0.5451 -0.6510  0.9383
  131CHL1    O315883   1.921   6.180  13.216 -0.1427 -0.0698 -0.1350
  131CHL1   H3'15884   1.941   6.087  13.234  0.3295  0.3431  1.7024
  131CHL1    C415885   1.797   6.356  13.339  0.4396 -0.2910 -0.2416
  131CHL1   H4A15886   1.899   6.384  13.374 -0.2455  1.6368  0.3639
  131CHL1   H4B15887   1.783   6.401  13.238  0.6889  2.2131  0.7462
  131CHL1    C515888   1.686   6.387  13.442  0.0758  0.3026  1.1723
  131CHL1    C615889   1.595   6.480  13.416 -0.0277  0.2734  0.0612
  131CHL1    H615890   1.594   6.542  13.325  0.8733  1.0871  0.5991
  131CHL1    C715891   1.478   6.504  13.506  0.3351  0.4239  0.4222
  131CHL1   H7A15892   1.465   6.614  13.507  0.6502  0.5142 -1.3182
  131CHL1   H7B15893   1.391   6.448  13.465  2.7392 -2.5433 -1.0682
  131CHL1    C815894   1.493   6.447  13.648  0.4252  0.5819  0.6143
  131CHL1    H815895   1.577   6.500  13.700 -1.7140  1.1971  3.7680
  131CHL1   C1415896   1.359   6.451  13.722 -0.3795  0.0508  0.6125
  131CHL1   H1415897   1.284   6.388  13.670 -0.6458  0.4864  0.4632
  131CHL1   C1515898   1.295   6.589  13.745 -0.7196 -0.2107  0.3144
  131CHL1  H15A15899   1.364   6.666  13.786  0.7521 -1.0971 -0.3858
  131CHL1  H15B15900   1.242   6.633  13.658 -1.1140  1.2008  1.2303
  131CHL1   C1615901   1.197   6.565  13.864 -0.4457 -0.6880 -0.2106
  131CHL1  H16A15902   1.217   6.644  13.939 -1.0857 -0.6549 -0.0670
  131CHL1  H16B15903   1.097   6.572  13.816 -0.2582 -1.0966 -0.6734
  131CHL1   C1715904   1.227   6.419  13.914  0.0993 -0.3488  0.1877
  131CHL1   H1715905   1.173   6.352  13.844  0.0355  0.4060 -0.5023
  131CHL1   C1315906   1.373   6.391  13.869 -0.1098 -0.6151  0.5936
  131CHL1   C1815907   1.481   6.463  13.955 -0.2735  0.2031  0.3469
  131CHL1  H18A15908   1.463   6.453  14.064 -0.7248  2.6638  0.5409
  131CHL1  H18B15909   1.575   6.416  13.918 -1.4123 -2.2029  0.3107
  131CHL1  H18C15910   1.478   6.572  13.933 -0.7923  0.3742  1.2214
  131CHL1   C1215911   1.418   6.243  13.856 -0.8721  0.1985 -0.5129
  131CHL1  H12A15912   1.452   6.197  13.951 -0.2169  0.4357 -0.6320
  131CHL1  H12B15913   1.352   6.187  13.787  0.6396 -0.2299 -1.6503
  131CHL1   C1115914   1.549   6.221  13.773  1.1860 -0.3240  0.2057
  131CHL1  H11A15915   1.633   6.247  13.840  0.5455  1.5995  0.3299
  131CHL1  H11B15916   1.564   6.113  13.752  4.9422  0.0302  0.4175
  131CHL1    C915917   1.547   6.298  13.633 -0.5047 -0.4317  0.0037
  131CHL1    H915918   1.473   6.252  13.564 -1.0669  0.3355  0.0704
  131CHL1   C1015919   1.684   6.292  13.564 -0.2487 -0.9997  0.2379
  131CHL1   C1915920   1.792   6.331  13.663 -0.0602 -0.0495  0.4444
  131CHL1  H19A15921   1.818   6.247  13.731  0.4014 -0.3126 -0.0522
  131CHL1  H19B15922   1.881   6.346  13.598  0.6029  0.5036  1.4527
  131CHL1  H19C15923   1.776   6.426  13.719  1.5619  0.9396 -0.6840
  131CHL1    C115924   1.704   6.139  13.517  0.2985  0.1543 -0.6545
  131CHL1   H1A15925   1.710   6.077  13.609 -0.5339  2.2037  0.8473
  131CHL1   H1B15926   1.610   6.105  13.467  0.8169 -1.3329 -0.6758
  131CHL1    C215927   1.818   6.115  13.417 -0.3776  0.0580  0.5214
  131CHL1   H2A15928   1.812   6.009  13.382  0.3540  0.7931 -1.9852
  131CHL1   H2B15929   1.914   6.138  13.467 -0.4991  1.2164  0.2405
  131CHL1   C2015930   1.184   6.374  14.052 -0.0582  0.1885  0.0612
  131CHL1   H2015931   1.247   6.292  14.092 -1.1565  0.5141  2.7214
  131CHL1   C2115932   1.046   6.312  14.038 -0.1151  0.0514  0.1939
  131CHL1  H21A15933   1.034   6.258  14.135 -1.2593  2.8019  1.7050
  131CHL1  H21B15934   1.045   6.230  13.964  0.6878 -0.5269  0.8027
  131CHL1  H21C15935   0.968   6.390  14.027  2.0204  2.2293 -0.3599
  131CHL1   C2215936   1.200   6.483  14.166  0.2540  0.2803 -0.4263
  131CHL1  H22A15937   1.306   6.513  14.181 -0.1144  1.2869  0.2883
  131CHL1  H22B15938   1.133   6.568  14.139  0.2268  0.0640 -1.0493
  131CHL1   C2315939   1.146   6.425  14.300  0.2010  0.2818 -0.0934
  131CHL1  H23A15940   1.038   6.402  14.287  0.4772 -0.1293 -2.0109
  131CHL1  H23B15941   1.207   6.333  14.314 -1.2332 -0.6232  0.3527
  131CHL1   C2415942   1.169   6.514  14.422  0.6383 -0.3608  0.2441
  131CHL1  H24A15943   1.275   6.549  14.424  1.1446 -1.3051 -3.0734
  131CHL1  H24B15944   1.121   6.612  14.401 -0.0875 -1.0188 -1.3493
  131CHL1   C2515945   1.111   6.470  14.556 -0.5005 -0.2204 -0.1442
  131CHL1   H2515946   1.121   6.551  14.630  0.7107  1.0409 -1.6240
  131CHL1   C2615947   0.966   6.429  14.557 -0.3205  0.0809 -0.3067
  131CHL1  H26A15948   0.953   6.351  14.478 -1.9125  1.2505 -1.2405
  131CHL1  H26B15949   0.945   6.395  14.661 -0.0761 -0.0197 -0.2888
  131CHL1  H26C15950   0.901   6.517  14.540 -1.3671 -0.3074  1.5209
  131CHL1   C2715951   1.195   6.349  14.608  0.5322 -0.5276 -1.1634
  131CHL1  H27A15952   1.304   6.369  14.608  0.5648 -0.6820 -0.5925
  131CHL1  H27B15953   1.174   6.333  14.716 -0.1274  4.3001 -0.3477
  131CHL1  H27C15954   1.169   6.259  14.547 -0.2516  0.0993 -1.7678
  132CHL1    C315955   4.725   1.246  13.170 -0.6508 -0.4772  0.4316
  132CHL1    H315956   4.745   1.355  13.177  0.1292 -0.6087  0.2702
  132CHL1    O315957   4.720   1.203  13.033 -0.4014  0.3443 -0.3477
  132CHL1   H3'15958   4.709   1.108  13.043  0.3867  0.3683  1.1171
  132CHL1    C415959   4.852   1.182  13.240 -0.7009  0.6478  0.3209
  132CHL1   H4A15960   4.844   1.071  13.237 -1.0331  0.6093  1.8342
  132CHL1   H4B15961   4.941   1.216  13.183  0.1289 -1.0642  0.5297
  132CHL1    C515962   4.855   1.221  13.385 -0.1389 -0.0496  0.5350
  132CHL1    C615963   4.965   1.274  13.434 -0.9405 -0.4003 -0.2017
  132CHL1    H615964   5.053   1.288  13.370 -1.4401  0.4816 -0.7286
  132CHL1    C715965   4.976   1.313  13.578  0.0913 -0.2455  1.2427
  132CHL1   H7A15966   5.077   1.282  13.613  0.4171  1.7547  2.2281
  132CHL1   H7B15967   4.965   1.423  13.584 -0.8085 -0.2861  0.5659
  132CHL1    C815968   4.875   1.242  13.669 -0.3859 -0.0974 -0.3561
  132CHL1    H815969   4.901   1.134  13.676  0.1837  0.1494  1.9132
  132CHL1   C1415970   4.890   1.311  13.808 -0.0411  0.0583  0.6543
  132CHL1   H1415971   4.868   1.418  13.788 -1.5798 -0.5621 -1.2918
  132CHL1   C1515972   5.030   1.311  13.877 -0.5047 -0.2705 -0.0549
  132CHL1  H15A15973   5.053   1.203  13.872 -0.6540 -0.3127  0.1417
  132CHL1  H15B15974   5.112   1.364  13.824 -1.5101  1.6033  0.1755
  132CHL1   C1615975   4.991   1.347  14.028 -0.0326  0.0349  0.4366
  132CHL1  H16A15976   5.033   1.259  14.081  0.6489 -0.2207 -0.5090
  132CHL1  H16B15977   5.044   1.440  14.057  1.2347 -1.3204  2.8493
  132CHL1   C1715978   4.835   1.346  14.039  0.8796 -0.3173 -0.4473
  132CHL1   H1715979   4.811   1.453  14.022  0.8860 -0.3432 -0.6246
  132CHL1   C1315980   4.792   1.265  13.909 -0.9880  0.6646 -0.5758
  132CHL1   C1815981   4.802   1.115  13.951 -0.5247  0.1365  0.1322
  132CHL1  H18A15982   4.800   1.046  13.864  1.4341  0.4091 -0.1670
  132CHL1  H18B15983   4.893   1.097  14.012 -1.1537 -1.9329  0.5424
  132CHL1  H18C15984   4.711   1.089  14.010 -1.0407  0.2277 -0.6032
  132CHL1   C1215985   4.653   1.295  13.852 -0.4222  0.2887  0.3357
  132CHL1  H12A15986   4.572   1.265  13.922 -1.8091 -2.1504 -2.1219
  132CHL1  H12B15987   4.642   1.402  13.826 -1.3657  0.5730  1.7708
  132CHL1   C1115988   4.632   1.216  13.717  0.2352 -0.3188  0.4634
  132CHL1  H11A15989   4.632   1.107  13.740  3.6768  0.0340  2.8029
  132CHL1  H11B15990   4.532   1.241  13.675  0.3771 -1.3394 -0.5290
  132CHL1    C915991   4.733   1.258  13.613  0.3534  0.4816 -0.0504
  132CHL1    H915992   4.712   1.366  13.600  3.4749  1.0960 -0.8846
  132CHL1   C1015993   4.726   1.195  13.470  0.4490 -0.0955  0.1669
  132CHL1   C1915994   4.719   1.038  13.488  0.0926  0.7190 -0.4879
  132CHL1  H19A15995   4.709   0.987  13.390  0.0298  1.7549 -1.0277
  132CHL1  H19B15996   4.812   1.002  13.537 -0.0161 -0.2410 -0.9653
  132CHL1  H19C15997   4.637   1.004  13.555  0.6807 -1.1819 -0.6479
  132CHL1    C115998   4.603   1.257  13.393 -0.2439  0.2706  1.0015
  132CHL1   H1A15999   4.521   1.217  13.457  0.9013  1.1298  3.1127
  132CHL1   H1B16000   4.602   1.368  13.394  0.1817  0.2954 -0.0001
  132CHL1    C216001   4.594   1.217  13.245 -0.4814  0.3783  0.6179
  132CHL1   H2A16002   4.507   1.274  13.206  0.1184  0.8042 -0.1011
  132CHL1   H2B16003   4.571   1.108  13.238  3.4419 -0.4578 -2.5414
  132CHL1   C2016004   4.780   1.313  14.177  0.4933  0.1685  0.4916
  132CHL1   H2016005   4.812   1.208  14.193  0.7579  0.1344 -0.2375
  132CHL1   C2116006   4.631   1.317  14.187 -0.4681 -0.1555  0.8262
  132CHL1  H21A16007   4.587   1.398  14.125  1.0939 -0.1577 -0.3164
  132CHL1  H21B16008   4.588   1.318  14.290 -0.9692 -2.2511  0.6882
  132CHL1  H21C16009   4.600   1.222  14.139  2.8537 -1.3805  0.8425
  132CHL1   C2216010   4.850   1.382  14.297  0.0739  0.1149  1.0089
  132CHL1  H22A16011   4.786   1.351  14.382 -1.0804  0.7657  0.4035
  132CHL1  H22B16012   4.955   1.352  14.318  0.2335 -2.1147 -2.2976
  132CHL1   C2316013   4.831   1.538  14.307 -0.0583  0.4089  0.5684
  132CHL1  H23A16014   4.895   1.588  14.230 -1.1970  0.5134 -0.3489
  132CHL1  H23B16015   4.722   1.561  14.302  0.0550  1.0813  1.0982
  132CHL1   C2416016   4.858   1.586  14.449 -0.7621  1.0918 -0.3886
  132CHL1  H24A16017   4.793   1.529  14.518  0.6789 -0.3835 -0.1702
  132CHL1  H24B16018   4.959   1.543  14.466 -1.6802 -1.4943 -0.9811
  132CHL1   C2516019   4.862   1.732  14.483  0.2552  0.2827 -0.0899
  132CHL1   H2516020   4.903   1.726  14.587  1.5827  0.6954 -0.5699
  132CHL1   C2616021   4.954   1.803  14.384  0.2120  0.0952 -0.2158
  132CHL1  H26A16022   4.909   1.799  14.283  0.7227 -0.1300 -0.4421
  132CHL1  H26B16023   4.967   1.909  14.412  2.7456 -0.1930 -0.0780
  132CHL1  H26C16024   5.054   1.755  14.384  1.7323  3.0406 -0.9914
  132CHL1   C2716025   4.722   1.794  14.493  0.0179  0.3587 -0.6662
  132CHL1  H27A16026   4.683   1.792  14.389 -2.2557  1.5159  0.1008
  132CHL1  H27B16027   4.663   1.729  14.561 -0.1823  1.3428  0.1246
  132CHL1  H27C16028   4.720   1.898  14.530  1.4031  0.2690 -0.2797
  133CHL1    C316029   1.899   2.709  13.514 -0.5351  0.3089  0.4453
  133CHL1    H316030   1.934   2.814  13.516 -0.8744  0.5859 -2.8352
  133CHL1    O316031   1.922   2.661  13.381 -0.0242  0.2218 -0.2385
  133CHL1   H3'16032   1.880   2.574  13.373 -1.6516  1.0912 -2.2370
  133CHL1    C416033   1.968   2.620  13.619  0.2120  0.1583  0.1023
  133CHL1   H4A16034   1.928   2.516  13.621  2.2804 -0.6720  1.1373
  133CHL1   H4B16035   2.075   2.610  13.592  0.2310  1.3765 -0.3378
  133CHL1    C516036   1.953   2.680  13.760  1.2298  0.1051 -0.0895
  133CHL1    C616037   2.055   2.728  13.835 -0.8239  0.5212 -0.5307
  133CHL1    H616038   2.158   2.717  13.797 -0.1101 -0.9391  1.6323
  133CHL1    C716039   2.035   2.786  13.973  0.9225 -0.9074 -0.0248
  133CHL1   H7A16040   2.112   2.750  14.044 -0.4903 -0.2560  1.9271
  133CHL1   H7B16041   2.033   2.897  13.968 -0.3772 -0.8385  1.3332
  133CHL1    C816042   1.891   2.751  14.031 -0.2039  0.2003 -0.1481
  133CHL1    H816043   1.894   2.644  14.058  2.2723 -0.0758 -1.1736
  133CHL1   C1416044   1.867   2.828  14.161 -0.1853 -0.8329  0.0790
  133CHL1   H1416045   1.875   2.936  14.135 -0.2484 -0.6398  0.8320
  133CHL1   C1516046   1.965   2.822  14.279 -0.4092  0.6376  0.0286
  133CHL1  H15A16047   1.983   2.719  14.316 -0.2631  0.5517 -0.2842
  133CHL1  H15B16048   2.062   2.865  14.247 -0.0423 -0.7784 -0.8387
  133CHL1   C1616049   1.887   2.897  14.385 -0.6700  0.0592  0.5668
  133CHL1  H16A16050   1.887   2.826  14.471  0.2842 -1.1162 -0.3627
  133CHL1  H16B16051   1.942   2.989  14.413 -1.5140  1.2034 -1.3597
  133CHL1   C1716052   1.738   2.915  14.342 -0.2761 -0.1794  0.5631
  133CHL1   H1716053   1.729   3.022  14.311  2.2344  0.0579  0.4959
  133CHL1   C1316054   1.725   2.821  14.220  0.0387 -0.0349 -0.3107
  133CHL1   C1816055   1.703   2.673  14.270 -0.3101  1.0626 -0.0760
  133CHL1  H18A16056   1.595   2.648  14.283 -0.7359  2.9052  0.1932
  133CHL1  H18B16057   1.735   2.610  14.184 -0.4149 -0.7888  1.1799
  133CHL1  H18C16058   1.764   2.649  14.359  1.2780 -2.0710 -1.8224
  133CHL1   C1216059   1.621   2.864  14.104  0.1524  0.6491 -0.6162
  133CHL1  H12A16060   1.515   2.850  14.134  0.1894  0.1290 -0.7275
  133CHL1  H12B16061   1.634   2.969  14.070 -1.3919  1.0542 -0.0812
  133CHL1   C1116062   1.642   2.770  13.984 -0.6996 -0.8172  0.4942
  133CHL1  H11A16063   1.608   2.668  14.012 -0.8841 -0.7527  0.5053
  133CHL1  H11B16064   1.571   2.807  13.908 -1.6400  0.1126  1.7885
  133CHL1    C916065   1.784   2.780  13.925 -0.3307 -0.6368 -0.4386
  133CHL1    H916066   1.799   2.889  13.906  0.0947 -0.7705 -0.8728
  133CHL1   C1016067   1.805   2.694  13.791  0.0248  0.6448 -0.5013
  133CHL1   C1916068   1.752   2.548  13.823 -0.3872  0.6358 -0.7684
  133CHL1  H19A16069   1.767   2.477  13.739  0.9867  0.1480 -0.1484
  133CHL1  H19B16070   1.813   2.516  13.910 -1.9543  2.0017  0.9184
  133CHL1  H19C16071   1.643   2.549  13.844 -0.2335 -1.2429  0.3971
  133CHL1    C116072   1.715   2.755  13.684  0.4676  0.0175 -0.4807
  133CHL1   H1A16073   1.607   2.744  13.706  0.4687 -0.3891 -0.6586
  133CHL1   H1B16074   1.744   2.862  13.682 -0.5930  0.4185  1.9788
  133CHL1    C216075   1.748   2.710  13.541 -0.0796  0.3838 -0.5993
  133CHL1   H2A16076   1.703   2.784  13.471 -0.3344  0.6714 -0.1374
  133CHL1   H2B16077   1.715   2.605  13.527  2.2622 -0.9833  2.7538
  133CHL1   C2016078   1.632   2.897  14.455  0.3077 -0.3093 -0.2889
  133CHL1   H2016079   1.633   2.788  14.477  1.7542 -1.0349 -3.3486
  133CHL1   C2116080   1.489   2.923  14.401  0.0244 -0.4281  0.4094
  133CHL1  H21A16081   1.414   2.923  14.483  0.1671  1.3133  0.5650
  133CHL1  H21B16082   1.448   2.843  14.335 -0.3734  0.9421 -1.0538
  133CHL1  H21C16083   1.479   3.025  14.360 -0.3800 -1.7256 -3.1174
  133CHL1   C2216084   1.653   2.973  14.590 -0.1877  0.1514 -0.2820
  133CHL1  H22A16085   1.575   2.945  14.664  1.6043 -2.5211  0.7526
  133CHL1  H22B16086   1.743   2.942  14.648 -1.2286  0.3313  1.5134
  133CHL1   C2316087   1.650   3.132  14.576  0.0847  0.4414 -0.4831
  133CHL1  H23A16088   1.723   3.168  14.502  1.8417 -0.2774  0.8314
  133CHL1  H23B16089   1.549   3.163  14.542  0.1137 -1.7898 -2.9365
  133CHL1   C2416090   1.680   3.202  14.713  0.5558 -0.1874  0.6012
  133CHL1  H24A16091   1.606   3.158  14.783 -0.6741  0.5451 -0.2001
  133CHL1  H24B16092   1.779   3.182  14.761  1.2902  1.1532 -0.2874
  133CHL1   C2516093   1.665   3.358  14.726 -0.2465  0.9200 -0.3640
  133CHL1   H2516094   1.723   3.395  14.639  0.8072  2.5300  0.9627
  133CHL1   C2616095   1.516   3.396  14.713 -0.2077 -0.1930 -0.0227
  133CHL1  H26A16096   1.517   3.506  14.723 -0.5930  0.0254 -2.0185
  133CHL1  H26B16097   1.482   3.369  14.610 -1.3513 -0.1618  0.3362
  133CHL1  H26C16098   1.466   3.339  14.794 -0.3177 -0.0760 -0.0083
  133CHL1   C2716099   1.734   3.405  14.852  0.9770 -0.1874 -0.4457
  133CHL1  H27A16100   1.840   3.376  14.865  1.5889  1.9968 -0.1585
  133CHL1  H27B16101   1.720   3.516  14.849  0.2293 -0.1649  2.1253
  133CHL1  H27C16102   1.671   3.380  14.940  0.3074  1.3568 -0.4386
  134CHL1    C316103   6.692   3.580  13.242  0.9621  0.3822  0.2796
  134CHL1    H316104   6.802   3.571  13.228  0.7403  0.2971 -1.6817
  134CHL1    O316105   6.630   3.595  13.120  0.0058 -0.2034 -0.9439
  134CHL1   H3'16106   6.537   3.607  13.138  0.1824  0.9364 -0.7038
  134CHL1    C416107   6.643   3.448  13.304  0.3360  0.0052 -0.4435
  134CHL1   H4A16108   6.534   3.467  13.314 -0.1730 -2.4523 -0.6619
  134CHL1   H4B16109   6.660   3.374  13.223 -1.0420 -2.6240  1.5064
  134CHL1    C516110   6.702   3.414  13.438  0.4391 -0.0813  0.5746
  134CHL1    C616111   6.770   3.299  13.471 -0.0025  0.2377 -0.2945
  134CHL1    H616112   6.780   3.219  13.397  1.6240 -0.2242  0.3799
  134CHL1    C716113   6.826   3.256  13.605  0.7333 -0.4865  0.4635
  134CHL1   H7A16114   6.778   3.167  13.652 -0.1297 -0.0590  0.4007
  134CHL1   H7B16115   6.934   3.229  13.602  1.2680  1.2628  2.0711
  134CHL1    C816116   6.788   3.357  13.718 -0.0957 -1.0086  0.8233
  134CHL1    H816117   6.685   3.331  13.751  0.3371 -3.3887  0.4905
  134CHL1   C1416118   6.888   3.347  13.827 -0.5043  0.6207  0.4725
  134CHL1   H1416119   6.982   3.369  13.773 -0.6236  0.0758  0.0259
  134CHL1   C1516120   6.926   3.210  13.892  0.3003 -0.4209  0.0488
  134CHL1  H15A16121   6.825   3.174  13.920 -0.9869  2.7292 -0.0917
  134CHL1  H15B16122   6.983   3.142  13.825  1.5420 -1.3084  1.9305
  134CHL1   C1616123   6.995   3.243  14.024  0.6616 -0.1624  0.0262
  134CHL1  H16A16124   6.961   3.182  14.110  0.7480 -0.4631 -0.1525
  134CHL1  H16B16125   7.104   3.223  14.013  0.8003 -0.6157  1.8335
  134CHL1   C1716126   6.995   3.400  14.025 -0.1172 -0.2030 -0.3105
  134CHL1   H1716127   7.076   3.436  13.959  0.3199  0.5040  0.5888
  134CHL1   C1316128   6.880   3.449  13.944  0.4690 -0.9763  0.1849
  134CHL1   C1816129   6.753   3.431  14.036 -0.0151 -0.1310  0.0895
  134CHL1  H18A16130   6.743   3.324  14.068 -0.4010  0.2257  1.2278
  134CHL1  H18B16131   6.772   3.490  14.128 -1.2353 -0.1482  0.3655
  134CHL1  H18C16132   6.662   3.461  13.980  0.3682 -0.6697 -0.8451
  134CHL1   C1216133   6.886   3.590  13.887 -0.0353  0.5766 -0.3222
  134CHL1  H12A16134   6.889   3.664  13.970 -1.4098  0.6755 -0.3368
  134CHL1  H12B16135   6.981   3.597  13.830 -0.2969 -1.6788 -1.1207
  134CHL1   C1116136   6.780   3.609  13.776 -0.0723  0.0056 -0.1019
  134CHL1  H11A16137   6.680   3.615  13.824 -0.4571 -2.5495 -0.4769
  134CHL1  H11B16138   6.808   3.706  13.729 -0.0754 -0.2611 -0.6574
  134CHL1    C916139   6.787   3.503  13.662  0.0771  0.3133 -0.1243
  134CHL1    H916140   6.887   3.510  13.616  0.1816  1.7354  0.2448
  134CHL1   C1016141   6.687   3.526  13.543 -0.1798  0.0929 -0.5775
  134CHL1   C1916142   6.545   3.531  13.587  0.0333  0.1850 -0.1201
  134CHL1  H19A16143   6.481   3.559  13.501 -0.8191 -0.3511  0.3264
  134CHL1  H19B16144   6.525   3.424  13.612  0.3654 -0.0033 -0.6418
  134CHL1  H19C16145   6.520   3.594  13.675  1.9681 -0.7749  1.1896
  134CHL1    C116146   6.735   3.663  13.470 -0.2093  0.2745 -0.5511
  134CHL1   H1A16147   6.719   3.750  13.538 -0.6390  1.4034 -2.0466
  134CHL1   H1B16148   6.845   3.661  13.453  0.0459  1.7863  0.6260
  134CHL1    C216149   6.667   3.692  13.339 -0.2696  0.3917 -0.2392
  134CHL1   H2A16150   6.707   3.790  13.305  1.9055 -0.4028 -0.1316
  134CHL1   H2B16151   6.558   3.705  13.361 -0.5967  0.1453 -1.6205
  134CHL1   C2016152   7.040   3.476  14.151  0.0276  0.4167 -0.9521
  134CHL1   H2016153   6.998   3.579  14.142 -2.1245 -0.5257 -2.7082
  134CHL1   C2116154   7.195   3.491  14.164  0.5016  0.1971  0.0570
  134CHL1  H21A16155   7.225   3.553  14.251 -0.0471  0.9520 -0.2905
  134CHL1  H21B16156   7.247   3.519  14.069  0.6757  0.0094  0.0935
  134CHL1  H21C16157   7.232   3.387  14.179  1.7963  0.5895 -0.2574
  134CHL1   C2216158   6.983   3.415  14.283  0.1311  0.1423 -0.7272
  134CHL1  H22A16159   6.890   3.358  14.259  0.6297 -0.4243 -1.3543
  134CHL1  H22B16160   7.053   3.334  14.313  0.0564  0.2267 -0.3250
  134CHL1   C2316161   6.959   3.518  14.399  0.1142 -0.1848 -0.8886
  134CHL1  H23A16162   7.056   3.566  14.425  1.5732 -3.1306 -0.4311
  134CHL1  H23B16163   6.897   3.604  14.367  0.7698  0.6851  0.0998
  134CHL1   C2416164   6.913   3.450  14.531 -0.4799  0.4542  0.1491
  134CHL1  H24A16165   6.816   3.404  14.501 -1.0209  0.5335  1.6829
  134CHL1  H24B16166   6.987   3.376  14.567 -2.5194  0.2308  4.5139
  134CHL1   C2516167   6.898   3.540  14.655  0.1052 -0.2546 -0.6009
  134CHL1   H2516168   6.836   3.626  14.621 -0.2813 -1.1312 -2.2109
  134CHL1   C2616169   6.836   3.454  14.763 -0.3586  1.0814 -0.1326
  134CHL1  H26A16170   6.728   3.444  14.737 -0.4763 -0.3011  0.7970
  134CHL1  H26B16171   6.870   3.349  14.753 -1.3653  0.8891 -2.2187
  134CHL1  H26C16172   6.840   3.498  14.865 -1.5035  1.2287 -0.1334
  134CHL1   C2716173   7.031   3.592  14.708 -0.0436 -0.3694 -0.3839
  134CHL1  H27A16174   7.015   3.639  14.807  1.2807 -0.1103 -0.2764
  134CHL1  H27B16175   7.108   3.513  14.722  0.5048  0.2069 -0.1030
  134CHL1  H27C16176   7.071   3.665  14.634 -0.2300 -0.7281 -0.8418
  135CHL1    C316177   7.536   4.188  13.639  0.4324 -0.1962 -0.6915
  135CHL1    H316178   7.478   4.256  13.706  3.6396 -0.1661  2.3035
  135CHL1    O316179   7.537   4.241  13.510 -0.1494  0.2904 -0.5250
  135CHL1   H3'16180   7.565   4.166  13.456  0.2473  1.5286 -2.1083
  135CHL1    C416181   7.685   4.197  13.693  0.1002 -0.4333  0.2184
  135CHL1   H4A16182   7.743   4.153  13.610  0.7753  3.2096 -1.4080
  135CHL1   H4B16183   7.720   4.302  13.692 -1.1042 -0.0087  0.4459
  135CHL1    C516184   7.697   4.139  13.830  0.4197  0.4306  0.0897
  135CHL1    C616185   7.754   4.212  13.930 -0.4665 -0.5012 -0.0280
  135CHL1    H616186   7.792   4.314  13.909  1.6840 -1.7221 -2.7487
  135CHL1    C716187   7.774   4.158  14.068  0.8231 -0.5298 -0.3499
  135CHL1   H7A16188   7.869   4.183  14.119  0.1950  0.1007  0.5443
  135CHL1   H7B16189   7.690   4.199  14.128 -2.2900 -2.8365 -2.7831
  135CHL1    C816190   7.751   4.008  14.084 -0.3441  0.4473 -0.5445
  135CHL1    H816191   7.846   3.962  14.048  0.1732  0.6134  0.5523
  135CHL1   C1416192   7.723   3.963  14.229 -0.2414 -0.5400 -0.1768
  135CHL1   H1416193   7.631   4.017  14.259  0.4537  0.7253 -0.2771
  135CHL1   C1516194   7.825   4.000  14.342 -0.4018 -0.1064  0.0592
  135CHL1  H15A16195   7.934   3.992  14.321 -0.0618  0.5202  1.4435
  135CHL1  H15B16196   7.807   4.103  14.380 -0.7113 -0.7027  1.5976
  135CHL1   C1616197   7.793   3.902  14.460 -0.0740  0.4747 -0.0112
  135CHL1  H16A16198   7.890   3.854  14.487  0.5147  0.3319 -2.1799
  135CHL1  H16B16199   7.759   3.961  14.548  0.3097  1.2515 -0.3762
  135CHL1   C1716200   7.684   3.805  14.405  0.0358 -0.0321 -0.0015
  135CHL1   H1716201   7.591   3.852  14.444 -0.5818 -0.8237 -0.4807
  135CHL1   C1316202   7.695   3.816  14.254  0.1750  0.8828  0.6059
  135CHL1   C1816203   7.827   3.737  14.217  0.1057  0.1803 -0.0916
  135CHL1  H18A16204   7.813   3.627  14.210  4.3147 -0.4110 -3.2438
  135CHL1  H18B16205   7.860   3.770  14.116  1.8588  0.7145  0.6225
  135CHL1  H18C16206   7.913   3.771  14.279 -0.3580 -0.2920  0.8261
  135CHL1   C1216207   7.579   3.775  14.165 -0.2873 -0.0819  0.2488
  135CHL1  H12A16208   7.563   3.665  14.164 -0.9699  0.0107  0.7136
  135CHL1  H12B16209   7.491   3.827  14.208  0.0508  1.9477 -1.3619
  135CHL1   C1116210   7.592   3.810  14.020  0.1701  0.2431 -0.1367
  135CHL1  H11A16211   7.673   3.741  13.989 -0.6057 -1.4892  1.4654
  135CHL1  H11B16212   7.501   3.792  13.958 -0.3444  0.7486  0.4517
  135CHL1    C916213   7.632   3.960  13.999 -0.4457 -0.5055 -0.1854
  135CHL1    H916214   7.546   4.021  14.033 -1.3920 -1.8789 -0.0299
  135CHL1   C1016215   7.644   3.995  13.847 -0.2898 -0.2668  0.4232
  135CHL1   C1916216   7.745   3.899  13.773 -0.4311 -0.5089  0.0757
  135CHL1  H19A16217   7.720   3.792  13.785  0.1902 -0.5375  1.3295
  135CHL1  H19B16218   7.765   3.929  13.668 -0.0188  0.4422  0.4082
  135CHL1  H19C16219   7.844   3.921  13.820 -1.5486  3.4576  0.9395
  135CHL1    C116220   7.500   3.988  13.783  0.0833 -0.8875 -0.6252
  135CHL1   H1A16221   7.468   3.882  13.773  1.4863 -1.5064  0.9540
  135CHL1   H1B16222   7.432   4.038  13.855  1.1414 -1.9799  1.2183
  135CHL1    C216223   7.490   4.044  13.641 -0.0957  0.4139  0.2611
  135CHL1   H2A16224   7.385   4.037  13.607  0.7304 -0.5266 -2.3307
  135CHL1   H2B16225   7.555   3.977  13.580 -0.1836  0.5842 -0.0210
  135CHL1   C2016226   7.687   3.665  14.467 -0.0153 -0.4510  0.0392
  135CHL1   H2016227   7.771   3.603  14.428 -0.2285 -0.0442 -1.1272
  135CHL1   C2116228   7.558   3.584  14.437 -0.6119  0.6627  0.5042
  135CHL1  H21A16229   7.468   3.645  14.458 -0.3037  0.8230  1.3731
  135CHL1  H21B16230   7.556   3.493  14.499  0.5408  1.5007  1.8147
  135CHL1  H21C16231   7.560   3.560  14.328 -1.2147 -0.1953  0.6741
  135CHL1   C2216232   7.706   3.675  14.620 -0.7660 -0.4238  0.0357
  135CHL1  H22A16233   7.706   3.570  14.656 -0.2856 -1.0850 -1.7574
  135CHL1  H22B16234   7.799   3.732  14.642 -0.9876  0.2452 -0.6906
  135CHL1   C2316235   7.594   3.738  14.709  0.3073 -0.1123  0.2194
  135CHL1  H23A16236   7.596   3.847  14.688  1.6630 -0.2213 -0.3449
  135CHL1  H23B16237   7.497   3.688  14.686  0.5799 -0.2611 -0.6705
  135CHL1   C2416238   7.623   3.713  14.854 -0.3371  0.3017  0.1684
  135CHL1  H24A16239   7.646   3.606  14.874 -0.0678  0.5237  1.0964
  135CHL1  H24B16240   7.723   3.742  14.891 -1.0648  1.1303  1.5854
  135CHL1   C2516241   7.526   3.782  14.955 -0.5639  0.3007 -0.3778
  135CHL1   H2516242   7.531   3.893  14.951  0.2687  0.2966  0.1520
  135CHL1   C2616243   7.380   3.745  14.923  0.3135  0.9846 -0.0004
  135CHL1  H26A16244   7.353   3.778  14.821  3.3071  0.6306 -0.9939
  135CHL1  H26B16245   7.358   3.636  14.919 -0.9188  1.1989  0.3851
  135CHL1  H26C16246   7.307   3.793  14.992 -0.6076 -1.0017  0.4984
  135CHL1   C2716247   7.562   3.745  15.102 -0.6483 -0.0081  0.1078
  135CHL1  H27A16248   7.470   3.748  15.165 -0.7060  0.6098  0.0016
  135CHL1  H27B16249   7.592   3.638  15.107 -2.0606 -0.4179  0.3815
  135CHL1  H27C16250   7.640   3.815  15.140  0.2022  0.5070 -2.4185
  136CHL1    C316251   5.632   1.637  13.259  0.3636  0.3272  0.0811
  136CHL1    H316252   5.615   1.527  13.260  1.6826  0.0638 -1.6418
  136CHL1    O316253   5.635   1.677  13.124 -0.3207  0.1314 -0.0966
  136CHL1   H3'16254   5.552   1.644  13.088 -1.6120  2.1495  0.8844
  136CHL1    C416255   5.513   1.713  13.321 -0.4333  0.2531 -0.1631
  136CHL1   H4A16256   5.538   1.821  13.308 -0.8151  0.6675  2.1332
  136CHL1   H4B16257   5.419   1.685  13.269 -0.3615 -2.3006  0.9574
  136CHL1    C516258   5.498   1.701  13.473 -0.5326  0.2027 -0.4287
  136CHL1    C616259   5.380   1.671  13.525 -0.3755 -0.6489  0.5809
  136CHL1    H616260   5.296   1.657  13.455 -0.6236  1.3884  0.4029
  136CHL1    C716261   5.354   1.650  13.674 -0.1148  0.1764  0.0081
  136CHL1   H7A16262   5.273   1.720  13.705 -0.3224 -0.0759  0.0344
  136CHL1   H7B16263   5.326   1.544  13.688 -0.1597 -0.3431 -3.3558
  136CHL1    C816264   5.471   1.680  13.774 -0.4971 -0.1829 -0.2368
  136CHL1    H816265   5.474   1.791  13.774 -1.5770 -0.1360  0.5415
  136CHL1   C1416266   5.462   1.608  13.905 -0.1189 -0.3589 -0.0731
  136CHL1   H1416267   5.461   1.499  13.880 -1.1900 -0.0962 -1.3043
  136CHL1   C1516268   5.329   1.625  13.984  0.0033  0.5544 -0.4041
  136CHL1  H15A16269   5.286   1.725  13.966 -1.4719  0.4465  2.0781
  136CHL1  H15B16270   5.260   1.548  13.943  3.4541 -2.5352 -0.9251
  136CHL1   C1616271   5.366   1.586  14.126 -0.8339  0.2343 -1.1591
  136CHL1  H16A16272   5.334   1.664  14.199 -2.2713  0.0682 -1.5739
  136CHL1  H16B16273   5.308   1.497  14.158  0.5153 -0.4751 -0.6286
  136CHL1   C1716274   5.523   1.549  14.128  0.0323 -0.1604 -0.0900
  136CHL1   H1716275   5.537   1.445  14.094 -2.0504  0.3786 -2.9147
  136CHL1   C1316276   5.576   1.626  14.003 -0.1305  0.1891 -0.2666
  136CHL1   C1816277   5.591   1.773  14.052  0.6544 -0.7677 -0.4013
  136CHL1  H18A16278   5.496   1.816  14.090  0.6847 -0.2044 -0.9573
  136CHL1  H18B16279   5.674   1.792  14.124 -0.4828 -0.3259  0.8485
  136CHL1  H18C16280   5.621   1.831  13.963  1.7763  2.7352  2.0580
  136CHL1   C1216281   5.706   1.583  13.941 -0.3681 -0.5042  0.4536
  136CHL1  H12A16282   5.788   1.614  14.010 -1.6368 -0.4665  2.0134
  136CHL1  H12B16283   5.706   1.473  13.931 -0.2384 -0.4551 -0.0985
  136CHL1   C1116284   5.724   1.654  13.800 -0.1040  0.2791  0.0486
  136CHL1  H11A16285   5.766   1.756  13.808  2.8965 -0.7356 -1.1893
  136CHL1  H11B16286   5.812   1.602  13.755 -1.1362 -2.0279  0.5572
  136CHL1    C916287   5.605   1.636  13.709 -0.5014  0.1418 -0.6370
  136CHL1    H916288   5.593   1.527  13.691 -1.2049  0.2477 -0.8647
  136CHL1   C1016289   5.626   1.700  13.565 -0.3185 -0.3949  0.0842
  136CHL1   C1916290   5.660   1.850  13.577 -0.2613 -0.4039  0.2594
  136CHL1  H19A16291   5.753   1.875  13.633 -0.1986  1.9945 -0.7985
  136CHL1  H19B16292   5.674   1.899  13.479 -1.8434 -3.0113 -1.3760
  136CHL1  H19C16293   5.575   1.905  13.621 -0.3782 -0.6542  0.3486
  136CHL1    C116294   5.738   1.631  13.484  0.0294 -0.3487 -0.2481
  136CHL1   H1A16295   5.836   1.641  13.535  0.7161  0.6810 -1.6995
  136CHL1   H1B16296   5.727   1.521  13.491  3.8436 -0.7846  2.5345
  136CHL1    C216297   5.758   1.664  13.333  0.2138 -0.1373 -0.4061
  136CHL1   H2A16298   5.845   1.610  13.290  1.3579  1.1421  0.2378
  136CHL1   H2B16299   5.777   1.770  13.306 -1.7010 -0.1190 -1.9077
  136CHL1   C2016300   5.581   1.566  14.277  0.2148 -0.1217  0.5177
  136CHL1   H2016301   5.613   1.672  14.286  4.0611 -1.2131  1.7320
  136CHL1   C2116302   5.711   1.493  14.284  0.1625  0.5265  0.5926
  136CHL1  H21A16303   5.682   1.385  14.288 -1.2154  0.6583 -2.5920
  136CHL1  H21B16304   5.766   1.515  14.378 -0.9745  1.8068  0.9875
  136CHL1  H21C16305   5.776   1.502  14.195 -0.4067 -0.7044  0.0183
  136CHL1   C2216306   5.479   1.540  14.383  0.1158  0.5552  0.4041
  136CHL1  H22A16307   5.398   1.617  14.381 -0.4952 -0.0328  1.4904
  136CHL1  H22B16308   5.433   1.441  14.366  0.8657  0.4072 -0.9093
  136CHL1   C2316309   5.526   1.530  14.525 -0.3618  0.3305 -0.2054
  136CHL1  H23A16310   5.594   1.442  14.525 -3.6380 -2.4535  1.0637
  136CHL1  H23B16311   5.580   1.622  14.555  2.0478 -0.7837 -0.9026
  136CHL1   C2416312   5.411   1.503  14.628 -0.2174  0.4749 -0.7029
  136CHL1  H24A16313   5.338   1.583  14.603 -1.8809 -0.4591  0.9155
  136CHL1  H24B16314   5.365   1.404  14.609 -3.9943  2.0279 -0.5856
  136CHL1   C2516315   5.462   1.515  14.775 -0.7867  0.2441  0.5902
  136CHL1   H2516316   5.519   1.610  14.790 -0.5497  0.2680 -0.4291
  136CHL1   C2616317   5.357   1.519  14.887 -0.0294 -0.3298  0.4488
  136CHL1  H26A16318   5.268   1.583  14.871 -0.7067 -1.3332  0.0441
  136CHL1  H26B16319   5.312   1.418  14.899 -0.2975 -0.2807 -0.1114
  136CHL1  H26C16320   5.407   1.552  14.980  0.4582  0.2575 -0.0158
  136CHL1   C2716321   5.551   1.403  14.809  0.1347  0.0514 -0.0034
  136CHL1  H27A16322   5.498   1.306  14.817  0.0695  0.0485 -0.4223
  136CHL1  H27B16323   5.622   1.401  14.723 -0.2381  1.7323 -0.3872
  136CHL1  H27C16324   5.607   1.424  14.902  1.2984  1.1398 -0.9040
  137CHL1    C316325   1.325   1.601  13.439  0.4121 -0.5047  0.7746
  137CHL1    H316326   1.313   1.491  13.432  1.0187 -0.6478  1.7329
  137CHL1    O316327   1.255   1.675  13.336  0.2428 -0.0138 -0.4423
  137CHL1   H3'16328   1.280   1.768  13.341 -0.7221  0.1898  1.2674
  137CHL1    C416329   1.252   1.638  13.564 -0.2465 -0.7126 -0.8586
  137CHL1   H4A16330   1.245   1.748  13.577 -3.1973 -0.7404 -1.3763
  137CHL1   H4B16331   1.144   1.615  13.552  0.1631 -2.7241 -1.0617
  137CHL1    C516332   1.310   1.575  13.688  0.3434 -0.4575 -0.9584
  137CHL1    C616333   1.234   1.511  13.781  0.7158  0.2705 -0.0278
  137CHL1    H616334   1.124   1.509  13.772  0.3808 -0.4589  3.1111
  137CHL1    C716335   1.286   1.444  13.905  0.1151  0.3657  0.5128
  137CHL1   H7A16336   1.222   1.470  13.993 -0.7617 -0.1022  0.0264
  137CHL1   H7B16337   1.288   1.337  13.878 -1.0520  0.3802  0.3216
  137CHL1    C816338   1.421   1.508  13.944 -0.7025  0.9198  0.2942
  137CHL1    H816339   1.405   1.610  13.986 -0.2075 -0.2606  3.6727
  137CHL1   C1416340   1.479   1.432  14.057  0.1146  0.1229 -0.0017
  137CHL1   H1416341   1.474   1.325  14.029 -0.5275  0.4596 -1.2817
  137CHL1   C1516342   1.394   1.416  14.185 -0.2950 -0.4396 -0.0888
  137CHL1  H15A16343   1.336   1.507  14.211 -0.1456 -0.6134  0.8836
  137CHL1  H15B16344   1.322   1.331  14.179 -1.5088  0.5533 -0.1639
  137CHL1   C1616345   1.494   1.387  14.294  0.5516 -0.4028 -0.5423
  137CHL1  H16A16346   1.494   1.469  14.369  0.5797 -0.5224 -0.4109
  137CHL1  H16B16347   1.467   1.300  14.357  0.7603 -0.2032 -0.1696
  137CHL1   C1716348   1.629   1.372  14.222  0.2227  0.1334 -0.5477
  137CHL1   H1716349   1.640   1.267  14.187  0.7425 -0.7692  2.0803
  137CHL1   C1316350   1.622   1.467  14.098 -0.0115 -0.2962 -0.9228
  137CHL1   C1816351   1.636   1.621  14.143  0.2235  1.2145 -0.3221
  137CHL1  H18A16352   1.592   1.685  14.064 -0.4872  0.2913 -0.6942
  137CHL1  H18B16353   1.579   1.656  14.232 -1.0204  0.5160 -0.8147
  137CHL1  H18C16354   1.743   1.651  14.151  1.2675 -1.3361 -2.9602
  137CHL1   C1216355   1.707   1.439  13.980 -0.8094  0.0506 -0.0046
  137CHL1  H12A16356   1.812   1.461  14.010 -1.2631  0.7411  1.1648
  137CHL1  H12B16357   1.695   1.332  13.952  0.4914 -0.4169  1.1090
  137CHL1   C1116358   1.665   1.527  13.860 -0.2198 -0.1361  0.1875
  137CHL1  H11A16359   1.694   1.631  13.886  0.5300 -0.0521 -0.9338
  137CHL1  H11B16360   1.718   1.485  13.772 -2.0822 -0.1860 -0.9422
  137CHL1    C916361   1.521   1.505  13.820  0.8619 -0.5662 -0.2190
  137CHL1    H916362   1.513   1.398  13.793  0.7613 -0.9056  1.0592
  137CHL1   C1016363   1.465   1.590  13.700  0.2473 -0.1812 -0.1427
  137CHL1   C1916364   1.503   1.735  13.739  0.0446 -1.0635  0.4735
  137CHL1  H19A16365   1.607   1.759  13.708 -0.3466  2.5569  1.5334
  137CHL1  H19B16366   1.449   1.809  13.675  1.4201  1.0901  1.7027
  137CHL1  H19C16367   1.487   1.758  13.846 -0.4093  2.2946 -0.1907
  137CHL1    C116368   1.529   1.551  13.571 -0.0043  0.4642 -0.1356
  137CHL1   H1A16369   1.640   1.550  13.566  0.0094 -1.6459 -0.0868
  137CHL1   H1B16370   1.506   1.445  13.549  2.1855 -0.1318  0.2496
  137CHL1    C216371   1.475   1.631  13.454  0.5054  0.3619  0.0707
  137CHL1   H2A16372   1.540   1.610  13.367  0.3478  0.0653  0.0222
  137CHL1   H2B16373   1.489   1.737  13.483  0.3181  0.5645 -0.5806
  137CHL1   C2016374   1.745   1.385  14.319 -0.3776 -0.0381 -0.1789
  137CHL1   H2016375   1.740   1.484  14.369  0.9849  0.6129 -1.2593
  137CHL1   C2116376   1.878   1.380  14.240 -0.0740  0.3748  0.3439
  137CHL1  H21A16377   1.894   1.475  14.186  3.0165 -0.6185 -0.7055
  137CHL1  H21B16378   1.885   1.293  14.172  1.8249 -0.7363  1.8384
  137CHL1  H21C16379   1.955   1.366  14.320 -2.4419  0.8124  2.8582
  137CHL1   C2216380   1.748   1.279  14.432  0.2122 -0.7863  0.6212
  137CHL1  H22A16381   1.645   1.271  14.473  0.4307 -0.1926  1.3165
  137CHL1  H22B16382   1.768   1.179  14.390  1.9005 -0.3955  0.4152
  137CHL1   C2316383   1.833   1.311  14.554  0.2155  0.7699 -0.5021
  137CHL1  H23A16384   1.927   1.351  14.509 -1.2295  2.7102 -1.9283
  137CHL1  H23B16385   1.782   1.388  14.615  0.8120  0.1436  0.8351
  137CHL1   C2416386   1.856   1.188  14.644 -0.2443 -0.3007 -0.0076
  137CHL1  H24A16387   1.752   1.152  14.659 -0.5084  1.4161  3.1876
  137CHL1  H24B16388   1.921   1.115  14.590  3.0177  2.5614 -0.3351
  137CHL1   C2516389   1.907   1.219  14.782  0.2136 -0.3136 -0.0605
  137CHL1   H2516390   1.862   1.315  14.815  1.2908  0.1621  0.0813
  137CHL1   C2616391   1.876   1.102  14.874  0.1404  0.1758  0.3635
  137CHL1  H26A16392   1.914   1.007  14.831  0.8039  0.8446 -0.5701
  137CHL1  H26B16393   1.919   1.139  14.970 -1.7948  2.8116  0.3289
  137CHL1  H26C16394   1.766   1.103  14.887 -0.1894 -0.4290 -1.9556
  137CHL1   C2716395   2.059   1.252  14.782  0.0290 -0.0275  0.2816
  137CHL1  H27A16396   2.090   1.276  14.886 -2.1268  1.0677  0.7271
  137CHL1  H27B16397   2.120   1.164  14.752 -1.7505 -1.4886  0.7782
  137CHL1  H27C16398   2.087   1.341  14.722 -0.5254 -0.6884 -1.0068
  138CHL1    C316399   6.710   0.865  13.542 -0.2320 -0.3117 -0.3735
  138CHL1    H316400   6.657   0.778  13.586  0.5564  0.8080  3.1056
  138CHL1    O316401   6.730   0.849  13.406 -0.4633 -0.0174  0.0683
  138CHL1   H3'16402   6.643   0.853  13.365 -1.4527 -2.7141  1.6151
  138CHL1    C416403   6.630   0.990  13.564  1.1891  0.7385 -0.1199
  138CHL1   H4A16404   6.688   1.081  13.537  0.0597  1.5894  0.2352
  138CHL1   H4B16405   6.533   0.995  13.510  0.5610 -1.1179  0.7521
  138CHL1    C516406   6.590   0.992  13.711  0.1283 -0.2336 -0.0399
  138CHL1    C616407   6.467   0.975  13.746 -0.1014 -0.1300 -0.1368
  138CHL1    H616408   6.384   0.969  13.675 -0.3697 -2.0999  0.3008
  138CHL1    C716409   6.432   0.964  13.898  0.2645 -0.0446  0.5783
  138CHL1   H7A16410   6.338   1.016  13.927  1.4918  1.0793  2.7542
  138CHL1   H7B16411   6.418   0.857  13.927  1.3454 -0.5618 -0.6981
  138CHL1    C816412   6.551   1.014  14.001 -0.1404 -0.0350  0.3286
  138CHL1    H816413   6.546   1.125  13.989  2.0694 -0.0941 -1.8938
  138CHL1   C1416414   6.524   0.980  14.141 -0.2876  0.1505  0.0086
  138CHL1   H1416415   6.523   0.868  14.144  0.5526  0.1415  2.3252
  138CHL1   C1516416   6.388   1.022  14.207 -0.8761  0.0159 -0.5021
  138CHL1  H15A16417   6.380   1.128  14.174  0.6061  0.5242  0.6524
  138CHL1  H15B16418   6.302   0.967  14.162  0.7699 -2.0332 -1.3479
  138CHL1   C1616419   6.416   1.015  14.359 -0.1954 -0.3701  0.3867
  138CHL1  H16A16420   6.384   1.112  14.402 -1.5582 -0.7656  0.3017
  138CHL1  H16B16421   6.353   0.933  14.399  0.2584 -1.2971 -0.7437
  138CHL1   C1716422   6.566   0.980  14.380  0.3083 -0.1313  0.0130
  138CHL1   H1716423   6.570   0.869  14.389  0.0489  0.0305  3.6960
  138CHL1   C1316424   6.629   1.021  14.248 -0.0910  0.1317  0.7394
  138CHL1   C1816425   6.648   1.178  14.246  0.2009  0.5294  0.7251
  138CHL1  H18A16426   6.692   1.215  14.151  0.8247  0.3591  0.9424
  138CHL1  H18B16427   6.563   1.231  14.294 -2.1534 -2.1902 -0.1878
  138CHL1  H18C16428   6.733   1.195  14.316  0.2503 -2.3099  1.4848
  138CHL1   C1216429   6.764   0.966  14.206  0.1123 -0.4646  0.0116
  138CHL1  H12A16430   6.841   0.999  14.278  1.3948  0.7546 -1.8429
  138CHL1  H12B16431   6.759   0.855  14.212  1.7204 -0.5944 -0.6781
  138CHL1   C1116432   6.803   0.995  14.058 -0.1803 -0.4516 -0.3405
  138CHL1  H11A16433   6.825   1.104  14.050  2.7391 -0.9809 -0.6506
  138CHL1  H11B16434   6.892   0.933  14.035 -0.9893 -1.7124 -0.1437
  138CHL1    C916435   6.689   0.958  13.955 -0.0260 -0.3712 -0.2933
  138CHL1    H916436   6.671   0.849  13.963  0.9944 -0.4930  0.5129
  138CHL1   C1016437   6.717   0.998  13.808  0.4938  0.2284 -0.6248
  138CHL1   C1916438   6.768   1.145  13.798  0.5184  0.4329 -0.0118
  138CHL1  H19A16439   6.782   1.182  13.694 -0.3930 -0.3000 -0.4046
  138CHL1  H19B16440   6.692   1.215  13.839  0.1071  0.3521 -0.6269
  138CHL1  H19C16441   6.856   1.172  13.861  0.0690 -0.8351  1.2033
  138CHL1    C116442   6.834   0.903  13.756 -0.5363 -0.2061 -0.5514
  138CHL1   H1A16443   6.932   0.940  13.794 -1.8161  1.4317  1.3411
  138CHL1   H1B16444   6.820   0.799  13.792 -1.6080  0.7319  1.9323
  138CHL1    C216445   6.849   0.886  13.610  0.7435 -0.8634  0.0572
  138CHL1   H2A16446   6.928   0.810  13.590  2.1587  0.6017 -0.1644
  138CHL1   H2B16447   6.883   0.983  13.568 -0.1720  0.1617  1.5766
  138CHL1   C2016448   6.611   1.041  14.512  0.0830  0.1485  0.3644
  138CHL1   H2016449   6.611   1.152  14.500  1.5535 -0.0362 -2.3423
  138CHL1   C2116450   6.766   1.008  14.533 -0.7098 -0.1051  0.2121
  138CHL1  H21A16451   6.800   1.029  14.637  0.9469  1.0617 -0.5221
  138CHL1  H21B16452   6.820   1.083  14.471 -1.7190  1.5092  1.1779
  138CHL1  H21C16453   6.790   0.902  14.511  1.9571  0.1803  1.4000
  138CHL1   C2216454   6.539   1.004  14.635 -0.5587  0.7879 -0.6580
  138CHL1  H22A16455   6.581   1.064  14.719 -2.3003  0.1385  0.7399
  138CHL1  H22B16456   6.433   1.034  14.621 -0.5198  2.1580  1.5776
  138CHL1   C2316457   6.557   0.859  14.676 -0.0251  0.3628 -0.0997
  138CHL1  H23A16458   6.530   0.792  14.592 -3.5766  0.1336  1.0792
  138CHL1  H23B16459   6.663   0.831  14.696 -0.1586  0.5688  0.9451
  138CHL1   C2416460   6.465   0.816  14.799  0.4277  0.3889  0.4218
  138CHL1  H24A16461   6.499   0.873  14.889 -1.3284  0.8805  0.8051
  138CHL1  H24B16462   6.360   0.836  14.770  0.2160 -1.0277  0.1441
  138CHL1   C2516463   6.474   0.663  14.839  0.3898 -0.5014 -0.9276
  138CHL1   H2516464   6.436   0.605  14.752  1.0634  0.5436 -1.9631
  138CHL1   C2616465   6.615   0.618  14.882  0.1381 -0.1061  0.3407
  138CHL1  H26A16466   6.684   0.623  14.795 -0.1187  0.6162  0.1656
  138CHL1  H26B16467   6.647   0.687  14.963  1.8503 -1.4104  0.8386
  138CHL1  H26C16468   6.627   0.518  14.928  2.7805 -0.4551 -0.9373
  138CHL1   C2716469   6.372   0.624  14.945  0.3284 -0.6619  0.8953
  138CHL1  H27A16470   6.362   0.514  14.955  0.6189 -0.6484  1.3726
  138CHL1  H27B16471   6.381   0.685  15.038 -0.0502  0.6649  0.0968
  138CHL1  H27C16472   6.272   0.656  14.908  0.4216  1.5015  2.2978
  139CHL1    C316473   0.958   0.147  13.486 -0.3697 -0.4395  0.1731
  139CHL1    H316474   0.902   0.080  13.417 -1.5721 -0.3650  1.0445
  139CHL1    O316475   1.071   0.211  13.420  0.0550  0.0646 -0.0558
  139CHL1   H3'16476   1.107   0.270  13.487  1.4997 -1.8178  0.9195
  139CHL1    C416477   0.870   0.267  13.523  0.5377  0.0032 -0.3322
  139CHL1   H4A16478   0.934   0.351  13.559  1.5863 -0.2003 -1.6399
  139CHL1   H4B16479   0.831   0.305  13.426 -1.2274 -2.2666 -0.6042
  139CHL1    C516480   0.755   0.227  13.618 -0.2546 -0.3318 -0.3310
  139CHL1    C616481   0.626   0.253  13.587  0.9864 -0.0567 -0.2128
  139CHL1    H616482   0.597   0.316  13.502 -1.6519 -0.5955  0.2016
  139CHL1    C716483   0.507   0.220  13.672  0.0569  0.3313  0.7832
  139CHL1   H7A16484   0.437   0.300  13.703 -1.4402 -0.3871 -0.6020
  139CHL1   H7B16485   0.445   0.143  13.623  0.0945  0.8033 -0.0346
  139CHL1    C816486   0.546   0.172  13.815 -0.0141  0.1101  0.0538
  139CHL1    H816487   0.578   0.256  13.880  0.6167  1.3308 -1.7487
  139CHL1   C1416488   0.419   0.096  13.871  0.4129  0.2844 -0.7571
  139CHL1   H1416489   0.398   0.014  13.799 -0.8619 -0.6708  0.6483
  139CHL1   C1516490   0.281   0.168  13.884  0.0811  0.1601 -0.5031
  139CHL1  H15A16491   0.300   0.266  13.933 -1.7318  1.2500 -1.8665
  139CHL1  H15B16492   0.241   0.163  13.781 -0.6491 -3.1693 -0.1662
  139CHL1   C1616493   0.208   0.059  13.965 -0.1568 -0.2661 -0.3793
  139CHL1  H16A16494   0.144   0.109  14.041 -1.2869  0.1770 -1.5856
  139CHL1  H16B16495   0.131   0.001  13.909  0.7394 -0.5160 -1.3847
  139CHL1   C1716496   0.312  -0.044  14.020 -0.0980  0.6187 -0.0370
  139CHL1   H1716497   0.309  -0.135  13.955 -0.9351  0.4853  0.1758
  139CHL1   C1316498   0.447   0.024  14.005 -0.2911  0.2105 -0.3947
  139CHL1   C1816499   0.465   0.130  14.108 -0.4488 -1.0481 -0.0605
  139CHL1  H18A16500   0.469   0.085  14.209 -1.9871  0.9764  0.9912
  139CHL1  H18B16501   0.554   0.196  14.103 -0.5060 -0.8672  1.0549
  139CHL1  H18C16502   0.391   0.213  14.113  2.5677  1.9501 -1.1069
  139CHL1   C1216503   0.569  -0.062  13.996  0.2927 -0.1237  0.2525
  139CHL1  H12A16504   0.594  -0.104  14.096  0.2050  1.2461  0.8641
  139CHL1  H12B16505   0.546  -0.134  13.915 -0.0814  0.0337  0.2188
  139CHL1   C1116506   0.693   0.021  13.949  0.2186  0.5144 -0.5385
  139CHL1  H11A16507   0.719   0.085  14.036 -0.2224  0.6883 -0.5293
  139CHL1  H11B16508   0.773  -0.051  13.925  2.1827  2.5319 -0.3866
  139CHL1    C916509   0.667   0.083  13.812 -0.0488  0.4247  0.9840
  139CHL1    H916510   0.639   0.007  13.735 -0.0367  0.5781  0.8268
  139CHL1   C1016511   0.789   0.147  13.741 -0.1307 -0.8650  0.8753
  139CHL1   C1916512   0.854   0.253  13.834  0.2322  0.8877 -0.0168
  139CHL1  H19A16513   0.948   0.303  13.802 -0.1553  0.5856 -1.7129
  139CHL1  H19B16514   0.775   0.326  13.860 -0.5602 -0.4349  1.4468
  139CHL1  H19C16515   0.876   0.199  13.929  0.4377  0.1493 -0.4755
  139CHL1    C116516   0.900   0.034  13.702 -0.0869 -0.2528  0.1783
  139CHL1   H1A16517   0.939  -0.011  13.796  0.4938 -1.4371 -0.5898
  139CHL1   H1B16518   0.856  -0.056  13.654  1.9627 -2.4509  2.0973
  139CHL1    C216519   1.015   0.074  13.605 -0.5148  0.0059  0.0303
  139CHL1   H2A16520   1.071  -0.010  13.559  1.3505  3.1378 -4.0688
  139CHL1   H2B16521   1.098   0.127  13.655 -0.0033 -0.2491 -0.5426
  139CHL1   C2016522   0.267  -0.087  14.154  0.3938  0.8208  0.1020
  139CHL1   H2016523   0.242  -0.004  14.223 -2.6450 -1.2672  1.7356
  139CHL1   C2116524   0.371  -0.183  14.228  0.4410  0.0841 -0.3234
  139CHL1  H21A16525   0.458  -0.131  14.273  0.7534 -0.8648  0.1965
  139CHL1  H21B16526   0.390  -0.257  14.148 -1.6735  0.4812 -1.2645
  139CHL1  H21C16527   0.326  -0.235  14.315  1.0166 -0.6966 -0.4910
  139CHL1   C2216528   0.134  -0.169  14.143 -0.3354 -0.1662  0.1321
  139CHL1  H22A16529   0.059  -0.111  14.085  0.2618 -0.2858 -0.7859
  139CHL1  H22B16530   0.164  -0.263  14.091  2.7469 -0.0061  1.4027
  139CHL1   C2316531   0.070  -0.215  14.282 -0.1275 -0.1223  0.4279
  139CHL1  H23A16532  -0.023  -0.270  14.256 -0.6021  1.1191 -0.5700
  139CHL1  H23B16533   0.130  -0.296  14.329 -1.1316 -1.7556 -0.9745
  139CHL1   C2416534   0.033  -0.091  14.362  0.5711  0.2949 -0.4608
  139CHL1  H24A16535   0.125  -0.037  14.395  0.4373  0.6255 -0.6277
  139CHL1  H24B16536  -0.029  -0.024  14.299 -2.0508 -0.6746  0.9662
  139CHL1   C2516537  -0.055  -0.122  14.483 -0.7835  0.5449 -0.1342
  139CHL1   H2516538   0.005  -0.196  14.541  0.7555 -0.8343 -3.2539
  139CHL1   C2616539  -0.079   0.001  14.571 -0.3987  0.3998 -0.0811
  139CHL1  H26A16540  -0.109   0.078  14.497  0.8689 -0.8181 -1.9612
  139CHL1  H26B16541  -0.154  -0.018  14.650 -0.5638 -1.6036 -0.6431
  139CHL1  H26C16542   0.014   0.043  14.614 -0.4018 -1.1035  1.4857
  139CHL1   C2716543  -0.187  -0.181  14.444 -0.3975  0.1891  0.3233
  139CHL1  H27A16544  -0.183  -0.269  14.376 -1.2439  0.5505 -0.2156
  139CHL1  H27B16545  -0.245  -0.218  14.531 -1.7218 -0.3878 -0.7648
  139CHL1  H27C16546  -0.254  -0.108  14.393 -0.1821 -1.6210 -2.7964
  140CHL1    C316547   7.477   0.795  13.544  0.1005  0.6105  0.2802
  140CHL1    H316548   7.560   0.724  13.521 -0.6330  0.7648 -3.4399
  140CHL1    O316549   7.405   0.795  13.427  0.6643 -0.1167  0.3414
  140CHL1   H3'16550   7.318   0.826  13.452  0.3956 -0.6093  0.0349
  140CHL1    C416551   7.395   0.747  13.664  0.0539  0.0328  0.7344
  140CHL1   H4A16552   7.301   0.805  13.657 -0.0945 -0.2821 -0.0181
  140CHL1   H4B16553   7.368   0.640  13.649 -0.6372  0.3252 -0.1907
  140CHL1    C516554   7.466   0.777  13.798  0.1706  1.1075 -0.9378
  140CHL1    C616555   7.477   0.673  13.889 -0.2481 -0.0121  0.5529
  140CHL1    H616556   7.423   0.579  13.870 -1.5398  0.6423  0.9178
  140CHL1    C716557   7.545   0.693  14.014 -0.4481 -0.7568 -0.2461
  140CHL1   H7A16558   7.495   0.643  14.099 -0.1746  1.3705  1.2577
  140CHL1   H7B16559   7.648   0.652  14.001  0.7201  1.6874  0.5681
  140CHL1    C816560   7.564   0.840  14.057  0.4038 -0.4781  1.3235
  140CHL1    H816561   7.468   0.881  14.096 -0.0092 -1.7162  1.6787
  140CHL1   C1416562   7.669   0.856  14.165  0.9285  0.3527  0.1675
  140CHL1   H1416563   7.768   0.833  14.118  0.8132 -2.9987  1.2958
  140CHL1   C1516564   7.655   0.765  14.289 -0.6355  0.3594  0.1091
  140CHL1  H15A16565   7.554   0.764  14.336  0.2635 -0.6580  2.1389
  140CHL1  H15B16566   7.683   0.665  14.251 -1.1209  0.3327 -0.1868
  140CHL1   C1616567   7.746   0.832  14.394 -0.3539  0.2554 -0.3508
  140CHL1  H16A16568   7.684   0.832  14.486 -0.3472  1.3339 -0.3374
  140CHL1  H16B16569   7.839   0.772  14.409 -1.7934 -2.2903 -1.0834
  140CHL1   C1716570   7.779   0.976  14.338 -0.3971  0.1330 -0.1332
  140CHL1   H1716571   7.872   0.965  14.279  0.1741  1.4894  0.4924
  140CHL1   C1316572   7.683   0.997  14.219 -0.3235  0.0416  0.4601
  140CHL1   C1816573   7.548   1.052  14.274 -0.1269 -0.4245 -0.0697
  140CHL1  H18A16574   7.505   0.986  14.353 -3.0176  0.3433 -0.9057
  140CHL1  H18B16575   7.561   1.155  14.314 -2.3271 -0.0324 -0.2635
  140CHL1  H18C16576   7.471   1.053  14.195 -1.8215  0.4154  1.5160
  140CHL1   C1216577   7.733   1.086  14.106  0.5176  0.1691  0.0114
  140CHL1  H12A16578   7.743   1.195  14.128  0.7760 -0.0779  1.2281
  140CHL1  H12B16579   7.835   1.049  14.082  0.2095 -0.7653  0.1075
  140CHL1   C1116580   7.647   1.073  13.975  0.6240 -0.0293  0.1187
  140CHL1  H11A16581   7.565   1.146  13.992  0.8775  0.4858 -0.8005
  140CHL1  H11B16582   7.705   1.113  13.889 -1.5430  0.5104 -1.1762
  140CHL1    C916583   7.610   0.928  13.942 -0.2639 -0.6745 -0.0058
  140CHL1    H916584   7.706   0.875  13.920  0.6224  0.9098 -0.0782
  140CHL1   C1016585   7.520   0.912  13.818 -0.1890  0.1186  0.0399
  140CHL1   C1916586   7.407   1.021  13.836  0.0280 -0.2393  0.1042
  140CHL1  H19A16587   7.425   1.124  13.800 -0.5219  0.0674  0.6936
  140CHL1  H19B16588   7.320   1.006  13.769  1.1931  0.9458 -1.8094
  140CHL1  H19C16589   7.380   1.038  13.942  0.6160  0.4410  0.1543
  140CHL1    C116590   7.601   0.954  13.697 -0.2449  0.1203  0.5962
  140CHL1   H1A16591   7.635   1.059  13.709 -0.1665  0.0030  1.4997
  140CHL1   H1B16592   7.692   0.891  13.693  0.3307  1.0256 -1.6591
  140CHL1    C216593   7.524   0.944  13.562  0.4582  0.2019 -0.8102
  140CHL1   H2A16594   7.583   0.978  13.474 -0.1911  1.9149 -0.6024
  140CHL1   H2B16595   7.432   1.005  13.570  0.2645 -0.3482  2.5482
  140CHL1   C2016596   7.805   1.087  14.444  0.0923 -0.1924  0.6217
  140CHL1   H2016597   7.901   1.060  14.493  0.5274 -0.4466 -0.3459
  140CHL1   C2116598   7.710   1.083  14.563 -0.0245  0.8062 -0.5221
  140CHL1  H21A16599   7.727   0.984  14.611  1.5481  1.1786 -0.2411
  140CHL1  H21B16600   7.603   1.093  14.534 -0.5235  0.3905  1.0499
  140CHL1  H21C16601   7.737   1.152  14.646  1.6824 -0.4499  0.0456
  140CHL1   C2216602   7.826   1.234  14.399 -0.0665  0.2791  0.2487
  140CHL1  H22A16603   7.880   1.239  14.302 -0.6667 -0.4116 -0.1311
  140CHL1  H22B16604   7.726   1.273  14.367  0.7489  1.5791 -0.8433
  140CHL1   C2316605   7.906   1.335  14.488 -0.0912 -0.2308  0.1335
  140CHL1  H23A16606   7.911   1.432  14.435 -0.0281 -0.9747 -1.2511
  140CHL1  H23B16607   7.842   1.346  14.579 -2.7830 -0.4271 -1.6379
  140CHL1   C2416608   8.051   1.290  14.516  0.4687 -0.2964 -0.2227
  140CHL1  H24A16609   8.044   1.204  14.585  0.1122  0.4155  0.6494
  140CHL1  H24B16610   8.090   1.250  14.419  2.4234 -0.3143  0.5204
  140CHL1   C2516611   8.153   1.399  14.567 -0.7994 -0.7972 -0.1751
  140CHL1   H2516612   8.162   1.480  14.491 -0.5013 -0.6853 -0.0235
  140CHL1   C2616613   8.288   1.334  14.590 -0.0119  0.2772 -0.3923
  140CHL1  H26A16614   8.324   1.272  14.505  0.4811 -0.8865  0.6440
  140CHL1  H26B16615   8.365   1.413  14.604  2.7644 -2.4962  1.1813
  140CHL1  H26C16616   8.290   1.267  14.678 -0.5073 -1.6634 -1.7947
  140CHL1   C2716617   8.105   1.457  14.693  0.2354 -1.3667 -0.2088
  140CHL1  H27A16618   8.018   1.525  14.676  2.0405  1.5479  1.3425
  140CHL1  H27B16619   8.082   1.373  14.761  0.0903 -1.7091 -0.6767
  140CHL1  H27C16620   8.189   1.512  14.740 -1.1474  0.3135  0.4399
  141DOPC     N16621   4.369   3.432  17.249  0.2868  0.2273 -0.4454
  141DOPC   C1216622   4.411   3.443  17.099  0.3330 -0.4533 -0.0500
  141DOPC  H12A16623   4.393   3.542  17.061  0.9423 -0.4900 -0.4415
  141DOPC  H12B16624   4.342   3.383  17.041 -2.3149  2.2024  0.0925
  141DOPC   C1316625   4.455   3.527  17.322  0.4947  0.0611 -0.6053
  141DOPC  H13A16626   4.435   3.632  17.308  1.5532  0.5148  0.9954
  141DOPC  H13B16627   4.442   3.512  17.428  4.0973  0.1924 -0.0273
  141DOPC  H13C16628   4.554   3.496  17.294  1.7285  2.2230  1.0215
  141DOPC   C1416629   4.385   3.291  17.283 -0.3427  0.2132  0.1464
  141DOPC  H14A16630   4.411   3.276  17.387 -0.6137 -0.1504  0.1647
  141DOPC  H14B16631   4.297   3.234  17.255 -1.7542  1.7002  1.3204
  141DOPC  H14C16632   4.463   3.250  17.222 -1.4320 -1.4347 -0.2086
  141DOPC   C1516633   4.228   3.476  17.269 -0.2161  0.2691 -0.1712
  141DOPC  H15A16634   4.160   3.423  17.205 -1.1781  0.9970  0.2297
  141DOPC  H15B16635   4.216   3.580  17.245 -0.8514  0.3966  0.6590
  141DOPC  H15C16636   4.200   3.466  17.373  2.2706  0.7580  0.6330
  141DOPC   C1116637   4.557   3.416  17.057  0.3740 -0.5542 -0.0077
  141DOPC  H11A16638   4.566   3.441  16.949  2.0144  1.9441  0.6137
  141DOPC  H11B16639   4.625   3.488  17.107  0.8085 -0.5781 -0.5584
  141DOPC     P16640   4.737   3.229  17.075 -0.3246 -0.0150 -0.3743
  141DOPC   O1316641   4.757   3.094  17.135 -0.6761  0.4285 -0.2817
  141DOPC   O1416642   4.829   3.335  17.122  0.1699  0.4692 -0.3404
  141DOPC   O1216643   4.584   3.276  17.078  0.5485  0.3283  0.1908
  141DOPC   O1116644   4.746   3.207  16.916  0.2682  0.2428  0.2015
  141DOPC    C116645   4.860   3.138  16.857  0.7739 -0.2645  0.1666
  141DOPC    HA16646   4.888   3.052  16.921 -3.1217 -1.6012  0.3652
  141DOPC    HB16647   4.938   3.215  16.837  1.0892 -0.4458  0.6910
  141DOPC    C216648   4.835   3.074  16.716  0.0232  0.3614 -0.0775
  141DOPC    HS16649   4.940   3.064  16.681  1.4373 -1.0723  3.9764
  141DOPC   O2116650   4.760   3.159  16.629  0.2034  0.0039 -0.8137
  141DOPC   C2116651   4.814   3.264  16.591 -0.1944 -0.0659 -0.0850
  141DOPC   O2216652   4.928   3.302  16.614  0.1446 -0.4935 -0.0786
  141DOPC   C2216653   4.724   3.343  16.503 -0.3374  0.2458 -0.6245
  141DOPC   H2R16654   4.767   3.440  16.470  2.7863 -1.6325 -2.5415
  141DOPC   H2S16655   4.636   3.371  16.565  0.4595  0.7555  0.3138
  141DOPC    C316656   4.764   2.937  16.714  0.1552 -0.1046  0.3435
  141DOPC    HX16657   4.664   2.969  16.748 -0.2140  0.2325 -0.9990
  141DOPC    HY16658   4.806   2.869  16.791 -1.0093 -2.0492 -0.6873
  141DOPC   O3116659   4.766   2.881  16.579  0.0507 -0.1802  0.4304
  141DOPC   C3116660   4.660   2.805  16.567  1.1866  0.0419  0.0118
  141DOPC   O3216661   4.579   2.771  16.651  0.1426 -0.4000  0.2948
  141DOPC   C3216662   4.652   2.763  16.418  0.6341 -0.1397  0.0227
  141DOPC   H2X16663   4.575   2.683  16.411 -0.6034  1.0009  0.2590
  141DOPC   H2Y16664   4.614   2.850  16.361 -1.0531  0.9151  2.5819
  141DOPC   C2316665   4.676   3.267  16.373 -0.4445  0.2719 -0.1612
  141DOPC   H3R16666   4.641   3.344  16.301  1.6154  1.7280  0.2937
  141DOPC   H3S16667   4.599   3.190  16.395 -0.3493  0.6844  1.8627
  141DOPC   C2416668   4.789   3.201  16.288  0.5141 -0.6289 -0.9937
  141DOPC   H4R16669   4.833   3.123  16.354  0.1519  0.0409  0.0700
  141DOPC   H4S16670   4.876   3.269  16.276  0.9225 -1.1123 -0.8211
  141DOPC   C2516671   4.738   3.146  16.154 -0.1783  0.3849 -0.3449
  141DOPC   H5R16672   4.648   3.082  16.158  0.4107 -0.4316  0.1229
  141DOPC   H5S16673   4.821   3.091  16.106  0.3066  0.3905  0.4637
  141DOPC   C2616674   4.712   3.258  16.063  0.3047  0.7688  0.3834
  141DOPC   H6R16675   4.792   3.335  16.069 -0.0850  1.1055  1.5109
  141DOPC   H6S16676   4.613   3.302  16.085 -0.0210  1.0446 -1.4807
  141DOPC   C2716677   4.718   3.200  15.920 -0.2808 -0.1954  0.1931
  141DOPC   H7R16678   4.807   3.138  15.895 -0.6797 -0.2383 -1.2403
  141DOPC   H7S16679   4.726   3.290  15.855  0.5520  0.0667  0.6533
  141DOPC   C2816680   4.603   3.110  15.882 -0.8920  0.1000 -0.1645
  141DOPC   H8R16681   4.599   3.020  15.947  1.5812  0.6205  0.7832
  141DOPC   H8S16682   4.635   3.056  15.790  0.4055 -1.2985  1.0600
  141DOPC   C2916683   4.472   3.171  15.877  0.1475 -0.6686  0.3887
  141DOPC   H9R16684   4.452   3.259  15.940  0.7912  0.1618 -0.5325
  141DOPC  C21016685   4.375   3.127  15.792  0.0662  0.0154 -0.4312
  141DOPC  H10R16686   4.280   3.181  15.799 -0.3437 -0.8337  1.1073
  141DOPC  C21116687   4.377   3.018  15.695 -0.0665  0.3197 -0.1335
  141DOPC  H11R16688   4.272   2.989  15.672  0.0111 -1.6662  1.7736
  141DOPC  H11S16689   4.420   2.936  15.756 -0.0947  0.5753  0.2343
  141DOPC  C21216690   4.454   3.042  15.565 -0.5144 -0.3474  0.3726
  141DOPC  H12R16691   4.522   2.958  15.539 -0.6636 -0.3546 -0.0034
  141DOPC  H12S16692   4.517   3.133  15.561 -0.9957 -0.0673 -1.4828
  141DOPC  C21316693   4.365   3.072  15.443 -0.0993 -0.1505 -0.6140
  141DOPC  H13R16694   4.296   2.986  15.429 -0.1560 -0.0145 -1.1996
  141DOPC  H13S16695   4.427   3.086  15.352  0.5336 -0.9697 -0.3259
  141DOPC  C21416696   4.283   3.198  15.471 -0.3807 -0.7029 -0.3014
  141DOPC  H14R16697   4.349   3.286  15.487  0.7608 -1.9326  2.2479
  141DOPC  H14S16698   4.233   3.179  15.569  4.2949  0.7187  2.6532
  141DOPC  C21516699   4.180   3.228  15.359  0.6248 -0.2402 -0.0326
  141DOPC  H15R16700   4.127   3.133  15.337  2.0851 -0.8167 -1.1495
  141DOPC  H15S16701   4.224   3.257  15.262 -0.7811  0.6327 -0.4415
  141DOPC  C21616702   4.086   3.357  15.386 -0.2603  0.5889  0.1542
  141DOPC  H16R16703   4.139   3.453  15.400  0.3430  0.0643  1.6709
  141DOPC  H16S16704   4.031   3.338  15.480  1.4839  1.7755  1.4803
  141DOPC  C21716705   3.988   3.368  15.268  0.6255  0.0989 -0.3330
  141DOPC  H17R16706   3.936   3.271  15.251 -1.9177  0.9912  1.6477
  141DOPC  H17S16707   4.037   3.377  15.169  0.6122 -2.6085 -0.6472
  141DOPC  C21816708   3.870   3.470  15.289 -0.4126  0.1492 -0.6660
  141DOPC  H18R16709   3.906   3.575  15.295  0.5087 -0.2139  0.3895
  141DOPC  H18S16710   3.820   3.446  15.385  1.5460  0.6494  0.5339
  141DOPC  H18T16711   3.793   3.481  15.209 -1.0215  1.2630  0.0479
  141DOPC   C3316712   4.786   2.713  16.361  0.0968 -0.1149  0.3898
  141DOPC   H3X16713   4.793   2.603  16.362  2.4765 -0.0774 -2.4218
  141DOPC   H3Y16714   4.876   2.760  16.405  1.1119 -1.1103 -0.5827
  141DOPC   C3416715   4.808   2.753  16.208  0.3003  0.0112 -0.3055
  141DOPC   H4X16716   4.911   2.719  16.185 -0.1957 -1.7961 -0.0146
  141DOPC   H4Y16717   4.797   2.863  16.203  0.2920 -0.0044 -0.6563
  141DOPC   C3516718   4.704   2.702  16.112 -0.0744  0.7808  0.0475
  141DOPC   H5X16719   4.606   2.750  16.132  0.2371  1.1452  0.7219
  141DOPC   H5Y16720   4.710   2.592  16.131 -2.2198  0.6873  0.3753
  141DOPC   C3616721   4.741   2.726  15.960  0.5006  0.2905 -0.1393
  141DOPC   H6X16722   4.735   2.837  15.961  0.2574  0.3620  3.5275
  141DOPC   H6Y16723   4.841   2.694  15.922  1.5303  1.2024  1.6521
  141DOPC   C3716724   4.633   2.684  15.857 -0.5928 -0.0229 -0.2332
  141DOPC   H7X16725   4.630   2.576  15.831  1.3351  0.2621 -1.8976
  141DOPC   H7Y16726   4.540   2.714  15.910  0.7585  0.7788  1.7755
  141DOPC   C3816727   4.647   2.759  15.727 -0.9089  0.3207 -0.1622
  141DOPC   H8X16728   4.656   2.865  15.761  0.0450 -0.3306  1.7422
  141DOPC   H8Y16729   4.547   2.744  15.681 -1.2532  0.9338  0.3734
  141DOPC   C3916730   4.765   2.716  15.646 -0.1252  0.6468 -0.2536
  141DOPC   H9X16731   4.771   2.612  15.612  1.0498  0.8417 -0.6938
  141DOPC  C31016732   4.857   2.796  15.589  0.1377  0.4953 -0.7534
  141DOPC  H10X16733   4.949   2.754  15.545 -0.6382 -1.6249 -0.5012
  141DOPC  C31116734   4.862   2.949  15.599  0.3254  0.8306 -0.0143
  141DOPC  H11X16735   4.966   2.976  15.627 -0.0157 -0.0684  2.3478
  141DOPC  H11Y16736   4.796   2.977  15.684  1.1423  0.9187  0.6033
  141DOPC  C31216737   4.810   3.019  15.476 -0.9763 -0.3376  0.6641
  141DOPC  H12X16738   4.796   3.122  15.515  0.4999  0.7376 -1.4406
  141DOPC  H12Y16739   4.707   2.986  15.453 -1.4339  1.5777 -0.3023
  141DOPC  C31316740   4.896   3.009  15.351  0.4658  0.1103 -0.5368
  141DOPC  H13X16741   4.999   3.039  15.380  1.5969 -2.0323 -2.0480
  141DOPC  H13Y16742   4.887   2.902  15.321 -1.3306 -0.4286  1.6126
  141DOPC  C31416743   4.857   3.113  15.236 -0.7359  0.0452  0.2946
  141DOPC  H14X16744   4.746   3.113  15.234 -0.7526  1.6195 -1.0157
  141DOPC  H14Y16745   4.890   3.217  15.260 -1.5100  0.3808 -0.0453
  141DOPC  C31516746   4.922   3.072  15.103 -0.4753 -0.3458  0.7330
  141DOPC  H15X16747   4.880   2.973  15.076 -1.8009 -0.1423  1.9325
  141DOPC  H15Y16748   5.032   3.057  15.115 -0.4247 -1.5798 -0.9453
  141DOPC  C31616749   4.879   3.166  14.993 -0.0262  0.2139 -0.1892
  141DOPC  H16X16750   4.768   3.166  14.986 -0.0287  2.6015 -1.0329
  141DOPC  H16Y16751   4.913   3.268  15.021  0.1266  0.6002 -1.6600
  141DOPC  C31716752   4.940   3.122  14.861  0.3407  0.3042 -0.2062
  141DOPC  H17X16753   5.049   3.142  14.876  0.3704 -0.4637  0.6792
  141DOPC  H17Y16754   4.924   3.014  14.839  2.8121 -0.4498  1.3145
  141DOPC  C31816755   4.893   3.203  14.739  0.1790 -0.4759 -0.2544
  141DOPC  H18X16756   4.788   3.182  14.710 -0.5861  0.1655  1.9124
  141DOPC  H18Y16757   4.896   3.313  14.756  1.9342 -0.5254 -0.0479
  141DOPC  H18Z16758   4.959   3.189  14.650 -0.5290 -2.7672 -0.4801
  142DOPC     N16759   5.607   3.464  17.528 -0.2927  0.2244 -0.1258
  142DOPC   C1216760   5.558   3.471  17.383  0.3383 -0.0562  0.1467
  142DOPC  H12A16761   5.525   3.572  17.361  0.9163 -0.3736 -2.5859
  142DOPC  H12B16762   5.475   3.406  17.360  1.6733 -1.4214 -1.0747
  142DOPC   C1316763   5.667   3.327  17.545 -0.5365 -0.6770  0.3043
  142DOPC  H13A16764   5.600   3.247  17.517  0.9156 -2.3252  1.2214
  142DOPC  H13B16765   5.755   3.325  17.482  1.0787  0.4200  2.3773
  142DOPC  H13C16766   5.691   3.320  17.651 -1.5271 -0.3922  0.5504
  142DOPC   C1416767   5.485   3.480  17.626 -0.1445 -0.3940  0.1311
  142DOPC  H14A16768   5.428   3.569  17.604  0.1237 -0.1593  0.3674
  142DOPC  H14B16769   5.419   3.395  17.617 -1.1925  0.5268 -1.1658
  142DOPC  H14C16770   5.512   3.488  17.730  1.1522 -0.1775 -0.1962
  142DOPC   C1516771   5.715   3.564  17.555 -0.1729  0.0772 -0.7758
  142DOPC  H15A16772   5.688   3.668  17.548  1.6761  0.9009  2.2356
  142DOPC  H15B16773   5.804   3.546  17.497  1.4038 -1.7789  1.9915
  142DOPC  H15C16774   5.755   3.559  17.656 -1.9864  0.4924  0.0108
  142DOPC   C1116775   5.660   3.453  17.271  0.1749 -0.5456  0.2475
  142DOPC  H11A16776   5.719   3.361  17.293  1.5457 -0.2394 -1.8062
  142DOPC  H11B16777   5.615   3.419  17.175  0.1148 -0.0517  0.0943
  142DOPC     P16778   5.719   3.696  17.174 -0.2455  0.1575  0.1287
  142DOPC   O1316779   5.838   3.784  17.185  0.0369 -0.1303 -0.0620
  142DOPC   O1416780   5.591   3.757  17.214 -0.2920  0.2652 -0.9919
  142DOPC   O1216781   5.755   3.560  17.252  0.3570  0.4283 -0.2775
  142DOPC   O1116782   5.721   3.654  17.027  0.3627 -0.0266 -0.0553
  142DOPC    C116783   5.622   3.597  16.947 -0.3734  1.2478  0.6750
  142DOPC    HA16784   5.521   3.613  16.990 -1.7131  1.8021 -2.4502
  142DOPC    HB16785   5.639   3.489  16.926  0.7745  1.0362  2.4676
  142DOPC    C216786   5.603   3.665  16.803 -0.3299 -0.4595 -0.3729
  142DOPC    HS16787   5.499   3.645  16.770 -0.9361 -2.3187  2.4124
  142DOPC   O2116788   5.703   3.614  16.714 -0.7709 -0.5473 -0.6185
  142DOPC   C2116789   5.677   3.497  16.660 -0.5560  0.3137  0.3806
  142DOPC   O2216790   5.567   3.447  16.661 -0.4381  0.2480 -0.6150
  142DOPC   C2216791   5.802   3.448  16.580  0.5260 -0.4549  0.1325
  142DOPC   H2R16792   5.889   3.428  16.645  1.5839  1.7218 -0.5451
  142DOPC   H2S16793   5.848   3.529  16.519 -1.3209 -0.0007 -0.7355
  142DOPC    C316794   5.621   3.814  16.806  0.5474 -0.1415  0.4804
  142DOPC    HX16795   5.714   3.840  16.861  0.5847  1.4954 -0.2955
  142DOPC    HY16796   5.534   3.852  16.865 -0.4313 -2.4948  0.6587
  142DOPC   O3116797   5.614   3.865  16.673  0.2721  0.0446  0.1106
  142DOPC   C3116798   5.690   3.965  16.644 -0.1203 -0.1797  0.2725
  142DOPC   O3216799   5.756   4.029  16.727 -0.0679 -0.0130 -0.0152
  142DOPC   C3216800   5.693   3.987  16.490  0.2400 -0.7723  0.8657
  142DOPC   H2X16801   5.695   3.887  16.440  2.2426 -1.2192  1.7349
  142DOPC   H2Y16802   5.599   4.040  16.463  0.8385  0.5639  1.3253
  142DOPC   C2316803   5.777   3.330  16.486  0.6720  0.0998  0.1891
  142DOPC   H3R16804   5.725   3.260  16.555  0.3241  1.1675  1.0357
  142DOPC   H3S16805   5.870   3.281  16.449 -0.4407 -1.9562 -0.0213
  142DOPC   C2416806   5.694   3.352  16.362  0.4185 -0.0994 -0.6310
  142DOPC   H4R16807   5.754   3.425  16.304 -0.1010  3.2131  2.5745
  142DOPC   H4S16808   5.598   3.395  16.397  0.0807 -1.8615  0.7339
  142DOPC   C2516809   5.676   3.222  16.287  0.4608 -0.0404 -0.1582
  142DOPC   H5R16810   5.623   3.150  16.354  0.0250 -0.1346 -0.5938
  142DOPC   H5S16811   5.772   3.170  16.268  2.2564  3.2864 -0.8278
  142DOPC   C2616812   5.615   3.238  16.150 -0.3160 -0.1989 -0.5067
  142DOPC   H6R16813   5.531   3.310  16.162  0.4804  0.4545  1.6243
  142DOPC   H6S16814   5.561   3.142  16.137  0.6371 -0.9459  0.8119
  142DOPC   C2716815   5.699   3.266  16.027 -0.3440  0.0893 -0.3068
  142DOPC   H7R16816   5.721   3.375  16.018  0.6700  0.0003  0.8571
  142DOPC   H7S16817   5.631   3.243  15.941 -0.3244  1.3560 -0.6849
  142DOPC   C2816818   5.824   3.178  16.022 -0.3496  0.1881 -0.3752
  142DOPC   H8R16819   5.799   3.075  16.056  0.9919 -1.0499 -2.8276
  142DOPC   H8S16820   5.900   3.231  16.083 -1.1633  0.0021  0.8374
  142DOPC   C2916821   5.880   3.173  15.881  0.1192 -0.4299 -0.0245
  142DOPC   H9R16822   5.931   3.265  15.846  1.4975 -0.7238  1.1185
  142DOPC  C21016823   5.878   3.074  15.798 -1.1833 -0.3061  0.6040
  142DOPC  H10R16824   5.929   3.088  15.701 -0.3971 -1.4895  0.8396
  142DOPC  C21116825   5.834   2.927  15.826 -0.3054  0.2862  0.5552
  142DOPC  H11R16826   5.823   2.915  15.935  0.1155  1.3232  0.7204
  142DOPC  H11S16827   5.917   2.859  15.798 -0.1458  0.6949 -0.0069
  142DOPC  C21216828   5.709   2.892  15.740 -0.4270 -0.3435  0.2539
  142DOPC  H12R16829   5.634   2.971  15.757  0.8608  0.8005  0.8384
  142DOPC  H12S16830   5.669   2.804  15.795  1.3808 -0.3924  1.6035
  142DOPC  C21316831   5.733   2.879  15.595  0.2177 -0.1934  0.4285
  142DOPC  H13R16832   5.807   2.798  15.580  1.1674  0.3476  1.8799
  142DOPC  H13S16833   5.789   2.959  15.541 -0.2373 -1.0515 -1.3595
  142DOPC  C21416834   5.603   2.854  15.518 -0.1915 -1.1877 -0.0031
  142DOPC  H14R16835   5.552   2.765  15.562  2.9281 -1.5265  3.4263
  142DOPC  H14S16836   5.629   2.814  15.418 -0.7501 -3.5781  0.7509
  142DOPC  C21516837   5.514   2.985  15.505 -0.5418  1.1970 -0.0421
  142DOPC  H15R16838   5.573   3.060  15.450  1.2348  0.2687  0.5294
  142DOPC  H15S16839   5.496   3.032  15.604 -2.1225 -3.3598  2.1287
  142DOPC  C21616840   5.392   2.955  15.417 -0.3072  0.6881 -0.8524
  142DOPC  H16R16841   5.414   2.896  15.325  0.6762 -1.1718  0.5049
  142DOPC  H16S16842   5.354   3.056  15.389  1.3033  1.7922  0.7444
  142DOPC  C21716843   5.284   2.870  15.482  0.0483 -0.4043  0.0561
  142DOPC  H17R16844   5.331   2.771  15.498 -1.2533 -1.1944 -0.8395
  142DOPC  H17S16845   5.196   2.851  15.418  1.6841  2.2545 -3.3158
  142DOPC  C21816846   5.232   2.946  15.610 -0.4020 -0.2559 -0.3060
  142DOPC  H18R16847   5.159   2.885  15.667  0.1131 -0.6112 -0.0226
  142DOPC  H18S16848   5.170   3.030  15.573 -3.3319 -2.3591 -0.5120
  142DOPC  H18T16849   5.309   2.980  15.683  0.2974 -3.1162  0.4187
  142DOPC   C3316850   5.808   4.070  16.436 -0.3368 -0.0318  0.2233
  142DOPC   H3X16851   5.836   4.156  16.501  1.3714 -0.8648  0.6353
  142DOPC   H3Y16852   5.773   4.114  16.341 -0.4049 -0.9497 -0.1866
  142DOPC   C3416853   5.934   3.989  16.404 -0.4270  0.2190  0.2067
  142DOPC   H4X16854   5.911   3.909  16.331  1.8736 -2.3882  2.1312
  142DOPC   H4Y16855   5.959   3.931  16.496  0.7993 -0.6293 -0.6248
  142DOPC   C3516856   6.040   4.083  16.349  0.8312 -0.2936 -0.3359
  142DOPC   H5X16857   6.138   4.031  16.341  0.7794 -0.9647  2.2310
  142DOPC   H5Y16858   6.067   4.162  16.423  0.6489 -0.9837  0.4909
  142DOPC   C3616859   6.016   4.149  16.214 -0.0739  0.2320 -0.0219
  142DOPC   H6X16860   5.922   4.207  16.206  1.2669  2.6334  0.6736
  142DOPC   H6Y16861   6.103   4.215  16.192  0.3526 -0.8815 -1.9206
  142DOPC   C3716862   6.015   4.052  16.102 -0.4619 -0.0295  0.1646
  142DOPC   H7X16863   6.098   3.981  16.119  0.0942  0.5094 -0.2501
  142DOPC   H7Y16864   5.913   4.007  16.100  0.2278 -1.6385 -0.6876
  142DOPC   C3816865   6.038   4.114  15.955 -0.0138  0.0799 -0.0073
  142DOPC   H8X16866   6.136   4.167  15.951  1.0988 -1.8480  0.4560
  142DOPC   H8Y16867   5.964   4.191  15.925 -1.6077  1.2771  5.7306
  142DOPC   C3916868   6.039   4.004  15.848 -0.3134  0.1596 -0.3217
  142DOPC   H9X16869   5.955   3.933  15.849 -0.7268  0.6396  0.2109
  142DOPC  C31016870   6.132   3.986  15.758 -0.6372 -0.1681  0.3386
  142DOPC  H10X16871   6.125   3.901  15.689 -0.0264 -1.8525  2.2566
  142DOPC  C31116872   6.264   4.060  15.742 -0.3276 -0.2193 -0.2933
  142DOPC  H11X16873   6.339   3.996  15.793 -0.3222  0.0903  0.0901
  142DOPC  H11Y16874   6.272   4.162  15.785  2.2412  0.2843 -1.7912
  142DOPC  C31216875   6.306   4.080  15.597  0.5667 -0.2110  0.2606
  142DOPC  H12X16876   6.231   4.142  15.543  0.9552 -1.4163 -1.7949
  142DOPC  H12Y16877   6.303   3.985  15.540 -0.0872  0.2100 -0.4238
  142DOPC  C31316878   6.453   4.132  15.583  0.1352 -0.4847  0.1853
  142DOPC  H13X16879   6.447   4.236  15.620 -1.5769 -0.8308  1.0001
  142DOPC  H13Y16880   6.512   4.073  15.657  0.8124  1.2305  1.0757
  142DOPC  C31416881   6.511   4.107  15.443 -0.0019  0.0773 -0.4908
  142DOPC  H14X16882   6.535   3.999  15.429 -3.7263 -0.8336 -0.8103
  142DOPC  H14Y16883   6.440   4.130  15.361 -0.3281  2.0853  0.3110
  142DOPC  C31516884   6.638   4.193  15.435 -0.2228 -0.4622 -0.0246
  142DOPC  H15X16885   6.702   4.180  15.525  1.6036 -2.3686 -1.5037
  142DOPC  H15Y16886   6.604   4.299  15.434  0.4898 -0.1116  2.9895
  142DOPC  C31616887   6.714   4.173  15.300 -0.2300  0.2718  0.1257
  142DOPC  H16X16888   6.737   4.065  15.290 -1.4967  0.2082 -3.2634
  142DOPC  H16Y16889   6.641   4.182  15.218 -1.0491  2.6750  1.0377
  142DOPC  C31716890   6.830   4.259  15.261  0.5462  0.3724 -0.0212
  142DOPC  H17X16891   6.906   4.252  15.342 -0.2986 -0.4522  0.7375
  142DOPC  H17Y16892   6.877   4.217  15.170  1.1975  0.4318  0.2786
  142DOPC  C31816893   6.793   4.409  15.241 -0.5838  0.6342  0.5827
  142DOPC  H18X16894   6.878   4.465  15.196 -1.3123  1.0465 -0.3209
  142DOPC  H18Y16895   6.716   4.404  15.161 -0.2297 -1.7184  0.3025
  142DOPC  H18Z16896   6.754   4.460  15.331 -0.8501  1.8873 -0.2135
  143DOPC     N16897   2.916   4.041  17.183  1.2774  0.4585  0.2437
  143DOPC   C1216898   2.837   4.149  17.113  0.6147  0.9636  0.1402
  143DOPC  H12A16899   2.794   4.222  17.179  1.2747 -0.0299  1.7249
  143DOPC  H12B16900   2.744   4.110  17.073  1.0392 -0.9761  0.9373
  143DOPC   C1316901   2.847   3.991  17.304  0.0683  0.6823 -0.4241
  143DOPC  H13A16902   2.752   3.949  17.273  1.0162 -1.7105 -0.2815
  143DOPC  H13B16903   2.892   3.906  17.353 -1.8236  0.7216  1.5374
  143DOPC  H13C16904   2.840   4.069  17.378  1.0589  0.1764  0.2363
  143DOPC   C1416905   3.039   4.115  17.230  0.0814  0.5317  0.1648
  143DOPC  H14A16906   3.087   4.177  17.156  0.1347 -2.1951 -2.2745
  143DOPC  H14B16907   3.001   4.179  17.308 -1.4773  0.5011 -0.5221
  143DOPC  H14C16908   3.118   4.049  17.264  0.2318 -0.1061 -1.3292
  143DOPC   C1516909   2.946   3.925  17.091  0.4471 -0.4945  0.2958
  143DOPC  H15A16910   3.014   3.945  17.009  1.2850 -1.5401  0.7069
  143DOPC  H15B16911   2.849   3.905  17.048 -0.0599  1.7576  0.2756
  143DOPC  H15C16912   2.975   3.835  17.142  2.2688  0.4801  1.0802
  143DOPC   C1116913   2.899   4.219  16.990 -0.4014 -0.4882 -0.0773
  143DOPC  H11A16914   2.834   4.306  16.966 -1.5227 -0.5397  2.4559
  143DOPC  H11B16915   3.000   4.252  17.022 -0.2668 -0.4332 -0.5545
  143DOPC     P16916   2.786   4.092  16.781  0.2974  0.1446  0.0604
  143DOPC   O1316917   2.681   4.039  16.864 -0.5508  0.4209  0.0224
  143DOPC   O1416918   2.843   3.999  16.682 -0.5548  0.3607  0.5339
  143DOPC   O1216919   2.919   4.136  16.877  0.6005  0.0093  0.3361
  143DOPC   O1116920   2.745   4.232  16.718  0.4697 -0.7988 -0.0393
  143DOPC    C116921   2.830   4.294  16.621  0.8755 -0.1959  0.4676
  143DOPC    HA16922   2.934   4.254  16.629  0.6085 -0.7352  1.2918
  143DOPC    HB16923   2.839   4.404  16.639  0.9881 -0.0469 -0.4396
  143DOPC    C216924   2.782   4.275  16.471 -0.0855  0.2256 -0.3322
  143DOPC    HS16925   2.813   4.169  16.460  2.4300  0.6907  1.3763
  143DOPC   O2116926   2.848   4.367  16.391 -0.2362 -0.3946 -0.0366
  143DOPC   C2116927   2.967   4.333  16.351  0.5851 -0.2774 -0.0069
  143DOPC   O2216928   3.024   4.224  16.365  0.3202 -0.6262 -0.6352
  143DOPC   C2216929   3.028   4.462  16.284 -0.1759  0.1568 -0.4444
  143DOPC   H2R16930   3.020   4.548  16.354 -0.0130 -0.1151 -0.0835
  143DOPC   H2S16931   2.972   4.478  16.190 -0.8478 -1.0575 -0.2662
  143DOPC    C316932   2.627   4.282  16.454  0.6325  0.1392 -0.4450
  143DOPC    HX16933   2.589   4.381  16.485 -0.6018 -0.4452  0.0085
  143DOPC    HY16934   2.585   4.207  16.526 -0.5503  1.1408 -0.0503
  143DOPC   O3116935   2.596   4.257  16.309 -0.7603 -0.0569 -0.2415
  143DOPC   C3116936   2.461   4.260  16.296 -0.4115  0.1047 -0.3798
  143DOPC   O3216937   2.384   4.277  16.387 -0.5256 -0.2592  0.2609
  143DOPC   C3216938   2.438   4.252  16.145  0.3200  0.4893 -0.3910
  143DOPC   H2X16939   2.369   4.334  16.117 -1.2936 -1.1792 -1.5701
  143DOPC   H2Y16940   2.531   4.265  16.086 -0.6559  0.3439 -2.0400
  143DOPC   C2316941   3.184   4.461  16.257 -0.2146  0.3236  0.1328
  143DOPC   H3R16942   3.238   4.440  16.351 -0.9913 -1.2467  0.2752
  143DOPC   H3S16943   3.205   4.564  16.223 -0.9157  0.8379  1.2185
  143DOPC   C2416944   3.210   4.361  16.142 -0.2767  0.5730 -0.4716
  143DOPC   H4R16945   3.144   4.375  16.054 -0.2566  1.9102 -0.2993
  143DOPC   H4S16946   3.204   4.256  16.179  0.8936  0.9264  0.7678
  143DOPC   C2516947   3.358   4.377  16.100 -0.1724 -0.1651  0.0018
  143DOPC   H5R16948   3.419   4.393  16.192  1.1560 -1.5796 -0.5820
  143DOPC   H5S16949   3.354   4.472  16.043 -0.3426  0.4154  0.9570
  143DOPC   C2616950   3.401   4.263  16.017  0.1935 -0.0439 -0.2705
  143DOPC   H6R16951   3.338   4.258  15.926  0.6315 -0.5480 -0.5530
  143DOPC   H6S16952   3.383   4.167  16.070 -0.8627  0.4168  0.2331
  143DOPC   C2716953   3.544   4.267  15.958 -1.2627  0.4909 -0.1218
  143DOPC   H7R16954   3.613   4.259  16.045 -1.8075  1.2790  0.3974
  143DOPC   H7S16955   3.548   4.369  15.915 -0.5211  0.6239  0.2312
  143DOPC   C2816956   3.566   4.149  15.860 -0.2684  0.4074 -0.2376
  143DOPC   H8R16957   3.661   4.166  15.805  0.2514  1.2233  0.8902
  143DOPC   H8S16958   3.478   4.148  15.792 -0.9653 -0.4492  0.6586
  143DOPC   C2916959   3.581   4.018  15.929  0.0944  0.3398 -0.4347
  143DOPC   H9R16960   3.490   3.989  15.984  0.3556  0.4391  0.0527
  143DOPC  C21016961   3.693   3.940  15.930  0.2383  0.6821  0.0605
  143DOPC  H10R16962   3.690   3.842  15.979  0.1352 -1.1813 -3.3724
  143DOPC  C21116963   3.823   3.946  15.856 -0.4103 -0.5516 -0.1448
  143DOPC  H11R16964   3.807   3.976  15.751 -0.6482 -0.8612 -0.1997
  143DOPC  H11S16965   3.862   3.842  15.855  1.4002  0.0934 -0.6920
  143DOPC  C21216966   3.924   4.043  15.913  0.3384 -0.4170 -0.6995
  143DOPC  H12R16967   3.979   4.007  16.003 -1.7323 -2.5918 -0.1948
  143DOPC  H12S16968   3.876   4.139  15.943  0.1944 -1.0473  1.2046
  143DOPC  C21316969   4.043   4.081  15.820 -0.6125  0.2294  0.6687
  143DOPC  H13R16970   4.113   3.998  15.799 -2.5717 -1.1473 -0.8594
  143DOPC  H13S16971   4.089   4.170  15.869  0.5583  0.5489 -0.9177
  143DOPC  C21416972   3.997   4.148  15.683  0.4539 -0.1138 -0.4422
  143DOPC  H14R16973   3.913   4.220  15.685 -0.8327 -1.4718 -2.4710
  143DOPC  H14S16974   3.942   4.071  15.626 -0.1116  1.7534 -2.5428
  143DOPC  C21516975   4.115   4.195  15.598 -0.6576  0.2955 -0.0992
  143DOPC  H15R16976   4.186   4.110  15.586 -1.6627 -0.1968 -3.6648
  143DOPC  H15S16977   4.173   4.277  15.644  0.1547 -0.9342  1.1466
  143DOPC  C21616978   4.078   4.242  15.465 -0.7429 -0.7429  0.4310
  143DOPC  H16R16979   4.002   4.323  15.463  1.4008  1.3909  0.4238
  143DOPC  H16S16980   4.035   4.164  15.398 -0.3267  0.2444 -1.0611
  143DOPC  C21716981   4.198   4.299  15.380 -1.0083  0.1144 -0.5498
  143DOPC  H17R16982   4.257   4.364  15.449  0.1301 -1.8828  0.4526
  143DOPC  H17S16983   4.154   4.365  15.302 -1.5596  0.3884 -0.0282
  143DOPC  C21816984   4.297   4.205  15.323 -0.1179  0.1705  0.1513
  143DOPC  H18R16985   4.258   4.138  15.243  0.7941  2.2422 -2.1559
  143DOPC  H18S16986   4.341   4.137  15.399 -0.2004 -0.0646 -0.0060
  143DOPC  H18T16987   4.386   4.259  15.285  0.1108  0.0892  0.5626
  143DOPC   C3316988   2.379   4.114  16.098 -0.4684  0.2804  0.3620
  143DOPC   H3X16989   2.286   4.099  16.156  0.4709  0.4617  1.9802
  143DOPC   H3Y16990   2.451   4.035  16.128 -0.7322 -0.3584 -0.6688
  143DOPC   C3416991   2.368   4.118  15.945  0.2793  0.2246 -0.3397
  143DOPC   H4X16992   2.351   4.226  15.922 -0.4828  0.2738  0.4066
  143DOPC   H4Y16993   2.281   4.058  15.911  0.3910 -1.2670  1.8143
  143DOPC   C3516994   2.487   4.064  15.860  0.0944 -0.1525 -0.1960
  143DOPC   H5X16995   2.500   3.955  15.877  1.6050 -0.2092 -1.4249
  143DOPC   H5Y16996   2.580   4.106  15.906 -1.0736 -0.7870  2.9955
  143DOPC   C3616997   2.485   4.084  15.711  0.3802 -0.2611  0.1829
  143DOPC   H6X16998   2.402   4.023  15.670  0.6790  0.3574 -1.4398
  143DOPC   H6Y16999   2.459   4.187  15.678  0.2864  0.2380  1.7370
  143DOPC   C3717000   2.610   4.033  15.636  0.3020  0.2578 -0.0031
  143DOPC   H7X17001   2.697   4.100  15.657  0.0479  0.7352 -0.4497
  143DOPC   H7Y17002   2.640   3.933  15.674 -0.3056  0.1108  0.0979
  143DOPC   C3817003   2.579   4.034  15.485 -1.2116 -0.0043  0.0575
  143DOPC   H8X17004   2.671   4.073  15.436 -1.4102  0.5639  0.1236
  143DOPC   H8Y17005   2.500   4.110  15.468  0.1593  1.2693 -0.8551
  143DOPC   C3917006   2.537   3.902  15.430  0.0506 -0.2777 -0.4304
  143DOPC   H9X17007   2.524   3.823  15.505  1.8001 -0.0212  0.1937
  143DOPC  C31017008   2.515   3.872  15.298 -0.0920  0.2241 -0.5017
  143DOPC  H10X17009   2.496   3.767  15.273  0.4814  0.0203 -0.1116
  143DOPC  C31117010   2.516   3.969  15.183 -0.7289  0.2255  0.5724
  143DOPC  H11X17011   2.539   4.072  15.218 -0.3515 -0.3444  2.0990
  143DOPC  H11Y17012   2.428   3.972  15.116 -1.8147  0.3679  1.9586
  143DOPC  C31217013   2.642   3.926  15.100  0.6087 -0.3926 -0.3863
  143DOPC  H12X17014   2.630   3.817  15.082 -0.3447 -0.4252  0.3629
  143DOPC  H12Y17015   2.723   3.936  15.176 -2.0047 -1.4174  2.7928
  143DOPC  C31317016   2.665   4.011  14.975 -0.0032  0.2246 -0.5763
  143DOPC  H13X17017   2.587   3.993  14.899 -1.0784  0.7382  0.3799
  143DOPC  H13Y17018   2.662   4.118  15.007  0.8416  0.6603 -1.8569
  143DOPC  C31417019   2.801   3.983  14.914  0.4829 -0.9237  0.1937
  143DOPC  H14X17020   2.883   4.001  14.987  0.4751 -0.6303  0.1322
  143DOPC  H14Y17021   2.804   3.878  14.880  2.2592 -0.6737 -0.5152
  143DOPC  C31517022   2.834   4.070  14.793  0.2935 -0.5005 -0.1779
  143DOPC  H15X17023   2.824   4.172  14.834 -1.2321 -1.7836  3.0222
  143DOPC  H15Y17024   2.753   4.054  14.719  1.1054 -1.1528 -0.9360
  143DOPC  C31617025   2.965   4.057  14.712  0.1131 -0.7176  0.5811
  143DOPC  H16X17026   3.053   4.070  14.780  1.0947 -1.9389 -0.3979
  143DOPC  H16Y17027   2.959   3.950  14.681 -0.7194 -0.5387  0.1093
  143DOPC  C31717028   2.966   4.150  14.588 -0.1644  0.8970  0.4334
  143DOPC  H17X17029   3.051   4.119  14.523 -1.1785 -3.3114  0.8160
  143DOPC  H17Y17030   2.873   4.126  14.533  0.5514 -0.1440 -0.3712
  143DOPC  C31817031   2.980   4.291  14.621  0.6306 -0.1974  0.6354
  143DOPC  H18X17032   3.059   4.312  14.696  1.1366  0.5367 -0.0852
  143DOPC  H18Y17033   3.008   4.357  14.537  0.3414  0.2818  0.9050
  143DOPC  H18Z17034   2.888   4.335  14.666  2.2937  2.7039  1.4832
  144DOPC     N17035   3.021   2.250  17.137 -0.8732  0.2469 -0.3283
  144DOPC   C1217036   3.077   2.325  17.021  0.2218 -0.1375 -0.0386
  144DOPC  H12A17037   3.112   2.246  16.956 -0.6399 -2.3028  1.9962
  144DOPC  H12B17038   3.171   2.375  17.042 -0.5818  1.4704 -0.1024
  144DOPC   C1317039   2.899   2.170  17.110  0.2368  0.7363  0.6104
  144DOPC  H13A17040   2.812   2.234  17.104 -0.3339 -0.1797 -1.6587
  144DOPC  H13B17041   2.902   2.113  17.019  2.1424  2.2894 -0.3777
  144DOPC  H13C17042   2.882   2.109  17.198  1.0563  1.2139  1.1160
  144DOPC   C1417043   2.981   2.348  17.238  0.2358 -0.3017 -0.0718
  144DOPC  H14A17044   3.061   2.417  17.263 -0.1393  0.0206  0.2559
  144DOPC  H14B17045   2.903   2.412  17.199  0.6960  1.2002  1.3212
  144DOPC  H14C17046   2.951   2.305  17.332  1.6603 -2.8970 -0.7029
  144DOPC   C1517047   3.131   2.170  17.204  0.9635 -1.1018 -0.5721
  144DOPC  H15A17048   3.094   2.112  17.287  0.8426  0.0765  0.2183
  144DOPC  H15B17049   3.200   2.239  17.249 -1.3409  1.3163 -0.5146
  144DOPC  H15C17050   3.194   2.114  17.137  1.1895 -1.0333 -0.4171
  144DOPC   C1117051   2.988   2.426  16.948  0.4050 -0.4595 -0.0612
  144DOPC  H11A17052   3.037   2.467  16.857 -0.9103 -3.0269 -2.0681
  144DOPC  H11B17053   2.905   2.363  16.908  1.0362 -0.4125 -1.5203
  144DOPC     P17054   3.026   2.656  17.058  0.3418  0.1835 -0.0917
  144DOPC   O1317055   3.162   2.609  17.090  0.5613  0.2018  0.5503
  144DOPC   O1417056   2.966   2.735  17.165  0.2615  0.3533  0.5198
  144DOPC   O1217057   2.934   2.526  17.037 -0.4250 -0.3495 -0.8484
  144DOPC   O1117058   3.020   2.734  16.919  0.1429 -0.0794  0.1062
  144DOPC    C117059   2.888   2.747  16.863 -0.6562  0.6480 -0.6940
  144DOPC    HA17060   2.818   2.793  16.936  2.0260  2.9478  0.6318
  144DOPC    HB17061   2.854   2.649  16.824 -0.2635  1.0965 -2.2447
  144DOPC    C217062   2.890   2.836  16.733 -0.0030  0.9318 -0.2587
  144DOPC    HS17063   2.796   2.820  16.677 -0.1838  1.3616 -0.0813
  144DOPC   O2117064   3.004   2.810  16.646 -0.4777  0.1183  0.3879
  144DOPC   C2117065   3.006   2.692  16.585 -0.2214  0.7329 -0.4963
  144DOPC   O2217066   2.927   2.602  16.612  0.2214 -0.3999  0.0463
  144DOPC   C2217067   3.119   2.684  16.485 -0.0791  0.9790 -0.0880
  144DOPC   H2R17068   3.209   2.641  16.532  0.2583  0.3112 -1.2956
  144DOPC   H2S17069   3.138   2.785  16.442 -2.1656  1.2730 -0.4502
  144DOPC    C317070   2.880   2.987  16.777 -0.2634 -0.6076 -0.1426
  144DOPC    HX17071   2.971   3.014  16.835 -0.4441  0.2987 -0.2579
  144DOPC    HY17072   2.789   3.000  16.840 -1.6976  0.1897 -2.2444
  144DOPC   O3117073   2.873   3.078  16.662 -0.2609 -0.3344 -0.3483
  144DOPC   C3117074   2.887   3.209  16.688 -0.1849 -0.3292 -0.1087
  144DOPC   O3217075   2.902   3.250  16.797 -0.2383 -0.1585 -0.0926
  144DOPC   C3217076   2.891   3.286  16.558  0.3423  0.1501 -0.1836
  144DOPC   H2X17077   2.995   3.280  16.518  0.5600  1.0873  0.2196
  144DOPC   H2Y17078   2.822   3.227  16.494  0.7315 -3.2998  2.2822
  144DOPC   C2317079   3.095   2.588  16.371  0.4641 -0.4421  0.3550
  144DOPC   H3R17080   3.028   2.638  16.297  1.7629  1.3484  0.3230
  144DOPC   H3S17081   3.047   2.495  16.407 -0.7012 -0.1721 -0.4461
  144DOPC   C2417082   3.220   2.547  16.300  0.1661  0.3467  0.0379
  144DOPC   H4R17083   3.272   2.492  16.382  1.9887  0.1800 -1.1627
  144DOPC   H4S17084   3.263   2.647  16.281  1.0819  0.2331  1.3271
  144DOPC   C2517085   3.213   2.463  16.171 -0.1031  0.0090 -0.1736
  144DOPC   H5R17086   3.235   2.356  16.188 -0.8898 -0.7194 -3.2052
  144DOPC   H5S17087   3.301   2.495  16.111  0.3533  0.3763  0.6847
  144DOPC   C2617088   3.092   2.499  16.080  1.0623 -0.7453  0.3067
  144DOPC   H6R17089   3.098   2.608  16.059  2.6664 -1.1829 -1.7999
  144DOPC   H6S17090   2.999   2.476  16.136  1.3889 -0.4148  0.9932
  144DOPC   C2717091   3.103   2.428  15.936 -1.2060  0.5926  0.1994
  144DOPC   H7R17092   3.053   2.329  15.939 -0.2089  0.0948  1.3392
  144DOPC   H7S17093   3.206   2.388  15.921 -1.4430 -0.5089  1.3941
  144DOPC   C2817094   3.060   2.505  15.811  0.4546  0.0922  0.0557
  144DOPC   H8R17095   3.062   2.614  15.832 -0.3924 -0.1137  1.3143
  144DOPC   H8S17096   2.955   2.481  15.785  0.3707 -0.2463  0.6945
  144DOPC   C2917097   3.145   2.475  15.689  0.3703 -0.7317  0.3806
  144DOPC   H9R17098   3.178   2.370  15.689  3.1993  0.0794  0.3912
  144DOPC  C21017099   3.184   2.556  15.590 -0.1025  0.4477 -0.5456
  144DOPC  H10R17100   3.242   2.508  15.510 -2.6229 -2.1511 -0.9748
  144DOPC  C21117101   3.156   2.703  15.580 -0.7785 -0.7452  0.0432
  144DOPC  H11R17102   3.254   2.748  15.551  0.4262 -2.0137  1.9544
  144DOPC  H11S17103   3.117   2.745  15.675  2.1070 -0.8962  1.4121
  144DOPC  C21217104   3.066   2.754  15.466 -0.3869  0.4038  0.2282
  144DOPC  H12R17105   2.960   2.726  15.477 -0.3394  0.5409  1.1003
  144DOPC  H12S17106   3.101   2.701  15.374 -0.0390  0.2895  0.4221
  144DOPC  C21317107   3.071   2.905  15.458  0.7980 -0.2918  0.6775
  144DOPC  H13R17108   3.046   2.926  15.352  0.1196 -3.3467  0.1316
  144DOPC  H13S17109   3.179   2.931  15.466  0.4667  1.6960 -0.6826
  144DOPC  C21417110   2.987   2.976  15.562  0.1026 -0.6227  0.4021
  144DOPC  H14R17111   3.029   2.949  15.661 -1.4330 -2.8086  0.5272
  144DOPC  H14S17112   2.884   2.937  15.554 -0.1433 -0.1958  1.3959
  144DOPC  C21517113   2.972   3.132  15.544 -0.0296  0.4236 -0.2658
  144DOPC  H15R17114   2.901   3.178  15.616 -0.1523 -0.3269  0.1008
  144DOPC  H15S17115   2.942   3.141  15.438 -0.9235 -0.9941 -0.1535
  144DOPC  C21617116   3.113   3.196  15.563 -0.3375 -0.8124 -0.3856
  144DOPC  H16R17117   3.105   3.300  15.526  4.0334 -1.0714 -2.7300
  144DOPC  H16S17118   3.194   3.147  15.505  0.3302  0.6433 -0.7251
  144DOPC  C21717119   3.153   3.205  15.714 -1.1585  0.4129  0.2827
  144DOPC  H17R17120   3.181   3.106  15.757  2.7866  1.6976  1.0471
  144DOPC  H17S17121   3.066   3.241  15.773 -1.0336  0.8024  0.2288
  144DOPC  C21817122   3.274   3.291  15.724 -0.8661 -0.1973  0.3321
  144DOPC  H18R17123   3.251   3.399  15.715 -0.4036 -0.1815 -0.8758
  144DOPC  H18S17124   3.353   3.266  15.649  0.8223  0.9835  1.6623
  144DOPC  H18T17125   3.331   3.284  15.818  1.8149  1.1577 -1.0885
  144DOPC   C3317126   2.834   3.429  16.561  0.4943 -0.1778 -0.0007
  144DOPC   H3X17127   2.892   3.502  16.621 -1.8480  1.2751  0.6141
  144DOPC   H3Y17128   2.730   3.445  16.595  1.7442  3.0447  2.8836
  144DOPC   C3417129   2.852   3.481  16.408 -0.0583  1.0445  0.1017
  144DOPC   H4X17130   2.770   3.554  16.386  1.1426  3.0159  1.8190
  144DOPC   H4Y17131   2.844   3.387  16.350 -1.5963  0.2302  1.5492
  144DOPC   C3517132   2.999   3.522  16.377  0.5816 -0.6845 -0.4569
  144DOPC   H5X17133   3.065   3.452  16.433 -0.6617 -0.7553  1.0170
  144DOPC   H5Y17134   3.016   3.624  16.416 -0.5642 -0.8400  0.5278
  144DOPC   C3617135   3.028   3.509  16.225  0.9074 -0.6453 -0.5903
  144DOPC   H6X17136   3.019   3.401  16.201 -4.6619 -0.1016 -2.4119
  144DOPC   H6Y17137   2.941   3.566  16.185  1.5429  0.9725  0.2213
  144DOPC   C3717138   3.153   3.582  16.179  0.1156 -0.3422 -0.5485
  144DOPC   H7X17139   3.133   3.691  16.184  2.5526  0.1580 -0.4036
  144DOPC   H7Y17140   3.236   3.558  16.250 -0.7754 -2.4134 -0.1416
  144DOPC   C3817141   3.183   3.549  16.031  0.0653  0.1471  0.5261
  144DOPC   H8X17142   3.114   3.593  15.956  2.2736  1.4364 -0.8396
  144DOPC   H8Y17143   3.176   3.439  16.018  0.5141  0.0271  1.2332
  144DOPC   C3917144   3.322   3.591  16.007  0.5664 -0.4995 -0.8876
  144DOPC   H9X17145   3.397   3.528  16.058  1.6065  0.7874 -0.7676
  144DOPC  C31017146   3.366   3.706  15.947  0.4699 -0.1143  0.6462
  144DOPC  H10X17147   3.473   3.729  15.945  0.1842  1.3699 -1.7465
  144DOPC  C31117148   3.281   3.787  15.861 -0.2211 -0.8181 -0.3934
  144DOPC  H11X17149   3.273   3.891  15.899 -1.5385 -0.4784 -1.5054
  144DOPC  H11Y17150   3.174   3.756  15.855 -0.1041 -1.3833  0.3712
  144DOPC  C31217151   3.331   3.787  15.720 -0.2538 -0.3038  0.2210
  144DOPC  H12X17152   3.438   3.815  15.725 -0.0025 -1.4648  2.8916
  144DOPC  H12Y17153   3.279   3.864  15.659  0.8652  1.3463  1.2662
  144DOPC  C31317154   3.304   3.650  15.650 -0.4495 -0.6785  0.8263
  144DOPC  H13X17155   3.366   3.569  15.694 -0.0725  0.2517  2.0832
  144DOPC  H13Y17156   3.202   3.611  15.670 -1.4043  1.4119  0.2770
  144DOPC  C31417157   3.326   3.653  15.498 -0.0257  0.4234  1.0154
  144DOPC  H14X17158   3.275   3.727  15.433  0.4517 -0.5770 -0.5417
  144DOPC  H14Y17159   3.433   3.683  15.496 -0.2003  1.0612  1.0346
  144DOPC  C31517160   3.325   3.514  15.434  1.2238 -0.4002  0.2330
  144DOPC  H15X17161   3.225   3.467  15.422 -0.1191  2.4637 -0.5997
  144DOPC  H15Y17162   3.370   3.442  15.506  1.7423  0.3550  0.6772
  144DOPC  C31617163   3.387   3.517  15.293  0.2425 -0.8817 -0.1879
  144DOPC  H16X17164   3.328   3.578  15.222  1.0255  1.1489  0.8081
  144DOPC  H16Y17165   3.484   3.572  15.299 -0.0506 -0.2517 -0.9736
  144DOPC  C31717166   3.423   3.385  15.239  0.1048  0.1652 -0.2441
  144DOPC  H17X17167   3.489   3.412  15.154  1.2759  0.2250  0.6470
  144DOPC  H17Y17168   3.484   3.330  15.314 -2.6741 -0.2685  1.8586
  144DOPC  C31817169   3.307   3.305  15.188  0.1093  0.1998  0.3411
  144DOPC  H18X17170   3.241   3.330  15.102 -1.1590 -3.4949  0.0548
  144DOPC  H18Y17171   3.339   3.207  15.146  0.8137  0.3441  0.5340
  144DOPC  H18Z17172   3.238   3.282  15.272 -1.0791  2.5020  0.0608
  145DOPC     N17173   3.240   5.504  17.302  0.6249 -0.5767 -0.1644
  145DOPC   C1217174   3.215   5.492  17.152 -0.3971  0.3617  0.4989
  145DOPC  H12A17175   3.122   5.442  17.131 -2.2429  3.7364 -0.0371
  145DOPC  H12B17176   3.296   5.430  17.116 -0.1957 -0.1042  1.7130
  145DOPC   C1317177   3.137   5.585  17.368 -0.6195 -0.0288 -0.4286
  145DOPC  H13A17178   3.169   5.599  17.470  1.4879  0.0861 -1.0544
  145DOPC  H13B17179   3.127   5.679  17.316  0.0778 -1.0589 -2.5658
  145DOPC  H13C17180   3.038   5.542  17.366 -0.2810 -0.9821  1.4337
  145DOPC   C1417181   3.376   5.571  17.330 -0.3985  0.2726 -0.3561
  145DOPC  H14A17182   3.391   5.590  17.435  1.3613  1.2405 -0.7260
  145DOPC  H14B17183   3.453   5.497  17.313 -1.3427 -0.3233 -2.2348
  145DOPC  H14C17184   3.391   5.659  17.268 -3.5906  1.3725  0.2908
  145DOPC   C1517185   3.235   5.371  17.371 -0.2322  0.0075  0.1529
  145DOPC  H15A17186   3.137   5.331  17.353 -0.9127  1.7130 -0.0965
  145DOPC  H15B17187   3.238   5.388  17.478  0.0852 -1.2348  0.3585
  145DOPC  H15C17188   3.313   5.297  17.359 -1.4082 -1.7491  2.5092
  145DOPC   C1117189   3.213   5.621  17.070 -0.0893 -0.4762 -0.1774
  145DOPC  H11A17190   3.307   5.679  17.086 -0.9468  0.3825  2.2906
  145DOPC  H11B17191   3.203   5.588  16.964  1.9968 -3.9770  0.5690
  145DOPC     P17192   3.105   5.853  17.064 -0.2021 -0.0995  0.0959
  145DOPC   O1317193   3.214   5.937  17.115 -0.1514  0.4708 -0.5534
  145DOPC   O1417194   2.974   5.907  17.100 -0.0363 -0.1230  0.4854
  145DOPC   O1217195   3.109   5.704  17.109  0.1524  0.5022  0.0391
  145DOPC   O1117196   3.127   5.834  16.905  0.2032  0.2902 -0.0322
  145DOPC    C117197   3.197   5.932  16.830 -0.2624 -0.1379  0.2353
  145DOPC    HA17198   3.294   5.958  16.876  0.1914 -2.0405  0.3923
  145DOPC    HB17199   3.144   6.030  16.834  1.1680  0.8367 -2.6441
  145DOPC    C217200   3.206   5.898  16.676  1.0804  0.8203 -0.0650
  145DOPC    HS17201   3.286   5.820  16.669  0.0182 -0.6330  2.4537
  145DOPC   O2117202   3.238   6.010  16.597  0.3853 -0.1898 -0.1316
  145DOPC   C2117203   3.357   6.057  16.602 -0.4571 -0.0925 -0.0832
  145DOPC   O2217204   3.453   6.007  16.657  0.7039 -0.2132  0.0357
  145DOPC   C2217205   3.358   6.175  16.504  0.6189  0.1744 -0.2781
  145DOPC   H2R17206   3.369   6.268  16.564  3.4269 -1.2375  1.5808
  145DOPC   H2S17207   3.263   6.173  16.446  1.6046 -0.3265 -1.9472
  145DOPC    C317208   3.077   5.823  16.623  0.4003 -0.2799 -0.4745
  145DOPC    HX17209   2.987   5.881  16.651  0.3354  0.3794 -1.9274
  145DOPC    HY17210   3.058   5.718  16.656 -3.4356  0.6417  0.8347
  145DOPC   O3117211   3.072   5.821  16.477  0.2968 -0.2692 -0.2232
  145DOPC   C3117212   3.158   5.747  16.408 -0.0754 -0.1535 -0.6296
  145DOPC   O3217213   3.244   5.679  16.460 -0.4629  0.6802  0.1490
  145DOPC   C3217214   3.124   5.740  16.260 -0.3035 -0.3583  0.1652
  145DOPC   H2X17215   3.024   5.694  16.247  0.2772 -2.2902  2.0128
  145DOPC   H2Y17216   3.104   5.842  16.221 -1.8852 -2.0118 -3.9271
  145DOPC   C2317217   3.491   6.179  16.427 -0.1743 -0.1096 -0.4424
  145DOPC   H3R17218   3.578   6.177  16.496 -1.1038  0.2060  0.7861
  145DOPC   H3S17219   3.498   6.281  16.383  1.4047 -0.1435 -0.3378
  145DOPC   C2417220   3.495   6.087  16.308  0.1583 -0.2033  0.2757
  145DOPC   H4R17221   3.478   5.983  16.343 -2.4690 -0.6803 -2.0381
  145DOPC   H4S17222   3.592   6.081  16.255  0.8097  0.4990  1.3526
  145DOPC   C2517223   3.384   6.107  16.204 -0.4549  0.1340 -0.4514
  145DOPC   H5R17224   3.344   6.211  16.203  1.3881  0.8796 -0.2526
  145DOPC   H5S17225   3.295   6.042  16.219 -0.5271 -0.4064 -2.7823
  145DOPC   C2617226   3.435   6.078  16.068  0.8032  0.0275 -0.1023
  145DOPC   H6R17227   3.476   5.975  16.065 -0.9436 -0.7585  1.2978
  145DOPC   H6S17228   3.511   6.158  16.052  0.5660  0.9177  2.7028
  145DOPC   C2717229   3.323   6.085  15.962  0.0530  0.3456 -0.0553
  145DOPC   H7R17230   3.255   6.169  15.989 -1.4325 -0.7785 -0.1464
  145DOPC   H7S17231   3.260   5.994  15.971 -0.9372  0.8446 -1.6842
  145DOPC   C2817232   3.385   6.075  15.823 -0.0022 -0.3507 -0.4778
  145DOPC   H8R17233   3.296   6.065  15.757 -1.5164 -1.2352  1.6227
  145DOPC   H8S17234   3.431   5.974  15.819 -2.2138 -1.6617  3.1739
  145DOPC   C2917235   3.476   6.190  15.781  0.1422 -0.7255 -0.1286
  145DOPC   H9R17236   3.478   6.283  15.840  0.1615 -0.2778 -0.8225
  145DOPC  C21017237   3.563   6.188  15.678  0.0214  0.0309  0.5156
  145DOPC  H10R17238   3.631   6.274  15.668  0.5426 -0.3712  0.5537
  145DOPC  C21117239   3.584   6.082  15.573 -0.0120 -0.1381 -0.0191
  145DOPC  H11R17240   3.518   5.993  15.582 -0.9233  0.4308 -0.9018
  145DOPC  H11S17241   3.690   6.053  15.590  0.0083 -0.3447 -0.5036
  145DOPC  C21217242   3.567   6.131  15.427  0.0260  0.3664 -0.4048
  145DOPC  H12R17243   3.463   6.167  15.410 -0.1521  0.3309  0.5433
  145DOPC  H12S17244   3.588   6.041  15.365 -2.6514 -0.1199 -0.7290
  145DOPC  C21317245   3.653   6.242  15.372 -0.2780 -0.0273 -0.3210
  145DOPC  H13R17246   3.754   6.232  15.417 -0.5575 -3.7257 -0.2098
  145DOPC  H13S17247   3.617   6.340  15.411 -1.2349 -0.7441  0.6694
  145DOPC  C21417248   3.671   6.246  15.221  0.6078 -0.4496  0.9004
  145DOPC  H14R17249   3.679   6.348  15.178 -1.3010 -1.4902 -2.2899
  145DOPC  H14S17250   3.579   6.211  15.169 -0.0209  3.1897 -0.7350
  145DOPC  C21517251   3.803   6.187  15.160 -0.0836 -0.2822  0.5266
  145DOPC  H15R17252   3.815   6.080  15.188 -2.9113 -0.4047  1.6216
  145DOPC  H15S17253   3.895   6.243  15.188  0.6387 -1.2200  0.0939
  145DOPC  C21617254   3.799   6.197  15.005  0.1861  0.1904 -0.0553
  145DOPC  H16R17255   3.692   6.189  14.976 -0.2281  0.9155  1.2174
  145DOPC  H16S17256   3.856   6.116  14.953  0.2026  0.5071 -0.5389
  145DOPC  C21717257   3.858   6.327  14.948  0.0925  0.0782  0.3119
  145DOPC  H17R17258   3.963   6.333  14.982  0.4337 -0.4008 -0.6349
  145DOPC  H17S17259   3.811   6.411  15.004  1.3477  0.9440  0.1019
  145DOPC  C21817260   3.849   6.337  14.797  0.0906 -0.3561 -0.7847
  145DOPC  H18R17261   3.891   6.258  14.731 -2.0450 -1.0803 -1.3578
  145DOPC  H18S17262   3.893   6.434  14.767  0.0158 -0.3413 -0.8470
  145DOPC  H18T17263   3.743   6.342  14.762  0.6590 -0.0899 -2.5491
  145DOPC   C3317264   3.232   5.663  16.180 -0.2095 -0.1887  0.1092
  145DOPC   H3X17265   3.233   5.556  16.211 -0.2985 -0.5398 -1.0511
  145DOPC   H3Y17266   3.327   5.714  16.206  0.8390 -1.7863 -0.3962
  145DOPC   C3417267   3.202   5.685  16.031 -0.6652 -0.4256 -0.2858
  145DOPC   H4X17268   3.169   5.789  16.008 -2.2783 -1.0962 -1.1800
  145DOPC   H4Y17269   3.109   5.627  16.012 -0.0114 -0.9197 -2.2787
  145DOPC   C3517270   3.325   5.656  15.937 -0.4302  0.6519  0.9962
  145DOPC   H5X17271   3.350   5.549  15.948 -4.0522 -0.4524  0.0425
  145DOPC   H5Y17272   3.414   5.714  15.970  0.0364 -0.5741  1.9620
  145DOPC   C3617273   3.304   5.699  15.789  0.2424 -0.2546 -0.5113
  145DOPC   H6X17274   3.220   5.637  15.749  1.5795 -3.1833  0.8875
  145DOPC   H6Y17275   3.270   5.804  15.780 -3.1564 -1.1739  0.1794
  145DOPC   C3717276   3.430   5.674  15.704  1.1229 -0.3310 -0.0907
  145DOPC   H7X17277   3.495   5.759  15.731  0.0891  0.6353 -0.5299
  145DOPC   H7Y17278   3.474   5.581  15.744  1.9789 -0.9315 -2.2594
  145DOPC   C3817279   3.411   5.672  15.551  0.7711 -0.8718  0.4084
  145DOPC   H8X17280   3.345   5.589  15.518 -1.2010  0.5456  0.5942
  145DOPC   H8Y17281   3.510   5.650  15.507  0.2369 -1.1183 -0.6990
  145DOPC   C3917282   3.353   5.797  15.489 -0.2329 -0.2427  0.6823
  145DOPC   H9X17283   3.321   5.869  15.566  0.6725  0.0902  0.7536
  145DOPC  C31017284   3.339   5.828  15.355 -0.4294 -0.0320  0.2313
  145DOPC  H10X17285   3.307   5.925  15.314 -0.2865  0.4056  1.1385
  145DOPC  C31117286   3.394   5.736  15.246 -0.3184 -0.3670 -0.4424
  145DOPC  H11X17287   3.450   5.652  15.292  1.4998  0.8361 -0.3692
  145DOPC  H11Y17288   3.469   5.788  15.182 -1.0841 -1.6482 -2.5078
  145DOPC  C31217289   3.277   5.692  15.161 -0.0633  0.3534  0.4234
  145DOPC  H12X17290   3.247   5.779  15.099 -2.8274 -1.0015 -0.2661
  145DOPC  H12Y17291   3.186   5.662  15.216 -0.6994 -0.9208 -1.2474
  145DOPC  C31317292   3.315   5.583  15.063  0.9466  0.4151  0.6048
  145DOPC  H13X17293   3.409   5.620  15.016  0.5147 -0.5500 -1.1079
  145DOPC  H13Y17294   3.341   5.484  15.109 -0.3523 -0.2881 -0.1287
  145DOPC  C31417295   3.209   5.546  14.955  0.1600  0.0444 -0.3004
  145DOPC  H14X17296   3.112   5.504  14.989  0.1547 -0.3218 -0.7542
  145DOPC  H14Y17297   3.193   5.640  14.898 -0.6202 -0.8450 -1.6054
  145DOPC  C31517298   3.260   5.440  14.857  0.0564  0.4679 -0.4107
  145DOPC  H15X17299   3.264   5.339  14.903  1.5679  0.4963 -0.4504
  145DOPC  H15Y17300   3.360   5.476  14.826 -0.0030  0.6048 -0.4412
  145DOPC  C31617301   3.173   5.426  14.726 -0.2564  0.2039 -0.3358
  145DOPC  H16X17302   3.190   5.332  14.668 -0.4994 -0.8227  1.2009
  145DOPC  H16Y17303   3.066   5.435  14.754  0.2034  4.1080  0.6266
  145DOPC  C31717304   3.203   5.539  14.641  0.0818 -0.3297  1.0184
  145DOPC  H17X17305   3.163   5.631  14.688 -0.4394 -0.0631  0.0755
  145DOPC  H17Y17306   3.313   5.551  14.638 -0.1942  2.7363 -0.3317
  145DOPC  C31817307   3.148   5.521  14.495  0.5542  0.2103 -0.7584
  145DOPC  H18X17308   3.183   5.425  14.450 -0.7644  0.1651 -1.7324
  145DOPC  H18Y17309   3.038   5.525  14.481  0.1918  2.0280  1.7843
  145DOPC  H18Z17310   3.191   5.597  14.426 -2.1171  1.3901 -1.2607
  146DOPC     N17311   6.063   3.527  17.107 -0.4288  0.1820  0.1032
  146DOPC   C1217312   5.944   3.435  17.078  0.1450 -0.7473 -0.4246
  146DOPC  H12A17313   5.859   3.501  17.090  0.0463 -1.1104  1.1266
  146DOPC  H12B17314   5.933   3.357  17.152 -0.6438 -1.3866 -1.2007
  146DOPC   C1317315   6.193   3.453  17.077  0.5905 -0.3868 -0.1516
  146DOPC  H13A17316   6.285   3.509  17.089  0.0051  0.4329  0.7333
  146DOPC  H13B17317   6.210   3.376  17.150  2.0881  1.7137  1.8633
  146DOPC  H13C17318   6.191   3.422  16.974 -0.6633  1.5759 -0.7883
  146DOPC   C1417319   6.068   3.550  17.252 -0.1020 -0.2633 -0.1640
  146DOPC  H14A17320   6.094   3.464  17.311  2.8574  1.6727  1.6090
  146DOPC  H14B17321   6.138   3.628  17.280 -0.2294 -0.0975 -0.3047
  146DOPC  H14C17322   5.973   3.589  17.286  0.2555 -0.4736  1.1252
  146DOPC   C1517323   6.057   3.662  17.037 -0.3644 -0.0359  0.9440
  146DOPC  H15A17324   6.019   3.655  16.937 -0.8304 -0.4308  1.1449
  146DOPC  H15B17325   6.152   3.713  17.025 -1.4945  1.8352 -0.7649
  146DOPC  H15C17326   5.987   3.722  17.094  0.0001 -0.1456  1.5181
  146DOPC   C1117327   5.941   3.361  16.940  0.5322 -0.1390  0.4777
  146DOPC  H11A17328   5.959   3.433  16.858 -0.4878 -1.4593 -0.9788
  146DOPC  H11B17329   6.022   3.286  16.930 -0.1684 -0.6827 -1.5556
  146DOPC     P17330   5.772   3.165  16.952 -0.2428  0.3335 -0.0045
  146DOPC   O1317331   5.632   3.147  16.910  0.5002 -0.0450 -0.0551
  146DOPC   O1417332   5.797   3.138  17.098  0.4351 -0.0100  0.2892
  146DOPC   O1217333   5.808   3.312  16.918  0.5214  0.1438 -0.2088
  146DOPC   O1117334   5.877   3.072  16.872 -0.1099  0.1070 -0.1100
  146DOPC    C117335   5.849   3.048  16.732  0.0593  0.4864 -0.8448
  146DOPC    HA17336   5.851   3.139  16.668 -0.0698  0.3690 -1.0174
  146DOPC    HB17337   5.744   3.012  16.725 -0.9325  3.2377 -1.3008
  146DOPC    C217338   5.952   2.947  16.656 -0.0165  0.4526  0.5231
  146DOPC    HS17339   5.909   2.906  16.563  0.0750  0.6948  0.3739
  146DOPC   O2117340   5.987   2.840  16.742 -0.2095 -0.1743 -0.2798
  146DOPC   C2117341   5.885   2.763  16.792 -0.4040 -0.4065  0.8340
  146DOPC   O2217342   5.770   2.785  16.762 -0.0917  0.4375  0.4375
  146DOPC   C2217343   5.935   2.654  16.886 -0.3936 -0.4061  0.3511
  146DOPC   H2R17344   5.855   2.639  16.962  0.9013 -2.9213  1.3414
  146DOPC   H2S17345   6.028   2.696  16.931  0.3856  0.7103 -2.0849
  146DOPC    C317346   6.076   3.025  16.611 -0.6897  0.1680 -1.0133
  146DOPC    HX17347   6.125   3.066  16.701 -2.4054 -0.9902  0.5271
  146DOPC    HY17348   6.048   3.118  16.556 -0.3452 -0.2905 -1.9953
  146DOPC   O3117349   6.170   2.941  16.542  0.1938 -0.1857  0.6555
  146DOPC   C3117350   6.156   2.936  16.411  0.5687 -1.0125  0.5312
  146DOPC   O3217351   6.071   2.997  16.344  0.1876  0.8705 -0.1594
  146DOPC   C3217352   6.279   2.856  16.364  0.2279 -0.0670  0.0963
  146DOPC   H2X17353   6.363   2.930  16.366 -1.0543  1.4756 -0.4934
  146DOPC   H2Y17354   6.293   2.765  16.425 -0.5490 -1.5200 -1.7904
  146DOPC   C2317355   5.967   2.517  16.822  0.6405 -0.4602  1.0911
  146DOPC   H3R17356   5.876   2.478  16.770  0.2165 -1.7144  2.6880
  146DOPC   H3S17357   5.971   2.457  16.915  0.2530  2.4653  3.1248
  146DOPC   C2417358   6.090   2.514  16.743 -0.1380  0.0432  0.2244
  146DOPC   H4R17359   6.129   2.411  16.752  0.1754 -0.1156 -2.2668
  146DOPC   H4S17360   6.164   2.578  16.795 -0.7915  2.6319 -1.7811
  146DOPC   C2517361   6.085   2.568  16.605  0.3074  0.4539  0.5154
  146DOPC   H5R17362   6.183   2.538  16.563  1.3118  0.1827  2.8689
  146DOPC   H5S17363   6.089   2.679  16.609  3.4062  0.5888 -2.2021
  146DOPC   C2617364   5.963   2.519  16.524 -0.2822 -0.2103  0.5461
  146DOPC   H6R17365   5.866   2.564  16.553  0.4968  3.2132 -1.6801
  146DOPC   H6S17366   5.950   2.409  16.538  3.3822 -0.7825  0.4368
  146DOPC   C2717367   5.979   2.559  16.377 -0.0161 -0.4532  0.2386
  146DOPC   H7R17368   6.077   2.543  16.326  0.3814  2.0519  0.0912
  146DOPC   H7S17369   5.965   2.669  16.363  0.4766 -0.2618  1.2019
  146DOPC   C2817370   5.866   2.504  16.287 -0.1951 -0.5554 -0.1260
  146DOPC   H8R17371   5.768   2.524  16.335 -0.7941 -0.8412 -1.1929
  146DOPC   H8S17372   5.882   2.394  16.288  1.1761 -0.3606  0.2392
  146DOPC   C2917373   5.857   2.552  16.140  0.0113  0.0647 -0.3717
  146DOPC   H9R17374   5.897   2.473  16.075 -1.3803 -0.5208 -0.5579
  146DOPC  C21017375   5.809   2.671  16.098  0.0345  0.3019 -0.9098
  146DOPC  H10R17376   5.832   2.700  15.994 -0.3819  1.3829 -0.7128
  146DOPC  C21117377   5.744   2.785  16.177  0.4764  0.3985 -0.0020
  146DOPC  H11R17378   5.782   2.879  16.131  2.1212 -0.9912 -1.6805
  146DOPC  H11S17379   5.780   2.778  16.282 -1.0793 -0.5306  0.5052
  146DOPC  C21217380   5.596   2.789  16.191 -0.1223 -0.7867 -0.1078
  146DOPC  H12R17381   5.568   2.874  16.257  0.1608 -1.8195  1.4001
  146DOPC  H12S17382   5.569   2.692  16.237  0.4590 -1.1973 -0.6233
  146DOPC  C21317383   5.533   2.805  16.053  0.2190 -0.8720  0.6713
  146DOPC  H13R17384   5.579   2.742  15.974  0.4845 -0.8512  0.8066
  146DOPC  H13S17385   5.541   2.909  16.015 -3.3064 -0.8378 -0.3284
  146DOPC  C21417386   5.379   2.812  16.064 -0.5912  0.1656  0.0779
  146DOPC  H14R17387   5.340   2.904  16.113  0.3369  1.2823 -1.2144
  146DOPC  H14S17388   5.345   2.730  16.132 -0.4071 -0.4100 -0.5106
  146DOPC  C21517389   5.298   2.789  15.930  0.0069 -0.0706 -0.6514
  146DOPC  H15R17390   5.330   2.690  15.890 -1.6782 -0.5900 -0.7707
  146DOPC  H15S17391   5.329   2.870  15.860  2.6093 -1.0781 -0.7752
  146DOPC  C21617392   5.146   2.784  15.955 -0.6458  0.5358  0.3740
  146DOPC  H16R17393   5.127   2.704  16.030 -0.4319  0.7367  0.6438
  146DOPC  H16S17394   5.106   2.767  15.853 -0.7387 -1.3760  0.6839
  146DOPC  C21717395   5.063   2.908  16.011  0.0367  0.2269  0.4962
  146DOPC  H17R17396   5.105   2.919  16.113  0.1156  0.6803  0.4148
  146DOPC  H17S17397   4.956   2.878  16.017 -0.2381  0.9225 -0.4872
  146DOPC  C21817398   5.080   3.033  15.928  0.1770 -0.6590  0.9295
  146DOPC  H18R17399   5.048   3.123  15.985  0.5536  0.7955 -1.0209
  146DOPC  H18S17400   5.028   3.031  15.830  0.7441 -1.5248  0.6410
  146DOPC  H18T17401   5.188   3.049  15.907 -0.6438  1.4591 -2.5247
  146DOPC   C3317402   6.276   2.793  16.221  0.0484  0.4370  0.6270
  146DOPC   H3X17403   6.260   2.875  16.148 -2.0108 -0.0342  0.5119
  146DOPC   H3Y17404   6.185   2.730  16.214  0.1970  0.4023 -1.5257
  146DOPC   C3417405   6.391   2.693  16.199 -0.0067 -0.7708 -0.2878
  146DOPC   H4X17406   6.397   2.611  16.273  3.5542  1.3332  2.0747
  146DOPC   H4Y17407   6.480   2.758  16.213  0.8261 -2.0519  0.5623
  146DOPC   C3517408   6.391   2.637  16.058  0.6862  0.5003  0.0046
  146DOPC   H5X17409   6.324   2.698  15.993 -0.2402  0.9396  1.3112
  146DOPC   H5Y17410   6.350   2.534  16.064  2.2928 -0.1189  1.0397
  146DOPC   C3617411   6.531   2.638  16.002  0.2882 -0.5368  0.3837
  146DOPC   H6X17412   6.578   2.739  16.006 -2.0120  0.6826 -1.4060
  146DOPC   H6Y17413   6.604   2.565  16.044  0.5107  0.5743  2.0295
  146DOPC   C3717414   6.533   2.606  15.844 -0.6889 -0.5527  0.1838
  146DOPC   H7X17415   6.639   2.598  15.813 -0.2562 -2.1592  1.8396
  146DOPC   H7Y17416   6.496   2.501  15.839 -0.7496 -0.6094  1.4769
  146DOPC   C3817417   6.459   2.706  15.757 -1.5252  0.3091 -0.5614
  146DOPC   H8X17418   6.389   2.768  15.817 -0.2198  1.4191 -0.1181
  146DOPC   H8Y17419   6.395   2.652  15.685  0.3518 -3.6638  0.4656
  146DOPC   C3917420   6.565   2.803  15.710 -0.2010 -0.4675  0.0874
  146DOPC   H9X17421   6.591   2.885  15.780  1.7744 -1.3422  0.4668
  146DOPC  C31017422   6.596   2.812  15.580  0.0254  0.6182  0.8968
  146DOPC  H10X17423   6.675   2.880  15.546 -0.2535  1.3358  1.6493
  146DOPC  C31117424   6.556   2.718  15.468 -0.4326 -0.1192 -0.1847
  146DOPC  H11X17425   6.513   2.624  15.509  1.2837 -0.8018  0.1034
  146DOPC  H11Y17426   6.648   2.692  15.412  0.1705  1.3551  0.0855
  146DOPC  C31217427   6.444   2.773  15.368 -0.1827  1.1044  0.0992
  146DOPC  H12X17428   6.469   2.875  15.332  2.8337  0.3437 -0.2706
  146DOPC  H12Y17429   6.358   2.782  15.437  0.9080  3.2718  1.3000
  146DOPC  C31317430   6.431   2.676  15.247  0.1170 -0.4241 -0.1909
  146DOPC  H13X17431   6.348   2.712  15.183  1.2262 -1.7989 -2.5476
  146DOPC  H13Y17432   6.522   2.679  15.184 -0.1498 -0.6058 -0.5975
  146DOPC  C31417433   6.401   2.521  15.273 -0.0666 -0.7149  0.3789
  146DOPC  H14X17434   6.477   2.483  15.344 -0.0001  0.4028  0.9229
  146DOPC  H14Y17435   6.304   2.508  15.325 -0.5988 -1.1765 -0.7039
  146DOPC  C31517436   6.376   2.440  15.145 -0.7639  0.0995 -0.5004
  146DOPC  H15X17437   6.452   2.473  15.071  1.3905  0.5510  1.7689
  146DOPC  H15Y17438   6.275   2.466  15.107 -0.9818 -0.6634 -0.4595
  146DOPC  C31617439   6.397   2.291  15.174  0.1623  0.5234  0.4327
  146DOPC  H16X17440   6.502   2.286  15.211  1.7964  1.6996 -3.3852
  146DOPC  H16Y17441   6.331   2.258  15.256 -0.4499  2.4465  0.7680
  146DOPC  C31717442   6.415   2.183  15.060  0.0743  0.2033  0.4594
  146DOPC  H17X17443   6.436   2.083  15.105  0.7990 -0.6322 -1.6262
  146DOPC  H17Y17444   6.331   2.172  14.988 -1.0176  0.8904  1.5828
  146DOPC  C31817445   6.526   2.213  14.965 -0.2534  0.0821 -0.1568
  146DOPC  H18X17446   6.519   2.319  14.936  2.8994  0.0531 -1.3517
  146DOPC  H18Y17447   6.623   2.181  15.010 -0.3643  1.3820  1.0723
  146DOPC  H18Z17448   6.501   2.145  14.881 -1.3313 -0.2289  0.3912
  147DOPC     N17449   2.550   3.306  17.060  0.7301  0.8578  0.4492
  147DOPC   C1217450   2.408   3.367  17.080  0.7355 -0.5831  0.1275
  147DOPC  H12A17451   2.366   3.386  16.983 -0.0724 -0.9172  0.3994
  147DOPC  H12B17452   2.422   3.467  17.119  0.3335  0.0591 -1.3165
  147DOPC   C1317453   2.552   3.158  17.020 -0.2469  0.4797 -0.0226
  147DOPC  H13A17454   2.514   3.096  17.100 -1.2745 -0.1522 -0.9723
  147DOPC  H13B17455   2.479   3.152  16.940  0.3996 -0.2402 -0.5682
  147DOPC  H13C17456   2.644   3.114  16.985 -1.1467 -0.8519 -0.8278
  147DOPC   C1417457   2.631   3.317  17.184 -0.9914  0.5095  0.1632
  147DOPC  H14A17458   2.649   3.418  17.218  0.1531 -0.1655  1.6986
  147DOPC  H14B17459   2.581   3.265  17.264 -1.8975  0.0919 -0.6545
  147DOPC  H14C17460   2.729   3.274  17.169 -2.0431 -2.3296  0.8416
  147DOPC   C1517461   2.615   3.383  16.942  0.4014  0.1476 -0.1117
  147DOPC  H15A17462   2.617   3.489  16.964  2.1838 -0.3729  2.8198
  147DOPC  H15B17463   2.560   3.376  16.849  1.9550 -1.0223 -0.9915
  147DOPC  H15C17464   2.715   3.345  16.927 -0.4385 -1.6503 -1.4860
  147DOPC   C1117465   2.309   3.298  17.179 -0.0618 -0.4068  0.0609
  147DOPC  H11A17466   2.278   3.203  17.130 -1.6147 -0.4750  1.0853
  147DOPC  H11B17467   2.361   3.282  17.276 -1.8150  1.3796  1.3879
  147DOPC     P17468   2.055   3.356  17.141  0.1254 -0.1089  0.0741
  147DOPC   O1317469   1.969   3.469  17.173 -0.2012 -0.1712 -0.1832
  147DOPC   O1417470   2.009   3.224  17.193  0.2370 -0.7222  0.5406
  147DOPC   O1217471   2.197   3.389  17.204 -0.2241  0.3526 -0.6392
  147DOPC   O1117472   2.096   3.358  16.991  0.0513 -0.1885 -0.1293
  147DOPC    C117473   2.110   3.235  16.925  0.8314  1.0828  0.1226
  147DOPC    HA17474   2.075   3.141  16.974  1.1446  0.9683  0.1331
  147DOPC    HB17475   2.219   3.218  16.912  0.9332  0.8068  1.2403
  147DOPC    C217476   2.032   3.242  16.786 -0.2394  0.3973 -0.9248
  147DOPC    HS17477   2.027   3.145  16.732 -0.3348 -0.5786  0.7753
  147DOPC   O2117478   2.095   3.335  16.699  0.1654 -0.0328 -0.1524
  147DOPC   C2117479   2.214   3.296  16.659  0.1738 -0.7565 -0.1726
  147DOPC   O2217480   2.269   3.187  16.679  0.5215  0.0918  0.3397
  147DOPC   C2217481   2.252   3.405  16.554 -0.4749  0.5429 -0.6569
  147DOPC   H2R17482   2.282   3.492  16.617  0.6231  0.1672 -0.6509
  147DOPC   H2S17483   2.158   3.430  16.500 -1.8984  0.7687  1.7580
  147DOPC    C317484   1.881   3.275  16.814  0.0069 -0.6840  0.0777
  147DOPC    HX17485   1.864   3.368  16.872 -0.1853  0.5813 -1.9263
  147DOPC    HY17486   1.848   3.196  16.884 -0.5701 -1.0476 -0.5954
  147DOPC   O3117487   1.808   3.268  16.694  0.0166 -0.3198  0.2720
  147DOPC   C3117488   1.777   3.386  16.637  0.8025 -0.5161 -0.3406
  147DOPC   O3217489   1.811   3.494  16.677 -0.2859 -0.1714 -0.3020
  147DOPC   C3217490   1.675   3.372  16.525  0.5867  0.1930  0.2483
  147DOPC   H2X17491   1.655   3.265  16.506 -0.0981  0.4370 -0.4580
  147DOPC   H2Y17492   1.580   3.428  16.539 -0.1812 -1.0621  0.2122
  147DOPC   C2317493   2.357   3.348  16.459 -0.5359  0.6241 -0.1123
  147DOPC   H3R17494   2.327   3.249  16.419 -0.6631  0.3910  0.5428
  147DOPC   H3S17495   2.454   3.333  16.512 -0.5382 -1.1055 -0.5429
  147DOPC   C2417496   2.380   3.433  16.336  0.2385  0.8670  0.3414
  147DOPC   H4R17497   2.392   3.542  16.358  1.5157  0.5958  1.0481
  147DOPC   H4S17498   2.282   3.429  16.283 -1.1349  2.7392  2.5442
  147DOPC   C2517499   2.494   3.380  16.250 -0.3805 -0.8655 -0.3093
  147DOPC   H5R17500   2.471   3.273  16.230 -0.1376 -0.9693 -0.0378
  147DOPC   H5S17501   2.578   3.392  16.322  0.1656  1.9332 -1.2554
  147DOPC   C2617502   2.529   3.457  16.121 -0.4788 -0.2562  0.2212
  147DOPC   H6R17503   2.543   3.563  16.148 -0.9452  0.1683 -1.1343
  147DOPC   H6S17504   2.452   3.456  16.040 -0.4320  1.5271  0.1302
  147DOPC   C2717505   2.668   3.406  16.061  0.0669  0.0713  0.1708
  147DOPC   H7R17506   2.654   3.309  16.010  1.3880  0.5522 -1.1804
  147DOPC   H7S17507   2.741   3.385  16.142  1.8281  3.0553 -0.5002
  147DOPC   C2817508   2.713   3.522  15.962  0.7119 -0.1804  0.1717
  147DOPC   H8R17509   2.738   3.608  16.027 -3.3628 -0.5937  2.6259
  147DOPC   H8S17510   2.621   3.552  15.908  0.6120  1.1715  1.0558
  147DOPC   C2917511   2.827   3.476  15.876 -0.0550  0.0347 -0.3528
  147DOPC   H9R17512   2.893   3.401  15.923 -0.9358  0.3261  1.4444
  147DOPC  C21017513   2.865   3.533  15.757  0.0587  0.0263 -0.3562
  147DOPC  H10R17514   2.943   3.486  15.695 -0.3972 -0.3782 -0.6278
  147DOPC  C21117515   2.793   3.648  15.681  0.1127 -0.3792  0.3658
  147DOPC  H11R17516   2.733   3.718  15.743  1.2798  0.4579  0.5741
  147DOPC  H11S17517   2.727   3.594  15.609  0.7921 -1.5554  0.5953
  147DOPC  C21217518   2.882   3.747  15.597  0.2012 -0.1160 -0.6748
  147DOPC  H12R17519   2.950   3.804  15.663 -1.3171  0.2217  0.6531
  147DOPC  H12S17520   2.810   3.817  15.549 -0.2950 -0.3016 -0.2064
  147DOPC  C21317521   2.951   3.677  15.486  0.0858  0.3277  0.1115
  147DOPC  H13R17522   2.880   3.599  15.451  1.9820 -1.5542  0.2917
  147DOPC  H13S17523   3.044   3.628  15.522  0.8856 -0.2482 -2.4927
  147DOPC  C21417524   2.986   3.763  15.364 -0.4656  0.2395  0.4299
  147DOPC  H14R17525   3.080   3.818  15.388 -0.7595  2.1441 -2.2556
  147DOPC  H14S17526   2.900   3.831  15.345 -1.1726 -0.5560  0.7454
  147DOPC  C21517527   2.992   3.663  15.242 -0.1041  0.1455  0.1664
  147DOPC  H15R17528   2.887   3.625  15.240 -0.1363  0.2457 -0.1844
  147DOPC  H15S17529   3.058   3.581  15.276 -0.1249  0.2884  0.5513
  147DOPC  C21617530   3.032   3.723  15.110  0.5196  0.3329 -0.8293
  147DOPC  H16R17531   3.125   3.782  15.123  1.3415 -1.1161  0.0276
  147DOPC  H16S17532   2.946   3.786  15.080  0.1537 -1.0590 -2.9166
  147DOPC  C21717533   3.048   3.619  15.001 -0.4236 -0.0633 -0.0277
  147DOPC  H17R17534   3.122   3.545  15.037 -0.0271 -0.9528 -2.5177
  147DOPC  H17S17535   3.087   3.677  14.915  0.9223  0.0189  0.6032
  147DOPC  C21817536   2.916   3.548  14.967  0.1314  0.3076  0.5250
  147DOPC  H18R17537   2.888   3.477  15.047  2.4171 -1.7232 -0.3408
  147DOPC  H18S17538   2.925   3.497  14.868  3.3846  0.2874  0.6965
  147DOPC  H18T17539   2.828   3.615  14.957  0.8917  1.2977  0.1975
  147DOPC   C3317540   1.736   3.428  16.403  0.2589  0.2554  0.0269
  147DOPC   H3X17541   1.824   3.365  16.378 -0.0472 -0.4719  0.7211
  147DOPC   H3Y17542   1.775   3.531  16.418  0.2156  0.1601  0.8130
  147DOPC   C3417543   1.646   3.445  16.281 -0.3773  0.3437  0.4018
  147DOPC   H4X17544   1.554   3.503  16.302 -0.5804  0.3536 -0.4889
  147DOPC   H4Y17545   1.608   3.343  16.259 -1.4769  0.6052  1.0469
  147DOPC   C3517546   1.710   3.515  16.163  0.3229  0.4458  0.3276
  147DOPC   H5X17547   1.752   3.614  16.187 -0.0713  0.7678 -0.2757
  147DOPC   H5Y17548   1.634   3.545  16.088  0.3521 -0.1708  0.0445
  147DOPC   C3617549   1.818   3.435  16.094 -0.8574  0.2003  0.7472
  147DOPC   H6X17550   1.909   3.441  16.157 -0.5124 -0.4313  0.3193
  147DOPC   H6Y17551   1.791   3.328  16.101 -0.8533  0.2185  1.0708
  147DOPC   C3717552   1.865   3.471  15.947  0.1407  0.3862  0.4385
  147DOPC   H7X17553   1.874   3.582  15.942 -0.3845  0.3739 -1.4715
  147DOPC   H7Y17554   1.960   3.421  15.920 -0.1142  0.4950 -0.6874
  147DOPC   C3817555   1.767   3.436  15.834 -0.1847 -1.0202  0.2875
  147DOPC   H8X17556   1.814   3.486  15.747  0.4980  0.9268  1.7128
  147DOPC   H8Y17557   1.676   3.495  15.860  3.1768  4.6129  0.9379
  147DOPC   C3917558   1.736   3.290  15.824  0.8905  0.0267 -0.1915
  147DOPC   H9X17559   1.679   3.247  15.907  1.2505 -2.4285 -1.1353
  147DOPC  C31017560   1.795   3.200  15.744  0.1212 -0.4536 -0.7385
  147DOPC  H10X17561   1.762   3.095  15.751  0.9324 -0.6966 -0.3985
  147DOPC  C31117562   1.903   3.242  15.643  0.0638 -0.0108  0.2852
  147DOPC  H11X17563   1.985   3.168  15.656  0.2165 -0.2674 -1.8244
  147DOPC  H11Y17564   1.940   3.346  15.657  0.4770 -0.0278 -0.6102
  147DOPC  C31217565   1.839   3.226  15.498  0.0866  0.1981  0.0105
  147DOPC  H12X17566   1.738   3.271  15.486 -0.2359 -0.9370 -1.7479
  147DOPC  H12Y17567   1.827   3.116  15.493  0.1684  0.1843  0.1082
  147DOPC  C31317568   1.920   3.269  15.375 -0.2316  0.7028 -1.1481
  147DOPC  H13X17569   1.863   3.241  15.283  0.9670 -0.9154 -1.4380
  147DOPC  H13Y17570   1.949   3.376  15.382 -0.3729  0.6520  0.5636
  147DOPC  C31417571   2.050   3.185  15.354  0.7680  0.2434  0.6092
  147DOPC  H14X17572   2.131   3.188  15.430  1.2464 -3.0335  0.3745
  147DOPC  H14Y17573   2.017   3.080  15.339  0.4017  0.5721 -1.1044
  147DOPC  C31517574   2.118   3.233  15.220  0.6397 -0.8227  0.1611
  147DOPC  H15X17575   2.145   3.340  15.239 -2.8466  0.6848 -2.3831
  147DOPC  H15Y17576   2.042   3.222  15.140  0.6935 -0.8848  0.1195
  147DOPC  C31617577   2.237   3.149  15.186  0.0218 -0.5753  0.0780
  147DOPC  H16X17578   2.315   3.149  15.265  1.5807  1.0767 -1.3380
  147DOPC  H16Y17579   2.198   3.046  15.172 -0.1987 -0.2932 -1.6476
  147DOPC  C31717580   2.305   3.186  15.052 -0.1100 -0.2023 -0.3945
  147DOPC  H17X17581   2.238   3.179  14.964 -0.2036 -0.4949 -0.3014
  147DOPC  H17Y17582   2.342   3.290  15.064  1.0805 -0.5442 -0.8683
  147DOPC  C31817583   2.423   3.092  15.032  0.0333  0.0947  0.6067
  147DOPC  H18X17584   2.502   3.110  15.109  1.5537  1.7928 -1.2577
  147DOPC  H18Y17585   2.406   2.983  15.019  1.8803 -0.0941 -0.5991
  147DOPC  H18Z17586   2.473   3.130  14.941  0.9938  1.3859  1.6232
  148DOPC     N17587   2.028   6.231  16.744  0.7937 -0.2893  0.1376
  148DOPC   C1217588   2.058   6.266  16.605  0.3151 -0.3858  0.2164
  148DOPC  H12A17589   1.965   6.257  16.551 -0.4554  1.1233  1.2067
  148DOPC  H12B17590   2.132   6.197  16.566 -1.5593 -1.1913 -2.1881
  148DOPC   C1317591   1.935   6.329  16.796  0.0817  0.0144 -0.4924
  148DOPC  H13A17592   1.852   6.351  16.730 -2.7409 -3.6966  1.4972
  148DOPC  H13B17593   1.893   6.301  16.890  0.9134  0.0365 -0.1012
  148DOPC  H13C17594   1.993   6.420  16.806  1.5173 -0.8713 -0.5049
  148DOPC   C1417595   2.151   6.228  16.835  0.6070  0.2202 -0.8426
  148DOPC  H14A17596   2.128   6.208  16.939  0.2523  2.5365 -0.4319
  148DOPC  H14B17597   2.223   6.158  16.796  2.7274  0.6195  2.0555
  148DOPC  H14C17598   2.201   6.323  16.821 -0.6383  1.1672  0.8320
  148DOPC   C1517599   1.964   6.094  16.748 -0.2458  0.3996 -0.8629
  148DOPC  H15A17600   1.945   6.056  16.847 -2.2468  0.3568 -1.2187
  148DOPC  H15B17601   2.036   6.025  16.707 -1.9768 -2.9521  1.3153
  148DOPC  H15C17602   1.873   6.091  16.690 -0.1514  0.8450 -1.0435
  148DOPC   C1117603   2.120   6.407  16.575  0.6263  0.4256  0.3941
  148DOPC  H11A17604   2.132   6.425  16.466  2.2040 -0.4036  0.4027
  148DOPC  H11B17605   2.051   6.488  16.606 -0.4089 -1.4265  3.2905
  148DOPC     P17606   2.373   6.490  16.562  0.0835  0.1439  0.0987
  148DOPC   O1317607   2.492   6.492  16.649  0.0739 -0.2657  0.1356
  148DOPC   O1417608   2.332   6.619  16.518  0.4370 -0.7173  0.0134
  148DOPC   O1217609   2.248   6.425  16.637  0.0252  0.4650 -0.5761
  148DOPC   O1117610   2.409   6.400  16.437 -0.7334  0.1995 -0.1554
  148DOPC    C117611   2.372   6.261  16.427 -0.5474 -0.0589 -0.2289
  148DOPC    HA17612   2.263   6.251  16.409 -0.5988 -0.6483  0.4178
  148DOPC    HB17613   2.397   6.209  16.522 -1.7663  0.7117  0.5380
  148DOPC    C217614   2.445   6.200  16.305  0.0685 -0.4513  0.5061
  148DOPC    HS17615   2.405   6.098  16.287 -1.1099 -0.0855  0.9138
  148DOPC   O2117616   2.587   6.204  16.301 -0.6058  0.3663 -0.0828
  148DOPC   C2117617   2.635   6.119  16.387 -0.5381  0.9772 -1.2015
  148DOPC   O2217618   2.571   6.036  16.449 -0.0782  0.1515 -0.1485
  148DOPC   C2217619   2.792   6.115  16.394 -0.0851  0.3018 -0.7462
  148DOPC   H2R17620   2.821   6.017  16.438  0.2901  0.7890  0.1041
  148DOPC   H2S17621   2.839   6.193  16.456 -1.0259 -0.2796  0.7449
  148DOPC    C317622   2.387   6.276  16.178  0.1645  0.3632  0.4915
  148DOPC    HX17623   2.400   6.386  16.185 -2.1348  0.9199 -2.0625
  148DOPC    HY17624   2.277   6.258  16.186  0.2507 -1.2391 -1.1895
  148DOPC   O3117625   2.430   6.213  16.053  0.1325 -0.0471 -0.4140
  148DOPC   C3117626   2.547   6.267  16.011 -0.3717  0.0353 -0.7423
  148DOPC   O3217627   2.602   6.363  16.058  1.1688  0.2344 -0.5024
  148DOPC   C3217628   2.595   6.187  15.885 -0.1105  0.4762 -0.2208
  148DOPC   H2X17629   2.695   6.151  15.916 -0.2899  0.0996 -0.0836
  148DOPC   H2Y17630   2.544   6.093  15.856 -0.2516  0.6353 -0.4966
  148DOPC   C2317631   2.870   6.114  16.258  0.1643 -0.3197 -0.6488
  148DOPC   H3R17632   2.978   6.128  16.279 -0.3645  1.1059  1.6012
  148DOPC   H3S17633   2.844   6.213  16.215 -0.5792  0.1871  0.8678
  148DOPC   C2417634   2.854   5.994  16.166 -0.0420 -0.7060 -0.3223
  148DOPC   H4R17635   2.744   5.979  16.156 -0.3463 -1.3640  2.9060
  148DOPC   H4S17636   2.889   5.897  16.206 -1.6040 -0.8799  0.7376
  148DOPC   C2517637   2.929   6.015  16.035  0.1157 -0.8308  1.1831
  148DOPC   H5R17638   3.040   6.014  16.041  0.3918  1.3889 -1.7143
  148DOPC   H5S17639   2.902   6.113  15.991  3.2121 -0.6363 -0.5604
  148DOPC   C2617640   2.886   5.909  15.940 -0.4534 -0.0400 -0.0885
  148DOPC   H6R17641   2.776   5.895  15.932 -0.1552 -2.3614 -1.1084
  148DOPC   H6S17642   2.921   5.809  15.973 -2.9106 -0.8346  0.2626
  148DOPC   C2717643   2.923   5.941  15.795 -0.6848 -0.6114 -0.3191
  148DOPC   H7R17644   3.033   5.940  15.776 -0.3653  0.4130  1.3412
  148DOPC   H7S17645   2.902   6.049  15.782  0.1033 -0.6290 -2.2253
  148DOPC   C2817646   2.846   5.859  15.699  0.4134  0.4567 -0.3083
  148DOPC   H8R17647   2.844   5.909  15.600  0.2277  0.9604 -0.0562
  148DOPC   H8S17648   2.742   5.851  15.737  1.0883 -1.5392  1.2965
  148DOPC   C2917649   2.889   5.715  15.695  0.1561 -0.1498  0.3872
  148DOPC   H9R17650   2.882   5.656  15.788  0.8235 -1.2821 -0.2546
  148DOPC  C21017651   2.936   5.649  15.593 -0.3097  0.0991  0.6549
  148DOPC  H10R17652   2.970   5.545  15.606  0.8407  0.0626 -1.9794
  148DOPC  C21117653   2.960   5.689  15.446  0.2345 -0.2403 -0.0299
  148DOPC  H11R17654   3.065   5.661  15.424  0.8774  0.5286  1.8249
  148DOPC  H11S17655   2.953   5.798  15.429  0.4645  0.1997  2.2897
  148DOPC  C21217656   2.857   5.614  15.366 -0.3190  0.2858 -0.0764
  148DOPC  H12R17657   2.756   5.639  15.405 -0.6663 -0.6547 -0.3576
  148DOPC  H12S17658   2.866   5.505  15.382 -2.3846  0.1660  0.4761
  148DOPC  C21317659   2.866   5.647  15.211  0.1049  0.3272 -0.1601
  148DOPC  H13R17660   2.961   5.619  15.162 -0.6855  1.4930 -2.4875
  148DOPC  H13S17661   2.851   5.756  15.195 -0.9768  0.2480  0.2662
  148DOPC  C21417662   2.758   5.565  15.148  0.6288  0.2843 -0.4183
  148DOPC  H14R17663   2.660   5.590  15.193  0.0451 -1.6658 -0.5268
  148DOPC  H14S17664   2.782   5.459  15.168 -1.0975  0.3782  2.9610
  148DOPC  C21517665   2.745   5.584  14.993 -0.7561  0.1348  0.4715
  148DOPC  H15R17666   2.844   5.555  14.953 -1.8295 -1.0214 -1.5036
  148DOPC  H15S17667   2.722   5.690  14.968  0.5916  0.2307 -0.4441
  148DOPC  C21617668   2.644   5.490  14.922 -0.0893 -0.2523 -0.1620
  148DOPC  H16R17669   2.537   5.517  14.939 -0.2488  1.2057 -2.8440
  148DOPC  H16S17670   2.667   5.384  14.945 -0.9307 -0.4711 -0.2916
  148DOPC  C21717671   2.641   5.501  14.768 -0.6647 -0.4467 -0.2239
  148DOPC  H17R17672   2.581   5.590  14.739 -0.4941 -0.1049  0.4564
  148DOPC  H17S17673   2.588   5.418  14.716  0.0230  0.2379 -2.1046
  148DOPC  C21817674   2.784   5.511  14.699 -0.2695  0.2182  0.1682
  148DOPC  H18R17675   2.856   5.432  14.730  0.0126  1.1794  2.1341
  148DOPC  H18S17676   2.832   5.607  14.730  0.6213  0.4760 -1.8406
  148DOPC  H18T17677   2.767   5.520  14.590 -0.7978 -0.3396  0.2020
  148DOPC   C3317678   2.597   6.288  15.770  0.4122 -0.2081 -0.0086
  148DOPC   H3X17679   2.649   6.385  15.787 -0.8055  0.3791  0.4604
  148DOPC   H3Y17680   2.492   6.318  15.750  0.4081 -1.2314 -1.6630
  148DOPC   C3417681   2.645   6.240  15.638  0.3999  0.5074  0.1877
  148DOPC   H4X17682   2.752   6.208  15.633 -0.0834 -1.0530 -2.5347
  148DOPC   H4Y17683   2.638   6.332  15.577 -3.0034 -0.8115 -1.6784
  148DOPC   C3517684   2.555   6.129  15.585 -0.0469  0.3590 -0.1140
  148DOPC   H5X17685   2.450   6.165  15.593 -0.2957 -0.5446  0.9220
  148DOPC   H5Y17686   2.563   6.037  15.647 -0.3242  0.9423  0.8069
  148DOPC   C3617687   2.595   6.090  15.445 -0.0351  0.2802  0.2191
  148DOPC   H6X17688   2.577   6.168  15.368  1.6016  1.3972  0.9146
  148DOPC   H6Y17689   2.705   6.077  15.436 -0.0392  0.4466 -0.0875
  148DOPC   C3717690   2.524   5.959  15.403  0.5888  0.2734 -0.3538
  148DOPC   H7X17691   2.540   5.882  15.482  0.4314  0.7296  0.1285
  148DOPC   H7Y17692   2.413   5.964  15.398  0.5297  0.2191  0.6841
  148DOPC   C3817693   2.570   5.908  15.274 -0.2019 -0.0970 -0.1093
  148DOPC   H8X17694   2.680   5.891  15.282 -0.3242 -1.2435 -0.6421
  148DOPC   H8Y17695   2.565   6.002  15.216 -3.2295 -1.7065 -2.7678
  148DOPC   C3917696   2.485   5.794  15.225  0.2196  0.4263  0.2156
  148DOPC   H9X17697   2.453   5.712  15.291  0.5107 -1.4849 -1.8784
  148DOPC  C31017698   2.431   5.792  15.103  0.3319  0.5189 -0.5764
  148DOPC  H10X17699   2.359   5.711  15.085 -0.1795  0.6686  0.6998
  148DOPC  C31117700   2.457   5.885  14.992 -0.2915  0.6722  0.3653
  148DOPC  H11X17701   2.482   5.818  14.906  0.3677  0.7363  0.5054
  148DOPC  H11Y17702   2.549   5.941  15.018  0.1046 -0.4836  1.5665
  148DOPC  C31217703   2.337   5.979  14.970 -0.0658  0.3693  0.7735
  148DOPC  H12X17704   2.360   6.051  14.888  0.7803 -0.5357  0.1951
  148DOPC  H12Y17705   2.317   6.040  15.061  2.2996  3.8759 -0.8190
  148DOPC  C31317706   2.211   5.894  14.931 -0.1061  0.2820  0.0558
  148DOPC  H13X17707   2.256   5.805  14.882  0.9509  0.5931  0.4441
  148DOPC  H13Y17708   2.165   5.858  15.026 -0.8434  0.8437 -0.0789
  148DOPC  C31417709   2.112   5.976  14.856 -0.6626  0.2529  0.3221
  148DOPC  H14X17710   2.027   5.905  14.858 -1.6690  1.4366  2.0997
  148DOPC  H14Y17711   2.078   6.071  14.903 -0.8734  1.0191 -1.3015
  148DOPC  C31517712   2.159   5.991  14.710  1.0231 -0.6283  0.3254
  148DOPC  H15X17713   2.222   5.907  14.672  1.6648  0.2006 -0.4971
  148DOPC  H15Y17714   2.229   6.077  14.714 -0.0137  0.3213 -0.9638
  148DOPC  C31617715   2.050   6.046  14.618 -0.3971  0.8435 -0.6192
  148DOPC  H16X17716   2.098   6.061  14.519  0.0331 -2.5889 -1.0325
  148DOPC  H16Y17717   1.966   5.974  14.620 -0.2888  0.7279  1.5498
  148DOPC  C31717718   1.990   6.172  14.688  0.4050  0.5721  0.6736
  148DOPC  H17X17719   1.947   6.157  14.789  1.0907 -0.9324  0.7549
  148DOPC  H17Y17720   2.071   6.247  14.705  1.8232 -0.7739  0.0834
  148DOPC  C31817721   1.900   6.241  14.597  0.1681  0.5973  0.0442
  148DOPC  H18X17722   1.958   6.267  14.506  0.4758 -1.1411 -0.2853
  148DOPC  H18Y17723   1.819   6.169  14.569 -0.1638  1.1936 -0.5749
  148DOPC  H18Z17724   1.840   6.325  14.637 -0.9915 -0.4834  0.6576
  149DOPC     N17725   0.884   3.533  16.915 -0.1587  0.2308 -0.3199
  149DOPC   C1217726   0.923   3.390  16.934 -0.0500 -0.0949 -0.4704
  149DOPC  H12A17727   0.869   3.328  16.864 -1.1251 -0.5667  0.7353
  149DOPC  H12B17728   0.895   3.364  17.035  2.2543  0.8528  0.4786
  149DOPC   C1317729   0.929   3.575  16.785 -0.3735 -0.4565  1.0575
  149DOPC  H13A17730   0.884   3.521  16.703 -1.5993  1.5168  0.3263
  149DOPC  H13B17731   0.897   3.676  16.763  1.9750  0.3237  0.9785
  149DOPC  H13C17732   1.036   3.564  16.775 -0.3983 -0.8371  1.2144
  149DOPC   C1417733   0.954   3.621  17.010  0.2522 -0.5082  0.4496
  149DOPC  H14A17734   1.060   3.606  17.027  0.5160  1.6448  0.9937
  149DOPC  H14B17735   0.939   3.717  16.963  0.0964 -1.0863 -0.7023
  149DOPC  H14C17736   0.897   3.622  17.102 -3.1266 -2.3177 -1.4328
  149DOPC   C1517737   0.737   3.548  16.938  0.2479  0.0596  0.3314
  149DOPC  H15A17738   0.701   3.494  17.024 -1.2412 -2.1974 -1.5768
  149DOPC  H15B17739   0.689   3.487  16.863  2.7716 -2.4911  0.6083
  149DOPC  H15C17740   0.707   3.652  16.938 -0.1406  0.0998 -3.4000
  149DOPC   C1117741   1.079   3.351  16.910  0.1546  0.5047 -0.2430
  149DOPC  H11A17742   1.144   3.414  16.974 -0.6414  1.5434 -0.4448
  149DOPC  H11B17743   1.082   3.249  16.954 -2.0150  0.6137  0.2474
  149DOPC     P17744   1.115   3.236  16.682 -0.1405 -0.0699 -0.4845
  149DOPC   O1317745   0.997   3.149  16.708  0.2244  0.7896 -0.0833
  149DOPC   O1417746   1.249   3.185  16.700 -0.2967  0.0524  0.3311
  149DOPC   O1217747   1.112   3.367  16.774 -0.6115  0.1668  0.3321
  149DOPC   O1117748   1.096   3.292  16.540  0.0332 -0.1396 -0.1226
  149DOPC    C117749   1.159   3.410  16.487  0.0352  0.3487  0.5540
  149DOPC    HA17750   1.266   3.408  16.518  0.4135 -1.0042 -0.7252
  149DOPC    HB17751   1.113   3.507  16.515  0.3473  0.8732 -0.6752
  149DOPC    C217752   1.184   3.398  16.331  0.3263 -0.1020 -0.0278
  149DOPC    HS17753   1.083   3.386  16.286  0.2833  2.6749 -0.8532
  149DOPC   O2117754   1.269   3.291  16.296  0.5714  0.0848 -0.2491
  149DOPC   C2117755   1.208   3.175  16.279  0.5365  0.4616  0.8925
  149DOPC   O2217756   1.088   3.154  16.285  0.1644 -0.0027 -0.3777
  149DOPC   C2217757   1.312   3.069  16.246 -0.7503  0.4456 -0.3794
  149DOPC   H2R17758   1.313   2.997  16.330  0.2418  1.1539  0.2373
  149DOPC   H2S17759   1.411   3.114  16.225  0.4054 -1.5898  0.4836
  149DOPC    C317760   1.235   3.526  16.274  0.4518  0.3204  0.5068
  149DOPC    HX17761   1.341   3.534  16.306  1.1281 -0.5490 -1.3413
  149DOPC    HY17762   1.167   3.609  16.303 -2.0943 -1.7349  0.7857
  149DOPC   O3117763   1.223   3.512  16.131  0.4174 -0.5243  0.0426
  149DOPC   C3117764   1.301   3.606  16.069  0.3436  0.4729 -0.3957
  149DOPC   O3217765   1.369   3.689  16.126  0.1395 -0.1177  0.6647
  149DOPC   C3217766   1.284   3.578  15.921  0.3513  0.0340 -0.3414
  149DOPC   H2X17767   1.176   3.567  15.900 -0.3511  2.6968  1.3333
  149DOPC   H2Y17768   1.325   3.660  15.858  1.4157 -3.1410 -4.2065
  149DOPC   C2317769   1.290   2.988  16.113 -0.6704  0.7409  0.0127
  149DOPC   H3R17770   1.185   2.950  16.108 -0.3663 -0.2003  0.5188
  149DOPC   H3S17771   1.355   2.899  16.118  0.1092  1.2802 -0.3148
  149DOPC   C2417772   1.311   3.071  15.975 -0.5104  0.4798 -0.8580
  149DOPC   H4R17773   1.422   3.080  15.977 -0.2634 -1.7757  1.8216
  149DOPC   H4S17774   1.259   3.169  15.978 -4.6853 -1.5339 -0.8486
  149DOPC   C2517775   1.252   3.001  15.850 -0.0911 -0.0821 -0.5820
  149DOPC   H5R17776   1.144   2.989  15.868  0.2545  0.2756  2.1541
  149DOPC   H5S17777   1.302   2.902  15.841 -0.9761 -0.4575 -1.6738
  149DOPC   C2617778   1.299   3.067  15.718  0.3800  0.6837  0.2898
  149DOPC   H6R17779   1.409   3.085  15.722  0.9600 -2.5013  0.8440
  149DOPC   H6S17780   1.235   3.153  15.689 -2.2340 -0.8009  1.3281
  149DOPC   C2717781   1.292   2.962  15.604  0.2281  0.3626 -0.5591
  149DOPC   H7R17782   1.184   2.934  15.606 -0.5559  3.0847  1.0888
  149DOPC   H7S17783   1.344   2.874  15.648 -2.7693 -1.4707 -0.3798
  149DOPC   C2817784   1.334   3.000  15.459  0.2506 -0.7276 -0.2610
  149DOPC   H8R17785   1.266   3.083  15.431  1.3278  0.6589  1.0433
  149DOPC   H8S17786   1.316   2.911  15.395  0.0711  0.2587 -1.6077
  149DOPC   C2917787   1.478   3.042  15.453 -0.3923  0.5858 -0.0366
  149DOPC   H9R17788   1.517   3.069  15.552  4.6370 -2.7421 -0.7498
  149DOPC  C21017789   1.537   3.092  15.341  0.6803  0.3530 -0.4383
  149DOPC  H10R17790   1.637   3.134  15.359  0.2788  0.8203  0.8114
  149DOPC  C21117791   1.487   3.097  15.199 -0.3353 -0.1319 -1.0251
  149DOPC  H11R17792   1.416   3.182  15.187 -0.3781  0.0757  0.4782
  149DOPC  H11S17793   1.434   3.005  15.167 -1.0630 -0.1294  0.1094
  149DOPC  C21217794   1.603   3.132  15.109 -0.3933  0.2533  0.0285
  149DOPC  H12R17795   1.641   3.234  15.129  1.7859 -0.2623 -1.1063
  149DOPC  H12S17796   1.579   3.135  15.000 -0.3717 -0.4357  0.0003
  149DOPC  C21317797   1.724   3.039  15.128  0.1763  0.6489 -0.0220
  149DOPC  H13R17798   1.694   2.937  15.159  0.5059  0.2968 -0.8282
  149DOPC  H13S17799   1.791   3.072  15.210 -1.5639 -1.5538  2.4136
  149DOPC  C21417800   1.812   3.041  15.005  0.5117  0.2329 -0.3699
  149DOPC  H14R17801   1.862   3.141  14.996  0.5790  0.5892  2.9103
  149DOPC  H14S17802   1.751   3.019  14.915 -1.1821 -1.4619  1.1151
  149DOPC  C21517803   1.916   2.930  15.014  1.0148  0.4646 -0.5727
  149DOPC  H15R17804   1.858   2.836  15.008  0.8000  0.6320 -1.1760
  149DOPC  H15S17805   1.975   2.938  15.109  0.8808 -0.7339 -0.3692
  149DOPC  C21617806   2.008   2.953  14.901 -0.8322 -0.5475  0.0980
  149DOPC  H16R17807   2.064   3.049  14.912  2.9497 -2.4317 -0.9536
  149DOPC  H16S17808   1.954   2.953  14.804 -1.5270 -1.0155  0.4795
  149DOPC  C21717809   2.123   2.850  14.893  0.5497 -0.0404 -0.7688
  149DOPC  H17R17810   2.079   2.747  14.900 -0.3106  0.2820 -1.2709
  149DOPC  H17S17811   2.202   2.871  14.968  0.0278 -3.0410  0.8077
  149DOPC  C21817812   2.204   2.848  14.758  0.0222  0.0742 -0.2088
  149DOPC  H18R17813   2.298   2.789  14.760  1.2810  1.9171 -1.5084
  149DOPC  H18S17814   2.235   2.953  14.741 -0.3488 -0.0065 -1.5069
  149DOPC  H18T17815   2.135   2.821  14.676 -1.8378  1.5552  0.7790
  149DOPC   C3317816   1.345   3.445  15.880  0.4648 -0.1231  0.0601
  149DOPC   H3X17817   1.274   3.364  15.909  1.1922 -0.2705  1.5568
  149DOPC   H3Y17818   1.438   3.421  15.936 -0.5784 -1.2380  1.3920
  149DOPC   C3417819   1.367   3.445  15.721  0.1200  0.3500 -0.3506
  149DOPC   H4X17820   1.266   3.452  15.676 -0.0828  1.0754  0.2067
  149DOPC   H4Y17821   1.407   3.343  15.703 -3.0912 -0.9273 -0.8343
  149DOPC   C3517822   1.462   3.543  15.665  0.3788 -0.4560  0.5374
  149DOPC   H5X17823   1.570   3.520  15.673  1.1913  2.9013  0.4759
  149DOPC   H5Y17824   1.439   3.648  15.693 -1.1863  0.5530 -3.6921
  149DOPC   C3617825   1.442   3.535  15.510 -0.5215 -0.0247 -0.3526
  149DOPC   H6X17826   1.428   3.428  15.485 -0.8684  0.0083 -0.3114
  149DOPC   H6Y17827   1.345   3.580  15.478 -0.8904  1.4159  2.4671
  149DOPC   C3717828   1.553   3.608  15.437  0.0266 -0.1810 -0.6751
  149DOPC   H7X17829   1.544   3.718  15.450  1.5410  0.0080 -1.0331
  149DOPC   H7Y17830   1.648   3.582  15.487  0.5341  2.9290  0.1554
  149DOPC   C3817831   1.551   3.579  15.285 -0.2845  0.1533 -0.3473
  149DOPC   H8X17832   1.554   3.468  15.290  1.6097  0.1789 -0.1399
  149DOPC   H8Y17833   1.651   3.622  15.260  0.5675 -1.2548  0.5143
  149DOPC   C3917834   1.438   3.650  15.213  0.3139  0.6106 -0.7497
  149DOPC   H9X17835   1.425   3.754  15.245  1.1302  1.3349 -2.6337
  149DOPC  C31017836   1.350   3.596  15.127 -0.5477 -0.8285 -0.9745
  149DOPC  H10X17837   1.275   3.666  15.086 -0.2559 -0.0569 -0.2169
  149DOPC  C31117838   1.354   3.451  15.077  0.7910  0.1298 -0.8106
  149DOPC  H11X17839   1.426   3.394  15.140  1.7365  1.5080 -0.6027
  149DOPC  H11Y17840   1.384   3.461  14.971 -0.9752  0.1589 -1.3437
  149DOPC  C31217841   1.218   3.375  15.092 -0.3320 -0.6550  0.3397
  149DOPC  H12X17842   1.228   3.273  15.048 -1.7610 -0.3158 -0.8673
  149DOPC  H12Y17843   1.135   3.428  15.041 -0.9502 -2.3798 -0.5506
  149DOPC  C31317844   1.179   3.365  15.239 -0.0619 -0.7250 -0.2999
  149DOPC  H13X17845   1.277   3.335  15.281  0.6516 -0.2151 -1.5626
  149DOPC  H13Y17846   1.151   3.466  15.276  0.7654 -0.5825 -0.0450
  149DOPC  C31417847   1.069   3.261  15.265 -0.0101 -0.1957 -0.1805
  149DOPC  H14X17848   1.098   3.163  15.222  0.3406 -0.3365  0.3751
  149DOPC  H14Y17849   1.053   3.249  15.374  0.0935  2.7121  0.2589
  149DOPC  C31517850   0.935   3.294  15.205  0.3462  0.2645  0.0505
  149DOPC  H15X17851   0.956   3.289  15.096 -0.3825 -1.3963 -0.0376
  149DOPC  H15Y17852   0.905   3.399  15.225 -0.0235  0.8133 -2.8515
  149DOPC  C31617853   0.822   3.212  15.251 -0.3386  0.0134  0.1649
  149DOPC  H16X17854   0.820   3.108  15.213 -1.4385  0.8509 -2.2308
  149DOPC  H16Y17855   0.834   3.214  15.362  1.3048  1.2230 -0.0074
  149DOPC  C31717856   0.675   3.266  15.221 -0.1908 -0.6351 -0.0458
  149DOPC  H17X17857   0.670   3.377  15.223 -1.1567 -0.6581 -0.5251
  149DOPC  H17Y17858   0.655   3.245  15.114  0.0371  0.3925 -0.3035
  149DOPC  C31817859   0.569   3.209  15.319 -0.8086  0.6517  0.2220
  149DOPC  H18X17860   0.601   3.215  15.425  1.7803  0.6305 -0.4946
  149DOPC  H18Y17861   0.483   3.278  15.306 -1.2973  0.1449  0.7162
  149DOPC  H18Z17862   0.536   3.110  15.282  0.5733  1.0156 -2.1738
  150DOPC     N17863   4.556   5.547  17.133 -0.4133 -0.9798  0.0274
  150DOPC   C1217864   4.596   5.518  16.992  0.0029  0.8597  0.1060
  150DOPC  H12A17865   4.622   5.606  16.935 -0.6967  0.7445 -0.3992
  150DOPC  H12B17866   4.518   5.461  16.945  0.5075  0.3206 -0.0940
  150DOPC   C1317867   4.431   5.642  17.129 -0.3246 -0.6392 -0.2893
  150DOPC  H13A17868   4.448   5.725  17.062  0.3601 -1.4720 -1.1864
  150DOPC  H13B17869   4.345   5.581  17.106 -2.1308  2.3144 -2.0635
  150DOPC  H13C17870   4.414   5.678  17.229  2.8620 -0.8332  0.4029
  150DOPC   C1417871   4.662   5.629  17.202  0.3575 -0.6057  0.2862
  150DOPC  H14A17872   4.665   5.731  17.166  1.8162 -0.5211  0.5570
  150DOPC  H14B17873   4.628   5.627  17.304 -2.5796 -3.2381 -0.5975
  150DOPC  H14C17874   4.759   5.581  17.200 -0.3482 -2.4677  3.2975
  150DOPC   C1517875   4.527   5.419  17.207  0.0528 -0.1632  0.5071
  150DOPC  H15A17876   4.468   5.353  17.146 -0.1180  0.7492 -0.3400
  150DOPC  H15B17877   4.482   5.423  17.305  2.6842 -1.0858  1.8645
  150DOPC  H15C17878   4.621   5.367  17.219  0.2326  0.4114  1.8249
  150DOPC   C1117879   4.709   5.416  16.973  0.0818  0.2508  0.5804
  150DOPC  H11A17880   4.736   5.420  16.865 -0.3659  0.2490  0.4648
  150DOPC  H11B17881   4.798   5.457  17.026 -1.7981  3.2877  1.6423
  150DOPC     P17882   4.596   5.184  16.931  0.2188  0.0008  0.3998
  150DOPC   O1317883   4.495   5.122  17.021 -0.5286  0.2857 -0.2139
  150DOPC   O1417884   4.687   5.094  16.859 -0.0217  0.0167  0.1545
  150DOPC   O1217885   4.677   5.287  17.017  0.3156  0.1945 -0.0120
  150DOPC   O1117886   4.520   5.270  16.833  0.0321  0.1393 -0.2240
  150DOPC    C117887   4.401   5.221  16.773 -0.0375  0.1071 -0.3956
  150DOPC    HA17888   4.344   5.308  16.734 -0.5239  0.2248  0.5411
  150DOPC    HB17889   4.327   5.172  16.841  0.8254  0.9021  1.1843
  150DOPC    C217890   4.422   5.131  16.654 -0.4664 -0.2181 -0.5098
  150DOPC    HS17891   4.469   5.038  16.693  1.0198  0.9074  0.4777
  150DOPC   O2117892   4.513   5.203  16.574 -0.0871  0.3253  0.5283
  150DOPC   C2117893   4.592   5.127  16.498  0.5479  0.3813  0.1989
  150DOPC   O2217894   4.599   5.007  16.504  0.2195  0.2020 -0.4294
  150DOPC   C2217895   4.690   5.214  16.422 -0.2135  0.2904  0.1422
  150DOPC   H2R17896   4.746   5.287  16.484  2.4970 -0.5212 -1.1760
  150DOPC   H2S17897   4.634   5.272  16.345 -2.5403 -0.1252  1.4422
  150DOPC    C317898   4.282   5.107  16.582 -0.9599  0.3883  0.0839
  150DOPC    HX17899   4.232   5.205  16.571 -0.8773  0.3338 -0.8671
  150DOPC    HY17900   4.223   5.039  16.647 -1.4758 -0.5104 -1.2835
  150DOPC   O3117901   4.306   5.049  16.450  0.3843 -0.0356  0.4840
  150DOPC   C3117902   4.299   4.918  16.447  0.7048  0.1158  0.3119
  150DOPC   O3217903   4.264   4.840  16.537  0.2142  0.3246 -0.3752
  150DOPC   C3217904   4.324   4.874  16.304  0.1271 -0.2287 -0.2167
  150DOPC   H2X17905   4.236   4.901  16.242 -0.5044 -3.0533 -0.6937
  150DOPC   H2Y17906   4.422   4.919  16.279  0.5677 -0.7688  0.4938
  150DOPC   C2317907   4.796   5.133  16.341 -0.4029 -0.4169 -0.0721
  150DOPC   H3R17908   4.740   5.071  16.268 -1.9550  0.8229  0.0212
  150DOPC   H3S17909   4.838   5.072  16.423  1.1072 -0.9911 -1.2097
  150DOPC   C2417910   4.906   5.206  16.268  0.0245  0.3618 -0.3855
  150DOPC   H4R17911   4.984   5.134  16.235 -1.4478 -3.0283  2.7789
  150DOPC   H4S17912   4.961   5.276  16.334  0.0008 -0.2366  0.2938
  150DOPC   C2517913   4.855   5.274  16.145  0.1058 -1.1792  1.1983
  150DOPC   H5R17914   4.779   5.352  16.167  1.2327  0.5064 -0.5702
  150DOPC   H5S17915   4.810   5.194  16.082 -0.4781 -1.7169  2.2748
  150DOPC   C2617916   4.968   5.350  16.067  0.7541 -0.0609 -0.9270
  150DOPC   H6R17917   5.052   5.278  16.060 -0.5199 -1.6057 -0.6665
  150DOPC   H6S17918   4.997   5.446  16.115 -0.8802  0.4503 -0.8938
  150DOPC   C2717919   4.924   5.380  15.924  0.0431  0.1218 -0.2790
  150DOPC   H7R17920   4.826   5.430  15.916  0.5284  0.8616 -2.1985
  150DOPC   H7S17921   4.902   5.280  15.881  0.7518 -0.5953  0.9497
  150DOPC   C2817922   5.030   5.457  15.846 -0.1069  0.7606 -0.5460
  150DOPC   H8R17923   5.110   5.381  15.833 -0.7108 -0.2191  1.0856
  150DOPC   H8S17924   5.069   5.538  15.911 -2.7843 -0.2707  2.6207
  150DOPC   C2917925   4.971   5.503  15.719 -0.2687  0.4857 -0.2951
  150DOPC   H9R17926   4.867   5.539  15.724 -0.0769  0.9722  0.3328
  150DOPC  C21017927   5.036   5.524  15.600  0.6727  0.3772  0.2762
  150DOPC  H10R17928   4.971   5.551  15.515  3.3905 -2.2508 -2.9007
  150DOPC  C21117929   5.174   5.491  15.563 -0.5226  0.1625 -0.0341
  150DOPC  H11R17930   5.173   5.397  15.503 -0.6792 -0.6094  1.1294
  150DOPC  H11S17931   5.242   5.484  15.651  1.6551  2.3996 -1.4297
  150DOPC  C21217932   5.240   5.598  15.471 -0.1380 -0.0023  0.0397
  150DOPC  H12R17933   5.351   5.589  15.481 -0.1676 -1.4727 -0.6944
  150DOPC  H12S17934   5.207   5.702  15.490 -0.9637 -0.0084 -1.2654
  150DOPC  C21317935   5.217   5.596  15.318 -0.6227 -0.6606  0.9634
  150DOPC  H13R17936   5.211   5.491  15.283 -1.1220  0.7673 -3.9781
  150DOPC  H13S17937   5.293   5.649  15.256 -2.0697 -0.9729 -1.1815
  150DOPC  C21417938   5.087   5.668  15.276 -0.1527  0.3953  0.2839
  150DOPC  H14R17939   5.074   5.774  15.305 -2.6080  0.7158 -1.6248
  150DOPC  H14S17940   5.012   5.607  15.331 -0.4254  0.2409 -0.2522
  150DOPC  C21517941   5.054   5.661  15.126 -0.1847 -0.1336 -0.1782
  150DOPC  H15R17942   5.105   5.746  15.076 -0.7045  1.2064  1.4550
  150DOPC  H15S17943   4.951   5.697  15.108 -0.8445 -0.9441  1.7010
  150DOPC  C21617944   5.069   5.524  15.059 -0.2971  0.3695 -0.0286
  150DOPC  H16R17945   5.036   5.444  15.129 -1.1038  1.9500  1.4898
  150DOPC  H16S17946   5.179   5.510  15.057 -0.4213 -0.6653 -0.0311
  150DOPC  C21717947   5.003   5.514  14.920  0.5666 -0.1826  0.4995
  150DOPC  H17R17948   4.895   5.529  14.941  0.3990 -1.7140  0.8506
  150DOPC  H17S17949   5.011   5.406  14.895 -4.4252 -1.6077  3.6324
  150DOPC  C21817950   5.071   5.600  14.809 -0.0070  0.1502 -0.2424
  150DOPC  H18R17951   5.038   5.554  14.713 -1.9028 -1.0088  0.9014
  150DOPC  H18S17952   5.182   5.600  14.817 -0.0312  2.4114  0.4897
  150DOPC  H18T17953   5.035   5.704  14.819  1.0848  0.6143 -0.9246
  150DOPC   C3317954   4.325   4.718  16.282  0.8164  0.1797  0.7441
  150DOPC   H3X17955   4.219   4.687  16.288  0.3496  1.6610  0.6936
  150DOPC   H3Y17956   4.386   4.666  16.358 -0.4389 -0.5513  1.2571
  150DOPC   C3417957   4.385   4.687  16.142  0.6179  0.0981 -0.0482
  150DOPC   H4X17958   4.488   4.727  16.151 -0.2216  2.3381  0.2607
  150DOPC   H4Y17959   4.326   4.747  16.069 -0.0416  0.3882  0.7083
  150DOPC   C3517960   4.397   4.542  16.102 -0.1492 -0.1904  0.8325
  150DOPC   H5X17961   4.313   4.486  16.148  0.1405  0.0108  1.6166
  150DOPC   H5Y17962   4.490   4.496  16.141  0.1297 -0.8288 -0.5367
  150DOPC   C3617963   4.393   4.527  15.944 -0.3813  0.6539 -0.4797
  150DOPC   H6X17964   4.291   4.557  15.912 -0.0178  1.0733 -1.2595
  150DOPC   H6Y17965   4.468   4.599  15.906 -0.3774 -0.0608 -1.8999
  150DOPC   C3717966   4.406   4.386  15.884  0.6444  0.4341  0.1473
  150DOPC   H7X17967   4.494   4.336  15.930 -0.2386 -1.2844  0.0610
  150DOPC   H7Y17968   4.318   4.324  15.912  0.0970  1.0859 -0.0986
  150DOPC   C3817969   4.412   4.389  15.732 -0.1585  0.7879 -0.0222
  150DOPC   H8X17970   4.318   4.433  15.694 -0.4340  1.8791  1.7937
  150DOPC   H8Y17971   4.416   4.285  15.693  2.0846  0.4303  0.9845
  150DOPC   C3917972   4.535   4.471  15.687 -0.6692 -0.0115 -0.1995
  150DOPC   H9X17973   4.630   4.434  15.728 -1.0735 -2.0473 -0.9605
  150DOPC  C31017974   4.551   4.581  15.613  0.3702 -0.4987 -0.1698
  150DOPC  H10X17975   4.647   4.629  15.588  0.3327  0.0228  0.6801
  150DOPC  C31117976   4.435   4.648  15.531 -0.5331 -0.1239  0.2263
  150DOPC  H11X17977   4.335   4.621  15.571 -0.2305 -2.1400 -0.2766
  150DOPC  H11Y17978   4.426   4.597  15.433 -2.6120 -1.9532  1.2959
  150DOPC  C31217979   4.437   4.807  15.525 -1.0317 -0.0257 -0.1224
  150DOPC  H12X17980   4.447   4.850  15.627  0.4577 -0.1378 -0.1985
  150DOPC  H12Y17981   4.343   4.857  15.493 -0.0959  3.5158  2.0574
  150DOPC  C31317982   4.545   4.849  15.426 -0.0874  0.2685 -0.3532
  150DOPC  H13X17983   4.644   4.823  15.468  0.3982 -0.1447 -1.7341
  150DOPC  H13Y17984   4.533   4.793  15.331 -2.1124  0.4455 -0.2440
  150DOPC  C31417985   4.548   5.009  15.400 -0.4802 -0.5459  0.1519
  150DOPC  H14X17986   4.625   5.029  15.323  0.3987 -3.3103  0.1655
  150DOPC  H14Y17987   4.447   5.035  15.365 -0.8067 -0.4193  1.1540
  150DOPC  C31517988   4.570   5.095  15.532  0.4487 -0.7115  0.1961
  150DOPC  H15X17989   4.627   5.034  15.605  3.4108  1.5545 -0.0111
  150DOPC  H15Y17990   4.472   5.121  15.577  0.0317 -0.7345 -0.6863
  150DOPC  C31617991   4.648   5.218  15.494 -0.1973 -0.1655 -0.1082
  150DOPC  H16X17992   4.732   5.178  15.433  2.1450  3.8425  0.1303
  150DOPC  H16Y17993   4.601   5.294  15.429  0.0588  0.4118  0.3719
  150DOPC  C31717994   4.707   5.278  15.614 -0.0106 -0.7974  0.0556
  150DOPC  H17X17995   4.771   5.202  15.664 -0.2070 -1.3165 -0.4556
  150DOPC  H17Y17996   4.780   5.352  15.576  0.8418 -1.8501 -0.4164
  150DOPC  C31817997   4.602   5.349  15.710 -0.2831 -0.0608 -0.1995
  150DOPC  H18X17998   4.533   5.417  15.655 -0.6356 -0.7962 -0.6816
  150DOPC  H18Y17999   4.539   5.275  15.764 -0.4884  0.4951  0.3304
  150DOPC  H18Z18000   4.656   5.421  15.775 -1.3337  1.0129 -0.4760
  151DOPC     N18001   1.983   3.874  17.034 -0.2876  0.1082  0.0932
  151DOPC   C1218002   1.850   3.923  16.980 -0.3903 -0.2834  0.4489
  151DOPC  H12A18003   1.846   4.031  16.973 -1.0576 -0.2605  1.0544
  151DOPC  H12B18004   1.768   3.886  17.041  0.4993 -2.3391  0.4652
  151DOPC   C1318005   2.008   3.725  17.019  0.0053  0.3626  0.1828
  151DOPC  H13A18006   1.933   3.666  17.069 -0.9945  1.4837  0.0492
  151DOPC  H13B18007   2.015   3.695  16.916 -0.8360  2.0930 -0.4152
  151DOPC  H13C18008   2.092   3.695  17.080 -0.1361  0.3905  0.3926
  151DOPC   C1418009   1.992   3.905  17.179 -0.3299 -0.5119  0.0275
  151DOPC  H14A18010   2.091   3.917  17.220 -1.2033 -1.6821  2.7120
  151DOPC  H14B18011   1.922   3.982  17.209 -0.1727 -0.4534  0.2508
  151DOPC  H14C18012   1.945   3.825  17.234 -0.4577  0.1420  0.8977
  151DOPC   C1518013   2.103   3.941  16.967 -0.4185  0.0586 -0.1374
  151DOPC  H15A18014   2.099   3.925  16.860 -0.6404  1.2060 -0.3184
  151DOPC  H15B18015   2.198   3.916  17.012 -0.5215  0.9267  0.6027
  151DOPC  H15C18016   2.095   4.049  16.971 -0.4710  0.0064  1.9524
  151DOPC   C1118017   1.812   3.888  16.834  0.1187  0.2725 -0.2786
  151DOPC  H11A18018   1.815   3.778  16.820 -1.0946  0.3351 -1.2524
  151DOPC  H11B18019   1.705   3.911  16.812 -0.7383 -1.0542  2.1693
  151DOPC     P18020   1.881   4.046  16.635 -0.4775 -0.3245  0.2057
  151DOPC   O1318021   1.873   4.173  16.711  0.2051  0.3935  0.1361
  151DOPC   O1418022   1.763   4.007  16.551  0.3473 -0.0322  0.0233
  151DOPC   O1218023   1.904   3.926  16.731  0.0755 -0.0767  0.2399
  151DOPC   O1118024   2.007   4.049  16.541 -0.3128 -0.2215  0.0347
  151DOPC    C118025   2.135   4.004  16.586  0.3900 -0.0848 -0.1700
  151DOPC    HA18026   2.126   3.908  16.642  0.1143  0.1718  0.2316
  151DOPC    HB18027   2.187   4.087  16.638 -1.2354  1.5218 -0.9659
  151DOPC    C218028   2.226   3.979  16.456 -0.4709  0.8267 -0.3105
  151DOPC    HS18029   2.238   4.080  16.411 -0.1387  1.0664  0.3144
  151DOPC   O2118030   2.165   3.888  16.357 -0.4738 -0.5948  0.4835
  151DOPC   C2118031   2.125   3.770  16.403  0.2734 -0.9878  0.1917
  151DOPC   O2218032   2.135   3.730  16.517  0.0019  0.1080 -0.4761
  151DOPC   C2218033   2.061   3.690  16.289  0.2848 -0.3013  0.5732
  151DOPC   H2R18034   1.953   3.715  16.297  0.7510  1.3428  2.1949
  151DOPC   H2S18035   2.078   3.582  16.310 -0.3474 -0.5181  0.0047
  151DOPC    C318036   2.369   3.933  16.497  0.1020  0.4920 -0.3130
  151DOPC    HX18037   2.365   3.848  16.569  1.5123  2.0935  1.8182
  151DOPC    HY18038   2.405   4.018  16.560 -0.7022  0.0838  0.7393
  151DOPC   O3118039   2.445   3.908  16.382  0.0781  0.1444  0.1313
  151DOPC   C3118040   2.552   3.833  16.403 -0.6427  0.6301 -0.4227
  151DOPC   O3218041   2.585   3.781  16.509  0.1127 -0.3157 -0.4997
  151DOPC   C3218042   2.641   3.816  16.276  0.5823  0.0057 -0.2158
  151DOPC   H2X18043   2.656   3.706  16.270  3.2386  0.0814  2.4485
  151DOPC   H2Y18044   2.587   3.852  16.186  0.9346  0.0068 -0.4307
  151DOPC   C2318045   2.098   3.727  16.140 -0.1613  0.4878  0.3383
  151DOPC   H3R18046   2.103   3.834  16.112  0.7407  0.7311  1.3353
  151DOPC   H3S18047   2.023   3.682  16.072 -1.3450  0.5032  1.5798
  151DOPC   C2418048   2.237   3.670  16.109 -0.1641 -0.6293 -0.2658
  151DOPC   H4R18049   2.236   3.560  16.128  2.0457 -0.7732 -0.7017
  151DOPC   H4S18050   2.306   3.720  16.180 -1.1422  0.9600 -0.3853
  151DOPC   C2518051   2.287   3.692  15.967  0.4797 -0.0724  0.0000
  151DOPC   H5R18052   2.391   3.653  15.961  0.4315 -0.2962  0.5609
  151DOPC   H5S18053   2.292   3.802  15.954  0.5166  0.0832  1.2257
  151DOPC   C2618054   2.209   3.633  15.844 -0.3809  0.2311 -0.3187
  151DOPC   H6R18055   2.100   3.657  15.843 -0.6532 -0.6507 -3.8214
  151DOPC   H6S18056   2.224   3.523  15.839  1.0015  0.4642 -2.5607
  151DOPC   C2718057   2.273   3.686  15.715 -0.4749  0.1315 -0.1094
  151DOPC   H7R18058   2.382   3.665  15.713 -0.4103  0.2187  1.4184
  151DOPC   H7S18059   2.258   3.796  15.708  2.8255  0.6823  0.0931
  151DOPC   C2818060   2.205   3.609  15.601 -0.2224 -0.7767 -0.0008
  151DOPC   H8R18061   2.204   3.498  15.608 -1.6786 -0.8401 -0.7816
  151DOPC   H8S18062   2.251   3.642  15.505  0.4397 -0.4603  0.4209
  151DOPC   C2918063   2.058   3.646  15.585  0.5634  0.0985  0.2197
  151DOPC   H9R18064   1.994   3.595  15.657  2.3149 -0.9245  1.1141
  151DOPC  C21018065   2.002   3.726  15.488  0.4996  0.0370 -0.5401
  151DOPC  H10R18066   1.893   3.738  15.486  0.1938 -2.1769  0.0842
  151DOPC  C21118067   2.071   3.809  15.386 -0.4622 -1.1493  0.1575
  151DOPC  H11R18068   2.180   3.817  15.405 -0.2502 -1.2632 -0.9246
  151DOPC  H11S18069   2.037   3.914  15.395  1.9940 -0.3167  0.4348
  151DOPC  C21218070   2.062   3.760  15.239  0.6876 -0.1733 -0.1644
  151DOPC  H12R18071   2.129   3.823  15.176  0.7378  0.2520  0.3107
  151DOPC  H12S18072   1.954   3.770  15.214 -0.7066  0.7805  5.0935
  151DOPC  C21318073   2.091   3.616  15.207 -0.2518  0.7539  0.3821
  151DOPC  H13R18074   2.032   3.542  15.267  0.9887 -1.2311 -0.7165
  151DOPC  H13S18075   2.196   3.583  15.225  0.5622  2.1311 -1.5370
  151DOPC  C21418076   2.065   3.577  15.060 -0.0922 -0.1670  0.0327
  151DOPC  H14R18077   1.959   3.604  15.041 -1.7480 -4.0395  2.4982
  151DOPC  H14S18078   2.075   3.467  15.055  1.6322 -0.2719  3.0901
  151DOPC  C21518079   2.152   3.646  14.949  0.1363  0.5807  0.0402
  151DOPC  H15R18080   2.256   3.631  14.985 -0.4215 -2.2441  0.7340
  151DOPC  H15S18081   2.121   3.752  14.941 -1.0450  0.1203 -3.1543
  151DOPC  C21618082   2.151   3.583  14.813  0.1120  1.1901 -0.2937
  151DOPC  H16R18083   2.048   3.545  14.796  0.6454 -1.2752  1.4523
  151DOPC  H16S18084   2.224   3.500  14.819  0.7944  1.6476 -1.8005
  151DOPC  C21718085   2.203   3.668  14.692  0.6641 -0.3912 -0.3686
  151DOPC  H17R18086   2.311   3.689  14.709  0.3693 -0.7338  2.4369
  151DOPC  H17S18087   2.144   3.762  14.700  0.6255 -0.3462 -1.1034
  151DOPC  C21818088   2.184   3.610  14.555  0.4092  0.3430 -0.0020
  151DOPC  H18R18089   2.267   3.539  14.533  0.1855 -0.3923  1.4797
  151DOPC  H18S18090   2.183   3.695  14.482 -1.8904  0.0313 -0.3980
  151DOPC  H18T18091   2.084   3.564  14.543  0.5159  0.5695 -2.3731
  151DOPC   C3318092   2.785   3.881  16.286 -0.1587 -0.2184  0.1527
  151DOPC   H3X18093   2.840   3.806  16.347  1.5756  0.5661 -0.3758
  151DOPC   H3Y18094   2.788   3.986  16.324  1.5051 -0.1951  0.0520
  151DOPC   C3418095   2.850   3.886  16.147 -0.5106 -0.4101  0.2871
  151DOPC   H4X18096   2.826   3.787  16.101  1.6133 -0.6229 -0.4662
  151DOPC   H4Y18097   2.958   3.894  16.170  0.2515 -0.8439 -2.7148
  151DOPC   C3518098   2.808   4.000  16.061 -0.3433 -0.1573  0.0633
  151DOPC   H5X18099   2.825   4.095  16.114  0.1877 -0.2660  0.0927
  151DOPC   H5Y18100   2.699   3.995  16.041  0.1401  0.3451 -3.2085
  151DOPC   C3618101   2.873   4.012  15.922 -0.8927 -0.2578 -0.5729
  151DOPC   H6X18102   2.883   3.908  15.882 -1.0062 -0.2742 -0.5580
  151DOPC   H6Y18103   2.811   4.071  15.853 -0.6000  0.1131 -0.5209
  151DOPC   C3718104   3.014   4.082  15.921 -0.3843  0.2541  0.7797
  151DOPC   H7X18105   3.014   4.178  15.979 -0.9774 -0.0668  1.3225
  151DOPC   H7Y18106   3.089   4.025  15.978 -0.4403 -1.3104 -0.6518
  151DOPC   C3818107   3.078   4.097  15.783  0.2587  0.1153 -0.7250
  151DOPC   H8X18108   3.065   3.999  15.733  0.6607  0.4063 -1.4131
  151DOPC   H8Y18109   3.188   4.112  15.786  0.4023 -0.2174 -2.7319
  151DOPC   C3918110   3.030   4.206  15.697  0.6957  0.2809  0.4395
  151DOPC   H9X18111   2.922   4.197  15.679  0.8368  1.7340 -1.6000
  151DOPC  C31018112   3.096   4.309  15.643  0.0505  0.4408  0.1304
  151DOPC  H10X18113   3.041   4.384  15.585  0.3027 -0.3680 -1.2048
  151DOPC  C31118114   3.236   4.352  15.637 -0.1592 -0.4516  0.2836
  151DOPC  H11X18115   3.296   4.287  15.705  1.5646  0.8782  0.0852
  151DOPC  H11Y18116   3.263   4.456  15.664  2.1099 -0.9428  0.0649
  151DOPC  C31218117   3.306   4.306  15.509 -1.0300 -0.2017  0.4075
  151DOPC  H12X18118   3.274   4.359  15.416  1.4127  0.7132 -0.0056
  151DOPC  H12Y18119   3.304   4.199  15.480  1.7345  0.0322 -0.9739
  151DOPC  C31318120   3.461   4.316  15.529 -0.0662 -0.5384  0.7853
  151DOPC  H13X18121   3.477   4.421  15.561  1.4360 -0.0776 -1.2571
  151DOPC  H13Y18122   3.500   4.250  15.609 -1.6454  0.0884  2.1301
  151DOPC  C31418123   3.547   4.309  15.392  0.2752  0.0740  0.2548
  151DOPC  H14X18124   3.510   4.391  15.327  0.3156  1.6187  2.0617
  151DOPC  H14Y18125   3.653   4.339  15.406  0.0294  1.2770 -0.3552
  151DOPC  C31518126   3.554   4.168  15.331 -0.0804  1.1814  1.8327
  151DOPC  H15X18127   3.598   4.165  15.229 -0.6515 -2.3186  1.5481
  151DOPC  H15Y18128   3.453   4.127  15.311  0.1571  0.3216  2.3093
  151DOPC  C31618129   3.626   4.063  15.416 -0.3191 -0.2929 -1.5616
  151DOPC  H16X18130   3.727   4.105  15.433  0.1887 -1.0022 -2.7547
  151DOPC  H16Y18131   3.567   4.054  15.510  0.5849 -0.2531 -0.9760
  151DOPC  C31718132   3.624   3.925  15.356 -0.9575 -0.4938  0.4643
  151DOPC  H17X18133   3.523   3.877  15.359 -1.3354  0.2974  0.8954
  151DOPC  H17Y18134   3.648   3.920  15.248 -1.9772 -1.2838  0.2593
  151DOPC  C31818135   3.719   3.836  15.425  0.6530  0.2993  0.2450
  151DOPC  H18X18136   3.820   3.847  15.381  0.1123  0.5910 -0.9754
  151DOPC  H18Y18137   3.727   3.856  15.534  0.0577  2.1589 -0.0250
  151DOPC  H18Z18138   3.690   3.729  15.412 -0.9658  0.7048  0.2975
  152DOPC     N18139   3.772   2.755  17.183 -0.7180  0.2335  0.5350
  152DOPC   C1218140   3.662   2.799  17.088 -1.3141  0.0490 -0.0289
  152DOPC  H12A18141   3.705   2.861  17.011 -0.2803  1.3681  1.5545
  152DOPC  H12B18142   3.582   2.842  17.146 -1.2284 -0.8428  0.7792
  152DOPC   C1318143   3.887   2.687  17.104 -0.1770 -0.4901 -0.5818
  152DOPC  H13A18144   3.857   2.592  17.060  0.3387 -1.3524  0.8632
  152DOPC  H13B18145   3.914   2.744  17.017 -0.8337  2.4387  1.0163
  152DOPC  H13C18146   3.976   2.670  17.162 -1.5074  0.5880  1.9122
  152DOPC   C1418147   3.722   2.653  17.287 -0.7257 -0.6510 -0.2551
  152DOPC  H14A18148   3.666   2.700  17.366  1.8373  2.3896 -0.0400
  152DOPC  H14B18149   3.665   2.573  17.242 -2.9912  0.6746  0.1047
  152DOPC  H14C18150   3.815   2.613  17.326  0.1200  0.9439 -0.5378
  152DOPC   C1518151   3.831   2.881  17.250 -0.1417  0.1336  0.6813
  152DOPC  H15A18152   3.750   2.930  17.303 -0.8984  2.3537 -2.2824
  152DOPC  H15B18153   3.884   2.939  17.177 -0.3886  1.2645  1.3847
  152DOPC  H15C18154   3.905   2.845  17.320  1.2152  1.5996  0.0473
  152DOPC   C1118155   3.596   2.692  16.997 -0.1032  0.2885 -0.2931
  152DOPC  H11A18156   3.541   2.622  17.063  1.1911  1.4896  2.2381
  152DOPC  H11B18157   3.524   2.752  16.937  0.4163  0.5606 -0.6540
  152DOPC     P18158   3.748   2.683  16.786  0.3103 -0.1117 -0.0446
  152DOPC   O1318159   3.889   2.652  16.782 -0.0441  0.4976 -0.1247
  152DOPC   O1418160   3.712   2.828  16.791 -0.1976  0.4221 -0.0438
  152DOPC   O1218161   3.690   2.616  16.916  0.0335 -0.0355  0.5023
  152DOPC   O1118162   3.676   2.614  16.665 -0.0156 -0.4306 -0.2700
  152DOPC    C118163   3.712   2.483  16.630  0.6535 -0.5373 -1.1325
  152DOPC    HA18164   3.743   2.420  16.716 -0.1418  1.2130  0.4914
  152DOPC    HB18165   3.804   2.491  16.569  1.0765  0.1282 -0.4208
  152DOPC    C218166   3.606   2.412  16.550  0.6515 -0.2899  0.7811
  152DOPC    HS18167   3.645   2.314  16.514  1.7008 -0.0206  1.1334
  152DOPC   O2118168   3.569   2.490  16.434 -0.4547  0.4239 -0.9745
  152DOPC   C2118169   3.664   2.524  16.345  0.0271 -0.1088 -0.4704
  152DOPC   O2218170   3.773   2.476  16.336  0.1833  0.1302 -0.5466
  152DOPC   C2218171   3.611   2.623  16.244  0.3298  0.1434  0.3312
  152DOPC   H2R18172   3.617   2.727  16.283 -1.3767  0.3094  0.2630
  152DOPC   H2S18173   3.504   2.606  16.220 -0.1834  0.3411  2.2652
  152DOPC    C318174   3.472   2.392  16.638 -0.9562  0.3543  0.0851
  152DOPC    HX18175   3.441   2.493  16.671 -0.1434 -0.0635  2.2718
  152DOPC    HY18176   3.513   2.324  16.715  0.4991  1.2907  0.1791
  152DOPC   O3118177   3.369   2.328  16.553 -0.6830 -0.0820  0.3941
  152DOPC   C3118178   3.265   2.312  16.623  0.4160 -0.4863  0.0688
  152DOPC   O3218179   3.249   2.352  16.734  0.4170  0.1996 -0.5241
  152DOPC   C3218180   3.163   2.234  16.541  0.4052 -0.0099  0.0214
  152DOPC   H2X18181   3.154   2.286  16.443 -1.6160 -0.5727 -0.1416
  152DOPC   H2Y18182   3.202   2.132  16.518  1.4226  0.5686 -0.8924
  152DOPC   C2318183   3.690   2.620  16.111  0.1154 -0.0397 -0.2248
  152DOPC   H3R18184   3.799   2.622  16.131  0.0897  1.2300 -0.0915
  152DOPC   H3S18185   3.663   2.719  16.069  0.0142  0.9511  2.0250
  152DOPC   C2418186   3.657   2.516  16.003  0.3975  0.0785 -0.0505
  152DOPC   H4R18187   3.622   2.423  16.053  0.6119  0.6629  1.2321
  152DOPC   H4S18188   3.756   2.484  15.964 -1.5039 -3.1434 -2.7823
  152DOPC   C2518189   3.565   2.553  15.891  0.2594  0.3305 -0.6261
  152DOPC   H5R18190   3.594   2.648  15.842  0.7706 -0.5782 -2.1740
  152DOPC   H5S18191   3.465   2.564  15.937 -0.1210 -1.3537 -0.9640
  152DOPC   C2618192   3.546   2.448  15.777  0.1653  0.1828 -0.0033
  152DOPC   H6R18193   3.469   2.486  15.707 -0.4224  0.5631  0.8271
  152DOPC   H6S18194   3.503   2.353  15.816  1.3755 -1.0269 -1.4860
  152DOPC   C2718195   3.677   2.414  15.705  0.7186  0.6376  0.7220
  152DOPC   H7R18196   3.749   2.368  15.775 -0.9991 -0.4806  1.8330
  152DOPC   H7S18197   3.737   2.503  15.678 -0.2047  1.1875  0.4202
  152DOPC   C2818198   3.652   2.320  15.584  0.3514 -0.7346  0.3908
  152DOPC   H8R18199   3.601   2.377  15.504  0.0577 -0.9211  0.4435
  152DOPC   H8S18200   3.579   2.238  15.600  0.2703 -0.8644 -0.5759
  152DOPC   C2918201   3.777   2.255  15.531  0.0128 -0.3069 -0.3941
  152DOPC   H9R18202   3.825   2.190  15.607  0.7826  3.5847  2.7749
  152DOPC  C21018203   3.822   2.239  15.405 -0.2398  0.2954 -0.5754
  152DOPC  H10R18204   3.917   2.187  15.387 -0.0120  0.5362 -0.0949
  152DOPC  C21118205   3.752   2.282  15.276 -0.2289 -0.7173  0.2637
  152DOPC  H11R18206   3.658   2.337  15.294 -0.1681 -1.3327  2.8543
  152DOPC  H11S18207   3.733   2.194  15.211  1.1348 -0.3894 -0.6320
  152DOPC  C21218208   3.856   2.355  15.194 -0.3617  0.2216  0.3148
  152DOPC  H12R18209   3.953   2.303  15.187 -0.5965 -0.2676  0.6832
  152DOPC  H12S18210   3.877   2.450  15.247  0.0313  0.2064  0.1919
  152DOPC  C21318211   3.806   2.401  15.052 -0.0358  0.5347  0.0322
  152DOPC  H13R18212   3.706   2.449  15.057  0.6186  1.8066  1.8555
  152DOPC  H13S18213   3.786   2.309  14.993  0.1250 -0.6128  1.7221
  152DOPC  C21418214   3.902   2.486  14.971  0.1035 -0.6638 -0.1571
  152DOPC  H14R18215   3.988   2.418  14.951 -0.0676 -0.4465 -1.7234
  152DOPC  H14S18216   3.938   2.578  15.023  0.5682 -1.2307  0.5345
  152DOPC  C21518217   3.852   2.535  14.829 -0.2698 -0.3075 -0.0512
  152DOPC  H15R18218   3.837   2.440  14.774 -0.6972 -1.3637  1.8046
  152DOPC  H15S18219   3.930   2.587  14.770  2.0648 -2.4946  0.9185
  152DOPC  C21618220   3.721   2.601  14.829  0.0293  0.0254  0.5780
  152DOPC  H16R18221   3.725   2.699  14.883 -1.8363  0.5085 -0.0855
  152DOPC  H16S18222   3.646   2.540  14.884  2.9645 -2.3573  2.2328
  152DOPC  C21718223   3.679   2.623  14.683 -0.3023  0.2495  0.2657
  152DOPC  H17R18224   3.655   2.524  14.637  1.0775 -0.2823  0.6562
  152DOPC  H17S18225   3.760   2.666  14.621 -0.8542 -0.5447 -1.0467
  152DOPC  C21818226   3.558   2.715  14.672 -0.3189 -0.5116  1.3352
  152DOPC  H18R18227   3.524   2.737  14.568  1.2090  0.9906  1.1066
  152DOPC  H18S18228   3.580   2.818  14.707  0.3416  0.4815 -1.7005
  152DOPC  H18T18229   3.479   2.677  14.740 -0.7196 -0.4343  0.9155
  152DOPC   C3318230   3.024   2.214  16.599 -0.2436  0.2525 -0.0003
  152DOPC   H3X18231   2.989   2.315  16.629  1.1893  0.6903  0.2553
  152DOPC   H3Y18232   3.052   2.153  16.688  2.8748 -0.4689 -1.3512
  152DOPC   C3418233   2.922   2.148  16.500 -0.7343 -0.5614 -0.4081
  152DOPC   H4X18234   2.832   2.114  16.555  0.6576  0.6206  2.8376
  152DOPC   H4Y18235   2.971   2.064  16.447 -1.6722 -1.3614 -0.0278
  152DOPC   C3518236   2.861   2.252  16.397 -0.3279  0.0609  0.4451
  152DOPC   H5X18237   2.942   2.294  16.333  1.4221  0.9289  3.0693
  152DOPC   H5Y18238   2.822   2.343  16.448  0.9023  0.5902  0.4784
  152DOPC   C3618239   2.743   2.181  16.326 -0.4663  0.3178  0.3886
  152DOPC   H6X18240   2.786   2.084  16.293  0.9449  1.2277 -0.5663
  152DOPC   H6Y18241   2.658   2.165  16.395 -0.7123 -1.6263 -0.3245
  152DOPC   C3718242   2.676   2.252  16.206 -0.0180  0.4496  0.4378
  152DOPC   H7X18243   2.588   2.189  16.183 -0.1449 -0.1541  2.3658
  152DOPC   H7Y18244   2.635   2.352  16.234  0.2442  0.9603 -0.9296
  152DOPC   C3818245   2.770   2.270  16.080 -0.3501  0.2881  0.5716
  152DOPC   H8X18246   2.847   2.346  16.108 -0.4959  0.7191 -0.1864
  152DOPC   H8Y18247   2.714   2.310  15.993  0.1120  0.2863  0.2658
  152DOPC   C3918248   2.854   2.143  16.052  0.4982 -0.4388  0.2063
  152DOPC   H9X18249   2.932   2.132  16.129  0.5046 -2.5830 -0.0458
  152DOPC  C31018250   2.842   2.066  15.942  0.5907  0.1746  0.0020
  152DOPC  H10X18251   2.911   1.980  15.937 -0.4670 -0.6818 -0.1666
  152DOPC  C31118252   2.733   2.087  15.840 -0.4703 -0.2418  0.1991
  152DOPC  H11X18253   2.641   2.132  15.883 -1.2159 -0.8474 -0.7460
  152DOPC  H11Y18254   2.705   1.986  15.803 -1.7679  0.8805 -2.1054
  152DOPC  C31218255   2.770   2.178  15.720  0.4343  0.1712 -0.1638
  152DOPC  H12X18256   2.869   2.153  15.676 -0.2075  0.3657 -1.7933
  152DOPC  H12Y18257   2.794   2.279  15.759  1.6671 -0.0823 -0.2200
  152DOPC  C31318258   2.658   2.199  15.617 -0.3921  0.4464  0.5211
  152DOPC  H13X18259   2.609   2.102  15.591  0.0953  0.4803 -0.5621
  152DOPC  H13Y18260   2.577   2.263  15.659  0.3368  1.6120  0.1974
  152DOPC  C31418261   2.704   2.267  15.487 -0.1476 -0.2210 -0.0170
  152DOPC  H14X18262   2.714   2.377  15.504  4.1625 -0.6541  1.8023
  152DOPC  H14Y18263   2.812   2.242  15.481 -0.5753 -1.9839 -0.9497
  152DOPC  C31518264   2.623   2.224  15.364 -0.6923 -0.1586 -0.3428
  152DOPC  H15X18265   2.518   2.257  15.374 -1.2539 -2.5330  3.5822
  152DOPC  H15Y18266   2.632   2.114  15.352  2.2265  0.2502 -3.5227
  152DOPC  C31618267   2.687   2.279  15.231  0.3843  0.4506 -0.0904
  152DOPC  H16X18268   2.719   2.384  15.246 -0.2648  0.7392 -0.6628
  152DOPC  H16Y18269   2.778   2.216  15.227  0.3852  0.3102  1.5144
  152DOPC  C31718270   2.606   2.284  15.106 -0.4493  0.2501 -0.0584
  152DOPC  H17X18271   2.507   2.324  15.138 -1.2465 -0.5624 -1.4184
  152DOPC  H17Y18272   2.654   2.347  15.028  1.1693 -0.6580  0.1683
  152DOPC  C31818273   2.575   2.143  15.065 -0.0269  0.0089 -0.2742
  152DOPC  H18X18274   2.663   2.075  15.060 -2.6140 -3.5975 -0.7537
  152DOPC  H18Y18275   2.489   2.102  15.122 -1.1552  1.8612 -0.5621
  152DOPC  H18Z18276   2.532   2.147  14.962  0.6224  2.1080 -0.5070
  153DOPC     N18277   3.655   7.073  16.709  0.3307 -0.5738 -1.3341
  153DOPC   C1218278   3.749   7.137  16.807 -0.5131  0.2784  0.0755
  153DOPC  H12A18279   3.834   7.159  16.744 -0.6455  0.4527 -0.0445
  153DOPC  H12B18280   3.766   7.069  16.889 -2.4463  0.3669  0.6145
  153DOPC   C1318281   3.534   7.044  16.784 -0.2115 -0.0678 -0.1968
  153DOPC  H13A18282   3.565   6.989  16.871 -1.0996 -0.3547 -0.0481
  153DOPC  H13B18283   3.467   7.124  16.812  0.3703  0.9154 -1.5006
  153DOPC  H13C18284   3.470   6.976  16.729 -0.4413  0.5633 -0.7396
  153DOPC   C1418285   3.700   6.942  16.660  0.3493  0.4205  0.0221
  153DOPC  H14A18286   3.785   6.956  16.596  0.5685  0.0230  0.2231
  153DOPC  H14B18287   3.719   6.874  16.742 -2.1680 -2.1854 -1.3466
  153DOPC  H14C18288   3.618   6.901  16.601 -1.0986  2.1176  0.7718
  153DOPC   C1518289   3.630   7.167  16.599  0.2169  0.1694  0.3407
  153DOPC  H15A18290   3.562   7.119  16.531  1.3588 -1.9735  0.6187
  153DOPC  H15B18291   3.725   7.193  16.555 -0.0382 -0.8369 -0.8524
  153DOPC  H15C18292   3.579   7.258  16.629  0.4540  0.9683 -1.5180
  153DOPC   C1118293   3.716   7.273  16.878 -0.2038 -0.0424 -0.1154
  153DOPC  H11A18294   3.612   7.259  16.915  0.0922 -0.5583  0.5346
  153DOPC  H11B18295   3.779   7.291  16.968  0.6822 -0.2595 -0.6936
  153DOPC     P18296   3.862   7.454  16.756 -0.3021  0.0665 -0.1491
  153DOPC   O1318297   3.927   7.385  16.648 -0.4877 -0.0385  0.1700
  153DOPC   O1418298   3.946   7.454  16.875 -0.3098  0.0801 -0.0651
  153DOPC   O1218299   3.720   7.385  16.788  0.0439 -0.0866 -0.0120
  153DOPC   O1118300   3.820   7.600  16.708  0.5049 -0.2920  0.9996
  153DOPC    C118301   3.713   7.624  16.614  0.0490 -0.2137  0.1384
  153DOPC    HA18302   3.682   7.731  16.617 -1.7338 -0.7163  1.8439
  153DOPC    HB18303   3.625   7.560  16.639  1.2874 -1.9996  0.1465
  153DOPC    C218304   3.754   7.607  16.460  0.0318  0.4761  0.2311
  153DOPC    HS18305   3.837   7.534  16.463  0.5951  1.0905 -0.1084
  153DOPC   O2118306   3.798   7.729  16.394  0.6058  0.2061 -0.3474
  153DOPC   C2118307   3.883   7.725  16.295 -0.1280 -0.1404 -0.3966
  153DOPC   O2218308   3.952   7.628  16.275 -0.5706  0.4045  0.1907
  153DOPC   C2218309   3.908   7.868  16.239  0.1989 -0.5978 -0.0534
  153DOPC   H2R18310   4.015   7.886  16.262  1.1298 -1.5613 -3.1739
  153DOPC   H2S18311   3.848   7.941  16.298 -0.5341 -1.0386 -0.2339
  153DOPC    C318312   3.636   7.539  16.375  0.1780  0.3685  0.2175
  153DOPC    HX18313   3.560   7.617  16.355  0.3884  0.7940  1.0522
  153DOPC    HY18314   3.594   7.458  16.439  2.6086 -0.1546  1.2348
  153DOPC   O3118315   3.679   7.496  16.248 -0.0790  0.0662 -0.3380
  153DOPC   C3118316   3.756   7.388  16.240  0.3407  0.4724  0.0232
  153DOPC   O3218317   3.772   7.312  16.331 -0.5523  0.2562 -0.4422
  153DOPC   C3218318   3.820   7.368  16.097  0.3917 -0.0683 -0.3814
  153DOPC   H2X18319   3.927   7.383  16.123  0.2445  2.3619 -0.9047
  153DOPC   H2Y18320   3.797   7.264  16.064 -0.0323  0.8763 -3.3967
  153DOPC   C2318321   3.890   7.890  16.087 -0.2780  0.5010  0.9283
  153DOPC   H3R18322   3.882   7.999  16.068  1.6907  0.5759  0.3072
  153DOPC   H3S18323   3.795   7.838  16.062  0.0848 -0.2896  1.1355
  153DOPC   C2418324   3.997   7.809  16.001  0.7576 -0.5970 -0.0293
  153DOPC   H4R18325   3.979   7.699  15.998  0.4480 -0.5969  1.2915
  153DOPC   H4S18326   4.098   7.834  16.038  0.1717  0.6936  0.7568
  153DOPC   C2518327   4.003   7.868  15.858 -0.2907  0.2997 -0.7623
  153DOPC   H5R18328   3.992   7.978  15.862  2.7534  0.6804 -0.7314
  153DOPC   H5S18329   3.918   7.818  15.805 -0.8741 -0.2699  0.6636
  153DOPC   C2618330   4.135   7.840  15.782  0.3945  0.3819  0.1187
  153DOPC   H6R18331   4.157   7.731  15.785 -0.1818  0.2869  1.1118
  153DOPC   H6S18332   4.209   7.886  15.850 -1.2033  1.2641  1.3200
  153DOPC   C2718333   4.138   7.892  15.639  0.0713 -0.0014  0.1973
  153DOPC   H7R18334   4.241   7.872  15.602  0.1958 -0.7905  0.9494
  153DOPC   H7S18335   4.118   8.000  15.654 -1.1548 -0.1971  0.0693
  153DOPC   C2818336   4.033   7.835  15.544  0.5220  0.7480 -0.1748
  153DOPC   H8R18337   3.929   7.854  15.578 -0.1889  1.9175 -2.7563
  153DOPC   H8S18338   4.044   7.725  15.531  0.8654  0.8447 -0.7406
  153DOPC   C2918339   4.031   7.902  15.407  0.3437 -0.5241 -0.2076
  153DOPC   H9R18340   4.065   8.006  15.406 -1.0787 -0.0017  1.1171
  153DOPC  C21018341   3.983   7.845  15.292 -0.2495 -0.0791 -0.0401
  153DOPC  H10R18342   3.991   7.897  15.195 -1.0678 -2.1175 -1.2645
  153DOPC  C21118343   3.935   7.704  15.274  0.2441 -0.6885  0.3101
  153DOPC  H11R18344   3.911   7.662  15.374 -0.5285 -0.0333  0.4046
  153DOPC  H11S18345   4.017   7.641  15.234  1.3581  1.6530 -1.3228
  153DOPC  C21218346   3.811   7.687  15.179  0.1485 -0.3333  0.3961
  153DOPC  H12R18347   3.737   7.768  15.194  0.8442  0.8179 -1.9117
  153DOPC  H12S18348   3.764   7.588  15.200 -0.5528  0.0164  0.4866
  153DOPC  C21318349   3.847   7.708  15.033  0.7246  0.8252  0.5743
  153DOPC  H13R18350   3.940   7.656  15.004  0.4497  1.6604 -2.0646
  153DOPC  H13S18351   3.865   7.817  15.021  0.1073  0.7577 -1.2574
  153DOPC  C21418352   3.735   7.659  14.943  0.5374 -0.2825  0.0188
  153DOPC  H14R18353   3.643   7.720  14.957  0.4260 -0.7306  1.3953
  153DOPC  H14S18354   3.691   7.560  14.967 -1.9745  0.9429  0.8094
  153DOPC  C21518355   3.787   7.669  14.800 -0.0183 -0.5889  0.2009
  153DOPC  H15R18356   3.871   7.599  14.784  1.1868  0.0985  3.0346
  153DOPC  H15S18357   3.815   7.776  14.790  1.1138 -0.7862  1.0700
  153DOPC  C21618358   3.681   7.638  14.696 -0.2599 -0.1803 -0.2082
  153DOPC  H16R18359   3.579   7.674  14.723 -0.0418  0.2637  0.0277
  153DOPC  H16S18360   3.660   7.529  14.693  0.5057 -0.4284  1.9294
  153DOPC  C21718361   3.722   7.666  14.552 -0.3631 -0.5681  0.3096
  153DOPC  H17R18362   3.805   7.594  14.533 -0.3376 -0.4329 -0.1060
  153DOPC  H17S18363   3.764   7.769  14.547 -0.2074 -0.6788 -1.7570
  153DOPC  C21818364   3.611   7.634  14.441  0.2702 -0.4899 -0.5226
  153DOPC  H18R18365   3.565   7.536  14.464  0.1743 -0.1377  0.8676
  153DOPC  H18S18366   3.639   7.633  14.333 -1.2257 -0.5846 -0.9265
  153DOPC  H18T18367   3.527   7.706  14.438 -1.3328 -2.2597  0.1015
  153DOPC   C3318368   3.782   7.476  15.988 -0.1513  0.2932  0.0147
  153DOPC   H3X18369   3.822   7.572  16.027 -1.4140  0.4753  0.9524
  153DOPC   H3Y18370   3.671   7.487  15.994  0.0417  1.6808  2.3079
  153DOPC   C3418371   3.827   7.439  15.847 -0.5427  0.2100  0.4421
  153DOPC   H4X18372   3.788   7.340  15.812  0.0888  0.2928 -0.5527
  153DOPC   H4Y18373   3.937   7.434  15.862 -0.5396  1.0217  0.6877
  153DOPC   C3518374   3.794   7.549  15.747  0.2779 -0.8713 -0.2287
  153DOPC   H5X18375   3.864   7.633  15.767  0.5874 -1.5687  1.8974
  153DOPC   H5Y18376   3.690   7.582  15.766  0.2554  0.0173 -1.7811
  153DOPC   C3618377   3.799   7.491  15.610 -0.1316 -0.4014 -0.1239
  153DOPC   H6X18378   3.701   7.445  15.584 -0.8261  0.8229  0.2216
  153DOPC   H6Y18379   3.808   7.577  15.540  2.0560  0.0499  0.6388
  153DOPC   C3718380   3.911   7.396  15.572 -1.0251  0.0764  0.8506
  153DOPC   H7X18381   4.013   7.438  15.589 -0.6444  0.2458 -1.5168
  153DOPC   H7Y18382   3.904   7.300  15.627 -3.9032  0.1386  0.6992
  153DOPC   C3818383   3.927   7.355  15.417  0.4671  0.4752 -0.6536
  153DOPC   H8X18384   4.016   7.289  15.403 -0.1073 -0.3798 -0.3364
  153DOPC   H8Y18385   3.962   7.451  15.374  2.0040  0.6725  0.9282
  153DOPC   C3918386   3.809   7.296  15.341  0.0251 -0.0512  0.1423
  153DOPC   H9X18387   3.722   7.278  15.406 -1.1859  1.3144 -1.0248
  153DOPC  C31018388   3.810   7.248  15.212 -0.1225  0.5129  0.4293
  153DOPC  H10X18389   3.713   7.209  15.180  0.2262  1.3964 -1.8965
  153DOPC  C31118390   3.930   7.241  15.118 -0.0796  0.1630 -0.0887
  153DOPC  H11X18391   3.985   7.145  15.117  0.5876  0.5412 -0.2321
  153DOPC  H11Y18392   4.008   7.315  15.147  1.2627 -0.1036 -2.7841
  153DOPC  C31218393   3.891   7.283  14.976 -0.0337  0.9247  0.5249
  153DOPC  H12X18394   3.842   7.383  14.981  0.5202  1.2583 -0.3844
  153DOPC  H12Y18395   3.836   7.200  14.927  1.4750 -1.0353  1.9691
  153DOPC  C31318396   4.017   7.317  14.892  0.2257  0.0331 -0.1944
  153DOPC  H13X18397   4.054   7.419  14.916 -2.8624  0.9012  1.3726
  153DOPC  H13Y18398   4.094   7.239  14.912 -1.9255 -2.2604 -0.3991
  153DOPC  C31418399   3.980   7.311  14.742 -0.1526 -0.1419  0.1485
  153DOPC  H14X18400   3.942   7.207  14.729  0.8409 -0.3889 -0.9014
  153DOPC  H14Y18401   3.905   7.393  14.731  1.9010  1.6342 -1.2556
  153DOPC  C31518402   4.090   7.324  14.634 -0.7364  0.5583 -0.4482
  153DOPC  H15X18403   4.177   7.254  14.632 -0.7603  0.5274 -1.9591
  153DOPC  H15Y18404   4.142   7.422  14.644  0.6858 -0.2949  0.9419
  153DOPC  C31618405   4.025   7.316  14.498  0.1486 -0.5677 -0.6355
  153DOPC  H16X18406   3.971   7.220  14.484  0.1368 -0.7173  0.3942
  153DOPC  H16Y18407   3.942   7.384  14.471  0.4585 -0.2386 -0.7688
  153DOPC  C31718408   4.122   7.306  14.377  0.0873  0.0728 -0.3755
  153DOPC  H17X18409   4.161   7.406  14.350 -0.9273  0.9792  1.3531
  153DOPC  H17Y18410   4.213   7.244  14.390 -0.7095 -1.0004  0.2769
  153DOPC  C31818411   4.049   7.250  14.253  0.0892  0.5109  0.1828
  153DOPC  H18X18412   3.973   7.328  14.228 -1.0243 -0.4899  0.3248
  153DOPC  H18Y18413   4.128   7.240  14.176  1.0136  1.4353  0.9997
  153DOPC  H18Z18414   4.007   7.149  14.274 -2.6549  1.3147 -0.9511
  154DOPC     N18415   6.056   5.383  17.056  0.4747  0.3598 -0.1280
  154DOPC   C1218416   6.070   5.233  17.032 -0.4115  0.4814  0.2326
  154DOPC  H12A18417   6.009   5.203  16.948  1.9506 -0.7547 -1.1265
  154DOPC  H12B18418   6.029   5.180  17.117 -1.8673 -0.9137 -1.2507
  154DOPC   C1318419   6.077   5.456  16.924 -0.0653  0.0907  0.1758
  154DOPC  H13A18420   6.060   5.562  16.937 -0.7442 -0.2314  2.2578
  154DOPC  H13B18421   6.175   5.435  16.884 -1.0441 -1.3229 -1.6354
  154DOPC  H13C18422   6.005   5.433  16.846  0.8835  1.0860 -1.0395
  154DOPC   C1418423   6.151   5.430  17.154 -0.0301 -0.3151  0.0376
  154DOPC  H14A18424   6.131   5.531  17.189 -1.2700 -1.0871  1.7306
  154DOPC  H14B18425   6.141   5.367  17.241 -1.0978  0.6303  0.6366
  154DOPC  H14C18426   6.249   5.407  17.116 -0.4406 -1.5920 -0.2677
  154DOPC   C1518427   5.915   5.423  17.111 -0.2734  0.3001  1.3161
  154DOPC  H15A18428   5.905   5.530  17.123 -2.3717  0.1818  0.9341
  154DOPC  H15B18429   5.882   5.378  17.204 -0.6840  2.3478  2.2152
  154DOPC  H15C18430   5.841   5.407  17.035 -1.2312  4.9373  0.9508
  154DOPC   C1118431   6.202   5.167  16.999  0.1451 -0.1835  0.2028
  154DOPC  H11A18432   6.271   5.160  17.085 -0.2092  3.0955  0.8868
  154DOPC  H11B18433   6.177   5.065  16.963 -2.1863  0.7868 -1.2075
  154DOPC     P18434   6.250   5.208  16.743 -0.5286  0.3041  0.0919
  154DOPC   O1318435   6.328   5.086  16.707  0.0485  0.0168 -0.4185
  154DOPC   O1418436   6.272   5.335  16.668  0.0607  0.1145  0.1441
  154DOPC   O1218437   6.274   5.233  16.899 -0.3628 -0.2531 -0.0169
  154DOPC   O1118438   6.094   5.181  16.729 -0.2416 -0.0584 -0.1285
  154DOPC    C118439   6.038   5.054  16.710  0.1173 -0.0106  0.5498
  154DOPC    HA18440   5.937   5.048  16.755  0.4630 -0.0615  1.3378
  154DOPC    HB18441   6.091   4.975  16.769  1.0631  0.2106  0.0261
  154DOPC    C218442   6.024   5.022  16.556  0.0375 -0.0304  0.4908
  154DOPC    HS18443   5.945   4.945  16.541  0.8690 -0.5281 -1.7033
  154DOPC   O2118444   6.151   4.970  16.510  0.4746  0.4129  0.6292
  154DOPC   C2118445   6.162   4.836  16.519 -0.3831 -0.0058  0.2095
  154DOPC   O2218446   6.088   4.752  16.562 -0.0454 -0.1990 -0.0625
  154DOPC   C2218447   6.297   4.812  16.445 -0.5611  0.1827 -0.0419
  154DOPC   H2R18448   6.338   4.715  16.479  1.4190  1.3730  1.1435
  154DOPC   H2S18449   6.368   4.885  16.487  3.3446 -2.2524 -1.8379
  154DOPC    C318450   5.981   5.144  16.480 -0.3111  0.3548 -0.1715
  154DOPC    HX18451   6.054   5.227  16.488  1.0380 -0.8033 -0.0923
  154DOPC    HY18452   5.894   5.187  16.533 -0.7612 -0.5945 -0.1110
  154DOPC   O3118453   5.960   5.118  16.336  0.0443  0.2463  0.7275
  154DOPC   C3118454   5.827   5.102  16.299  0.6346  0.2370 -0.0757
  154DOPC   O3218455   5.735   5.093  16.378  0.0653  0.4285 -0.1630
  154DOPC   C3218456   5.822   5.085  16.149  0.1458 -0.6448  0.4931
  154DOPC   H2X18457   5.921   5.061  16.103 -0.1988 -1.6976  0.2619
  154DOPC   H2Y18458   5.743   5.009  16.132 -2.0628  1.8879 -1.2308
  154DOPC   C2318459   6.286   4.825  16.296  0.1072  0.6611 -0.2809
  154DOPC   H3R18460   6.254   4.929  16.275 -0.9049  0.1790 -1.2201
  154DOPC   H3S18461   6.216   4.760  16.239  2.6500 -0.8752 -1.8661
  154DOPC   C2418462   6.419   4.794  16.226  0.1870 -0.4529  0.5323
  154DOPC   H4R18463   6.435   4.685  16.212 -0.5151 -0.4990  0.0419
  154DOPC   H4S18464   6.503   4.823  16.293 -0.3243 -2.5313  2.1929
  154DOPC   C2518465   6.441   4.861  16.090 -0.0716  0.0215 -0.3488
  154DOPC   H5R18466   6.435   4.972  16.095  1.6952  0.2200 -1.5228
  154DOPC   H5S18467   6.361   4.823  16.024  0.9916 -2.0133 -0.5448
  154DOPC   C2618468   6.572   4.819  16.015 -0.7537  0.2859  0.1910
  154DOPC   H6R18469   6.561   4.819  15.905  0.8450 -1.3745 -0.0028
  154DOPC   H6S18470   6.609   4.718  16.040  0.8326  0.9581  0.7465
  154DOPC   C2718471   6.675   4.925  16.042  0.0006  0.4558 -0.0930
  154DOPC   H7R18472   6.675   4.970  16.143 -1.5872 -1.9020  1.0446
  154DOPC   H7S18473   6.640   5.001  15.969  0.6152 -0.9041 -1.8895
  154DOPC   C2818474   6.811   4.866  16.017  0.0743 -0.3926  0.2631
  154DOPC   H8R18475   6.801   4.816  15.918 -0.7248  2.9318 -1.4550
  154DOPC   H8S18476   6.835   4.780  16.084  0.0441 -0.7648 -0.1964
  154DOPC   C2918477   6.935   4.960  16.017  0.8652  0.3681 -0.5187
  154DOPC   H9R18478   6.945   5.024  16.106 -3.5610  0.7780 -0.1235
  154DOPC  C21018479   7.020   4.982  15.919  0.6207  0.2997 -0.1158
  154DOPC  H10R18480   7.098   5.057  15.941 -0.6780  1.3086  1.1942
  154DOPC  C21118481   7.013   4.918  15.786 -0.2201 -0.1152  0.7731
  154DOPC  H11R18482   6.911   4.882  15.760  0.2700 -1.3790  0.5084
  154DOPC  H11S18483   7.080   4.829  15.788  0.1343  0.1518  0.8792
  154DOPC  C21218484   7.078   5.003  15.672 -0.4765  0.2924 -0.1808
  154DOPC  H12R18485   7.176   5.036  15.713 -0.3396 -0.9649  0.5499
  154DOPC  H12S18486   7.012   5.091  15.655 -0.1161  0.8558  1.2555
  154DOPC  C21318487   7.108   4.932  15.543 -0.1642 -0.3615 -0.0363
  154DOPC  H13R18488   7.188   4.858  15.566  0.0192 -0.6977 -1.6590
  154DOPC  H13S18489   7.147   5.002  15.466  1.2220 -1.9628 -0.8665
  154DOPC  C21418490   6.995   4.854  15.480  0.0257  0.7023  0.7356
  154DOPC  H14R18491   6.905   4.916  15.459  0.1744  0.3601 -1.0629
  154DOPC  H14S18492   6.970   4.775  15.554  0.3921 -1.9794 -1.7944
  154DOPC  C21518493   7.043   4.790  15.351 -0.0270  0.5847 -0.2586
  154DOPC  H15R18494   7.081   4.869  15.282  1.9945 -1.1322 -1.1845
  154DOPC  H15S18495   6.952   4.748  15.303 -0.7900  0.8017  0.9520
  154DOPC  C21618496   7.145   4.681  15.369 -0.9500  0.5309 -0.1116
  154DOPC  H16R18497   7.232   4.728  15.418  1.1701 -0.2549 -2.8785
  154DOPC  H16S18498   7.185   4.629  15.280  0.2502 -1.2065  1.3729
  154DOPC  C21718499   7.109   4.568  15.471  0.1753  0.0379 -0.3146
  154DOPC  H17R18500   7.019   4.510  15.443  0.2730 -0.3555  0.1701
  154DOPC  H17S18501   7.073   4.617  15.564 -3.3015 -1.8885 -0.4810
  154DOPC  C21818502   7.222   4.471  15.500  0.0278  0.2248  0.5253
  154DOPC  H18R18503   7.292   4.515  15.575  0.7113 -2.3677  1.5148
  154DOPC  H18S18504   7.277   4.454  15.405 -0.4943  2.1538 -0.1730
  154DOPC  H18T18505   7.181   4.376  15.538 -0.8597  1.0847  1.8189
  154DOPC   C3318506   5.761   5.211  16.080  0.1469 -0.6311 -0.3626
  154DOPC   H3X18507   5.842   5.285  16.092 -0.8543  0.2367  1.4569
  154DOPC   H3Y18508   5.670   5.262  16.117  2.1679  2.4470  0.6858
  154DOPC   C3418509   5.741   5.182  15.934  0.5110 -0.2760 -0.7777
  154DOPC   H4X18510   5.658   5.110  15.917  0.0906 -0.0812  0.4031
  154DOPC   H4Y18511   5.838   5.135  15.906  0.3022 -2.6748  2.1451
  154DOPC   C3518512   5.719   5.310  15.846  0.1351  0.0370 -0.2194
  154DOPC   H5X18513   5.818   5.359  15.855  0.0409  0.8312 -2.7800
  154DOPC   H5Y18514   5.640   5.378  15.886 -1.9202 -2.5072  0.3092
  154DOPC   C3618515   5.710   5.278  15.694 -0.2946 -0.2536 -0.7404
  154DOPC   H6X18516   5.779   5.195  15.668  2.0591  1.2507  0.3285
  154DOPC   H6Y18517   5.609   5.237  15.672 -1.9914  2.1286  1.9634
  154DOPC   C3718518   5.724   5.396  15.611 -0.1739 -0.1879 -0.3423
  154DOPC   H7X18519   5.651   5.477  15.632  2.0971  1.4343  1.7796
  154DOPC   H7Y18520   5.825   5.436  15.631 -0.1888 -1.5465  3.0657
  154DOPC   C3818521   5.714   5.364  15.460  1.0261 -0.3205 -0.4276
  154DOPC   H8X18522   5.761   5.263  15.455  0.6913 -0.5743  1.0570
  154DOPC   H8Y18523   5.775   5.430  15.395 -0.7958 -0.2153 -2.0977
  154DOPC   C3918524   5.568   5.356  15.417 -0.5487  0.0287 -0.0594
  154DOPC   H9X18525   5.515   5.273  15.466 -1.0987 -0.6841 -1.7967
  154DOPC  C31018526   5.510   5.414  15.313  0.9299 -0.9035  0.6842
  154DOPC  H10X18527   5.403   5.398  15.299  0.4030  2.1338  0.5218
  154DOPC  C31118528   5.569   5.522  15.215 -0.0018  0.8974  0.7658
  154DOPC  H11X18529   5.617   5.604  15.272 -1.6091  1.1496  1.7970
  154DOPC  H11Y18530   5.489   5.570  15.155  1.3520 -0.1652 -2.0972
  154DOPC  C31218531   5.654   5.464  15.103  0.2329  0.3319 -0.0234
  154DOPC  H12X18532   5.593   5.388  15.050 -1.4197  1.0064  0.8373
  154DOPC  H12Y18533   5.740   5.414  15.153 -0.6844  0.7478  2.0853
  154DOPC  C31318534   5.696   5.583  15.009 -0.0038 -0.6779  0.6737
  154DOPC  H13X18535   5.611   5.621  14.949  0.2738 -0.4239  0.4351
  154DOPC  H13Y18536   5.711   5.665  15.082  2.1948 -0.8139  0.4692
  154DOPC  C31418537   5.809   5.548  14.924 -0.6223 -0.4109  0.7573
  154DOPC  H14X18538   5.894   5.512  14.986 -0.2544 -0.8814 -0.0035
  154DOPC  H14Y18539   5.775   5.460  14.865 -2.5184 -1.5133  3.2777
  154DOPC  C31518540   5.856   5.671  14.832  0.0023 -0.1258 -0.1984
  154DOPC  H15X18541   5.786   5.681  14.746 -2.1138 -2.4154  1.1129
  154DOPC  H15Y18542   5.946   5.640  14.775 -0.4410  1.5708 -1.9149
  154DOPC  C31618543   5.868   5.800  14.909 -0.0614  0.7008 -0.9190
  154DOPC  H16X18544   5.767   5.828  14.945  0.2314  1.6294 -0.7737
  154DOPC  H16Y18545   5.934   5.781  14.997 -0.5391 -0.6857 -0.8362
  154DOPC  C31718546   5.928   5.918  14.841  0.7088 -0.4630  0.3998
  154DOPC  H17X18547   5.883   5.915  14.739 -0.0780 -0.1379  0.7289
  154DOPC  H17Y18548   5.882   6.009  14.886 -1.6873 -1.2142 -0.3328
  154DOPC  C31818549   6.086   5.927  14.823 -0.1239 -0.6813 -0.3211
  154DOPC  H18X18550   6.112   5.930  14.715  1.2992  2.1785  0.0076
  154DOPC  H18Y18551   6.116   6.024  14.869 -0.9314 -0.5466 -0.0527
  154DOPC  H18Z18552   6.133   5.844  14.880  0.4849 -0.8307 -1.0301
  155DOPC     N18553   1.115   2.816  16.894 -0.6955  0.2012  0.1578
  155DOPC   C1218554   1.109   2.865  16.749  0.2587 -0.4550  0.5865
  155DOPC  H12A18555   1.174   2.951  16.751 -0.2968  0.0266 -1.0712
  155DOPC  H12B18556   1.007   2.895  16.736  0.5408  1.3222  1.9897
  155DOPC   C1318557   1.017   2.706  16.906  0.1136  0.2453 -0.6646
  155DOPC  H13A18558   1.037   2.651  16.997  0.0884  0.8452 -0.2893
  155DOPC  H13B18559   0.917   2.747  16.904  0.2243  0.5041 -1.6348
  155DOPC  H13C18560   1.020   2.633  16.826  2.0575 -2.3589  1.5950
  155DOPC   C1418561   1.083   2.924  16.984 -0.5934 -0.5699 -0.0220
  155DOPC  H14A18562   1.116   2.895  17.083 -0.7954 -0.7111  0.0048
  155DOPC  H14B18563   1.121   3.020  16.953 -1.6681  0.4337  1.6475
  155DOPC  H14C18564   0.976   2.935  16.981 -0.6353 -1.0744 -1.0267
  155DOPC   C1518565   1.247   2.755  16.931 -0.3931  0.2300 -0.4359
  155DOPC  H15A18566   1.247   2.749  17.039 -2.8681  0.4623 -0.3484
  155DOPC  H15B18567   1.330   2.823  16.925  1.2853 -1.4641  1.8741
  155DOPC  H15C18568   1.263   2.656  16.891 -1.5110 -1.8117  3.6550
  155DOPC   C1118569   1.145   2.769  16.638  0.4471 -0.1315 -0.2091
  155DOPC  H11A18570   1.156   2.822  16.541 -2.0870  0.8276 -0.0602
  155DOPC  H11B18571   1.238   2.713  16.662 -1.4458 -2.1238  3.2529
  155DOPC     P18572   0.897   2.707  16.554  0.1048 -0.1880  0.3220
  155DOPC   O1318573   0.907   2.851  16.507  0.2440  0.0901 -0.0248
  155DOPC   O1418574   0.802   2.680  16.667  0.2307 -0.3125  0.4713
  155DOPC   O1218575   1.039   2.666  16.618 -0.0380 -0.4712 -0.3665
  155DOPC   O1118576   0.867   2.610  16.435  0.2649 -0.4400  0.4693
  155DOPC    C118577   0.950   2.608  16.315  0.0788  0.2681  0.5625
  155DOPC    HA18578   0.967   2.508  16.270 -1.2745  1.6896 -3.5464
  155DOPC    HB18579   1.051   2.653  16.321  0.6309 -0.5563 -1.5760
  155DOPC    C218580   0.882   2.680  16.197  0.2699  0.2151 -0.0546
  155DOPC    HS18581   0.857   2.785  16.223 -3.3663 -0.1857 -1.2656
  155DOPC   O2118582   0.758   2.607  16.183  0.1799  0.1949 -0.0597
  155DOPC   C2118583   0.663   2.667  16.117 -0.3957  0.5747 -0.0342
  155DOPC   O2218584   0.655   2.785  16.093 -0.6356 -0.4358 -0.2668
  155DOPC   C2218585   0.561   2.561  16.077  0.1035  0.0974  0.4822
  155DOPC   H2R18586   0.471   2.570  16.141 -2.5393  0.6688 -3.0125
  155DOPC   H2S18587   0.601   2.458  16.081  0.8459  0.3534 -0.0393
  155DOPC    C318588   0.961   2.676  16.067  0.4491 -0.3079  0.4863
  155DOPC    HX18589   1.008   2.576  16.054  1.3976  0.1340  0.3969
  155DOPC    HY18590   1.043   2.748  16.089  0.3047 -0.4467  1.5688
  155DOPC   O3118591   0.888   2.715  15.943 -0.9578  0.2720 -0.5902
  155DOPC   C3118592   0.879   2.845  15.922 -0.2828  0.8257  0.4262
  155DOPC   O3218593   0.931   2.927  15.992  0.2222 -0.3700 -0.4897
  155DOPC   C3218594   0.798   2.870  15.797  0.2336 -0.3761  0.1168
  155DOPC   H2X18595   0.699   2.820  15.802  0.1491 -0.1046  1.7979
  155DOPC   H2Y18596   0.776   2.979  15.787 -0.1318 -0.6106 -2.0839
  155DOPC   C2318597   0.508   2.587  15.932 -0.4051 -0.0550  0.2864
  155DOPC   H3R18598   0.479   2.693  15.911 -1.7251 -0.6158 -0.8882
  155DOPC   H3S18599   0.415   2.528  15.922  0.2875 -1.5455  2.1067
  155DOPC   C2418600   0.595   2.532  15.822 -0.1276  0.9480 -0.0625
  155DOPC   H4R18601   0.622   2.426  15.844 -0.0834  0.4426 -2.2424
  155DOPC   H4S18602   0.695   2.580  15.832  1.0422 -1.6419  1.9330
  155DOPC   C2518603   0.528   2.536  15.684 -0.4622  0.1765 -0.4338
  155DOPC   H5R18604   0.489   2.639  15.665 -1.2583 -0.0023  0.1701
  155DOPC   H5S18605   0.441   2.468  15.691  0.0291 -0.3341  1.0107
  155DOPC   C2618606   0.607   2.478  15.569 -0.1455 -0.5784 -0.2234
  155DOPC   H6R18607   0.611   2.368  15.574 -2.1626 -0.7010 -0.2148
  155DOPC   H6S18608   0.710   2.518  15.573  0.5577 -2.2832 -0.8081
  155DOPC   C2718609   0.532   2.507  15.435 -0.3981  0.6856  0.2869
  155DOPC   H7R18610   0.528   2.617  15.422  1.0013  0.7055 -0.1110
  155DOPC   H7S18611   0.430   2.467  15.452  0.3641 -0.6632  1.9243
  155DOPC   C2818612   0.584   2.425  15.317 -0.8427  0.3782 -0.1984
  155DOPC   H8R18613   0.531   2.441  15.221  0.4414 -1.4210 -1.2881
  155DOPC   H8S18614   0.567   2.317  15.337  1.0793 -0.5459 -2.9626
  155DOPC   C2918615   0.729   2.464  15.283  0.0750  0.1461  0.7352
  155DOPC   H9R18616   0.726   2.544  15.207 -1.0493 -0.4067  0.1748
  155DOPC  C21018617   0.846   2.405  15.311  0.0664  0.3708 -0.5802
  155DOPC  H10R18618   0.936   2.447  15.263  0.3702 -1.0643 -1.3332
  155DOPC  C21118619   0.864   2.283  15.392  0.1656 -0.2463 -0.1182
  155DOPC  H11R18620   0.802   2.198  15.355  0.0659  0.8253 -2.5274
  155DOPC  H11S18621   0.855   2.303  15.501 -1.1551 -1.0058 -0.0685
  155DOPC  C21218622   1.009   2.232  15.381 -0.5772 -0.2039  0.1565
  155DOPC  H12R18623   1.076   2.321  15.383  2.6333 -2.4156 -0.8216
  155DOPC  H12S18624   1.029   2.180  15.285 -0.8534 -3.0049  1.5115
  155DOPC  C21318625   1.049   2.134  15.490  0.3694  0.7884 -0.1161
  155DOPC  H13R18626   0.974   2.052  15.500 -0.8310  1.9642  0.8313
  155DOPC  H13S18627   1.041   2.188  15.586  1.1070  1.4834 -0.4406
  155DOPC  C21418628   1.197   2.084  15.482  0.3858 -0.1578  1.0345
  155DOPC  H14R18629   1.256   2.169  15.443  0.2137 -0.6522 -0.3688
  155DOPC  H14S18630   1.212   2.017  15.394 -1.3609  1.6014 -0.7085
  155DOPC  C21518631   1.249   2.029  15.611  1.0277 -0.0919  0.5878
  155DOPC  H15R18632   1.186   1.945  15.648 -1.1178  0.4073 -1.6330
  155DOPC  H15S18633   1.236   2.107  15.688  2.5525 -0.1995  0.9743
  155DOPC  C21618634   1.400   1.980  15.610  0.4510 -0.4201 -0.3716
  155DOPC  H16R18635   1.468   2.058  15.570  0.6748 -0.9629 -1.0645
  155DOPC  H16S18636   1.403   1.895  15.538  0.0429 -0.7054 -0.0614
  155DOPC  C21718637   1.451   1.939  15.749  0.2444 -0.1441 -0.2323
  155DOPC  H17R18638   1.363   1.885  15.789 -0.4901  0.3040 -1.1927
  155DOPC  H17S18639   1.473   2.024  15.818  1.0308 -0.2916 -0.2845
  155DOPC  C21818640   1.573   1.854  15.732 -0.7516  0.5386 -0.6740
  155DOPC  H18R18641   1.663   1.899  15.685  1.1599 -2.7664 -0.4671
  155DOPC  H18S18642   1.543   1.773  15.663 -1.8871 -0.7205  1.1915
  155DOPC  H18T18643   1.606   1.805  15.826  0.6784 -2.2710 -2.4966
  155DOPC   C3318644   0.884   2.830  15.684  0.2823  0.3189  0.4694
  155DOPC   H3X18645   0.886   2.719  15.679 -0.3798  0.3573 -2.5703
  155DOPC   H3Y18646   0.990   2.862  15.687  0.6856 -0.6157 -1.6864
  155DOPC   C3418647   0.817   2.868  15.551 -0.0660 -0.5834  0.5382
  155DOPC   H4X18648   0.840   2.972  15.520  0.6338 -1.0538 -0.5706
  155DOPC   H4Y18649   0.707   2.853  15.550 -0.1720  0.1433  0.7594
  155DOPC   C3518650   0.870   2.780  15.431  0.1748 -0.5092 -0.1007
  155DOPC   H5X18651   0.799   2.797  15.347 -0.3088 -2.0035 -0.0173
  155DOPC   H5Y18652   0.868   2.671  15.452  0.3772 -0.6950 -0.9946
  155DOPC   C3618653   1.005   2.813  15.386  0.2315  0.0192 -0.1020
  155DOPC   H6X18654   1.015   2.924  15.390 -0.3974  0.1420 -1.3851
  155DOPC   H6Y18655   1.081   2.765  15.451  3.0004  1.6292 -1.9033
  155DOPC   C3718656   1.024   2.762  15.249 -0.0057  0.3776  0.6192
  155DOPC   H7X18657   0.995   2.655  15.238  1.4426 -0.0026  0.1827
  155DOPC   H7Y18658   0.965   2.830  15.185  2.5701  1.6965 -0.5083
  155DOPC   C3818659   1.164   2.791  15.189  0.1717  0.1939  0.0860
  155DOPC   H8X18660   1.237   2.742  15.257  0.5220  0.6007  0.0049
  155DOPC   H8Y18661   1.177   2.901  15.195 -1.8297  0.4201  1.7899
  155DOPC   C3918662   1.177   2.751  15.044 -0.5796 -0.4669 -0.0629
  155DOPC   H9X18663   1.134   2.825  14.975  0.3068  1.2209  1.1162
  155DOPC  C31018664   1.220   2.634  15.001 -0.4658 -0.0408  0.4535
  155DOPC  H10X18665   1.219   2.620  14.892 -3.8455 -1.2928  0.5523
  155DOPC  C31118666   1.281   2.521  15.078 -0.0363 -0.2425  0.7070
  155DOPC  H11X18667   1.311   2.555  15.180  1.0104  0.4370  0.1854
  155DOPC  H11Y18668   1.368   2.484  15.020  0.9803  0.2209  1.9017
  155DOPC  C31218669   1.184   2.402  15.085  0.9236  0.1537 -0.1244
  155DOPC  H12X18670   1.107   2.429  15.161  0.5117 -0.0899 -0.4503
  155DOPC  H12Y18671   1.235   2.310  15.120 -1.1043  0.1563  3.3596
  155DOPC  C31318672   1.102   2.357  14.962 -0.1813 -0.3176 -0.2639
  155DOPC  H13X18673   1.028   2.278  14.990  0.2093 -0.7053 -0.3117
  155DOPC  H13Y18674   1.063   2.438  14.897 -0.1503 -0.6729 -0.7308
  155DOPC  C31418675   1.190   2.275  14.863  1.0672 -0.2464  0.2845
  155DOPC  H14X18676   1.263   2.334  14.804  0.4904  1.1481  0.9254
  155DOPC  H14Y18677   1.256   2.214  14.928  0.6100 -0.0781  0.9192
  155DOPC  C31518678   1.100   2.196  14.769 -0.0521 -0.3331 -0.0574
  155DOPC  H15X18679   1.046   2.266  14.701 -0.9711 -1.9249 -1.0350
  155DOPC  H15Y18680   1.027   2.132  14.823 -1.5679  1.0723 -0.3253
  155DOPC  C31618681   1.181   2.112  14.671  0.0223  0.8425 -0.2799
  155DOPC  H16X18682   1.257   2.182  14.630 -0.2196  0.9361 -0.5762
  155DOPC  H16Y18683   1.232   2.033  14.730 -1.8281  0.5010  0.9357
  155DOPC  C31718684   1.095   2.052  14.565  0.5916  0.0106 -0.1867
  155DOPC  H17X18685   1.028   2.133  14.530 -0.4205 -0.2595  1.0284
  155DOPC  H17Y18686   1.173   2.034  14.489  0.2635  1.8286 -1.0093
  155DOPC  C31818687   1.011   1.931  14.608  0.1736  0.0012 -0.3074
  155DOPC  H18X18688   1.074   1.844  14.639  1.4621  1.0796  0.1801
  155DOPC  H18Y18689   0.949   1.956  14.696  2.1757  0.5710  1.0243
  155DOPC  H18Z18690   0.950   1.894  14.523  1.1441  0.3393 -1.1757
  156DOPC     N18691   6.124   7.028  17.194  0.3286  0.1569 -0.2110
  156DOPC   C1218692   6.072   6.889  17.236  0.4732 -0.3005 -0.1624
  156DOPC  H12A18693   6.101   6.871  17.338  0.6318 -2.0942 -0.5033
  156DOPC  H12B18694   6.122   6.811  17.181  0.5094  1.0912 -2.2303
  156DOPC   C1318695   6.085   7.057  17.051 -0.3401  0.4354 -0.1114
  156DOPC  H13A18696   5.982   7.047  17.023 -0.0897 -3.5392 -0.2243
  156DOPC  H13B18697   6.117   7.158  17.027 -1.0329  0.2982 -1.7401
  156DOPC  H13C18698   6.144   6.999  16.981 -1.0834 -0.3540 -0.0902
  156DOPC   C1418699   6.280   7.034  17.210  0.5741 -0.4983 -0.2530
  156DOPC  H14A18700   6.329   6.954  17.155  2.8828  2.6233 -3.1806
  156DOPC  H14B18701   6.319   7.127  17.172 -2.8777  0.4002 -1.9507
  156DOPC  H14C18702   6.305   7.026  17.315  1.0355 -1.1929 -0.4086
  156DOPC   C1518703   6.058   7.131  17.281  0.0820 -0.0767  0.1160
  156DOPC  H15A18704   6.030   7.094  17.378  1.1922  0.7502  0.7800
  156DOPC  H15B18705   5.970   7.170  17.233  1.0410  0.3678 -1.3822
  156DOPC  H15C18706   6.131   7.209  17.297  0.7901 -0.5333 -0.7474
  156DOPC   C1118707   5.915   6.861  17.230  0.7195 -0.4865 -0.2399
  156DOPC  H11A18708   5.889   6.757  17.260  1.5046 -0.1503  1.7280
  156DOPC  H11B18709   5.864   6.920  17.308 -1.3069 -0.0451 -1.8147
  156DOPC     P18710   5.723   6.957  17.074  0.5098 -0.0557  0.1444
  156DOPC   O1318711   5.741   7.100  17.102  0.6759  0.8339 -0.4931
  156DOPC   O1418712   5.616   6.890  17.153 -0.3104 -0.0328  1.0231
  156DOPC   O1218713   5.860   6.880  17.104 -0.2648 -0.1751 -0.4188
  156DOPC   O1118714   5.694   6.928  16.919  0.1516 -0.1396 -0.0671
  156DOPC    C118715   5.568   6.959  16.861 -0.0911 -0.4091 -1.2575
  156DOPC    HA18716   5.538   7.061  16.894  1.3330 -1.2642  3.4609
  156DOPC    HB18717   5.488   6.897  16.907 -0.3715  0.4036 -0.6177
  156DOPC    C218718   5.563   6.950  16.705 -0.5799 -0.9098  0.2074
  156DOPC    HS18719   5.463   6.993  16.686 -0.2868 -0.1252  0.4254
  156DOPC   O2118720   5.589   6.817  16.649  0.4566 -0.1452 -0.6076
  156DOPC   C2118721   5.487   6.741  16.646  0.4764  0.5745  0.7082
  156DOPC   O2218722   5.382   6.759  16.702  0.4911 -0.0857  0.4243
  156DOPC   C2218723   5.512   6.627  16.553  0.0265  0.2819 -0.3625
  156DOPC   H2R18724   5.571   6.562  16.621  0.8902  1.4339  0.0201
  156DOPC   H2S18725   5.577   6.646  16.465 -0.2693  1.6182 -0.3089
  156DOPC    C318726   5.669   7.047  16.655  0.2118 -0.3525  0.1840
  156DOPC    HX18727   5.772   7.016  16.683  0.7187  1.3243  0.2681
  156DOPC    HY18728   5.647   7.146  16.699 -1.0757 -0.6368  0.2165
  156DOPC   O3118729   5.678   7.070  16.510 -0.0152 -0.0268 -0.3763
  156DOPC   C3118730   5.582   7.136  16.443  0.9384 -0.0688 -0.8834
  156DOPC   O3218731   5.476   7.169  16.496 -0.3457 -0.4184  0.5014
  156DOPC   C3218732   5.616   7.155  16.296  0.0870 -0.3562 -0.3074
  156DOPC   H2X18733   5.713   7.208  16.308 -0.0900 -0.4806  2.1785
  156DOPC   H2Y18734   5.630   7.052  16.258 -0.0195 -0.3434 -0.3788
  156DOPC   C2318735   5.390   6.548  16.515  0.4638  0.0587 -0.5488
  156DOPC   H3R18736   5.322   6.546  16.603  2.3427 -0.5814  0.9478
  156DOPC   H3S18737   5.424   6.445  16.489  0.4756  0.1239 -0.7999
  156DOPC   C2418738   5.313   6.600  16.388  0.2820 -0.5237 -0.0843
  156DOPC   H4R18739   5.387   6.623  16.308 -1.7022  3.2147 -1.0795
  156DOPC   H4S18740   5.275   6.699  16.418  2.1480  0.3324 -0.3866
  156DOPC   C2518741   5.199   6.514  16.333  0.1165  0.5053  0.3327
  156DOPC   H5R18742   5.153   6.462  16.420  1.6219  2.2250  2.2721
  156DOPC   H5S18743   5.241   6.443  16.258 -0.8440 -0.2547  0.5068
  156DOPC   C2618744   5.099   6.609  16.265  0.0654  0.4464 -0.1959
  156DOPC   H6R18745   5.132   6.644  16.165 -1.7506 -0.3894 -1.1357
  156DOPC   H6S18746   5.085   6.697  16.331  1.7631  1.7842 -1.5514
  156DOPC   C2718747   4.968   6.546  16.247  0.6748  0.5899  0.8101
  156DOPC   H7R18748   4.913   6.528  16.341 -0.5765 -1.9391 -0.3126
  156DOPC   H7S18749   4.981   6.445  16.202 -0.3672  1.1287 -0.7850
  156DOPC   C2818750   4.886   6.631  16.142  0.0780 -0.0494  0.1256
  156DOPC   H8R18751   4.961   6.640  16.060  2.0934 -0.6070  1.8009
  156DOPC   H8S18752   4.871   6.729  16.191 -0.1672 -0.3664  0.6991
  156DOPC   C2918753   4.759   6.564  16.102  0.1287 -0.8477  0.3160
  156DOPC   H9R18754   4.682   6.551  16.179  0.4622  1.1205  1.0562
  156DOPC  C21018755   4.750   6.480  16.000 -0.5609 -0.3386 -1.3253
  156DOPC  H10R18756   4.655   6.431  15.974 -1.9199  1.5232 -0.1992
  156DOPC  C21118757   4.852   6.451  15.888  0.2282 -0.0227  0.2550
  156DOPC  H11R18758   4.882   6.550  15.848  0.2813 -0.1469 -0.0108
  156DOPC  H11S18759   4.795   6.394  15.811 -0.9403  1.0451  0.2834
  156DOPC  C21218760   4.977   6.378  15.920 -0.2238  0.3800 -0.1746
  156DOPC  H12R18761   5.028   6.422  16.009 -2.4629  1.7841  0.4892
  156DOPC  H12S18762   5.040   6.401  15.832 -1.3815 -0.7950 -1.3462
  156DOPC  C21318763   4.962   6.225  15.936  0.1617  0.0060  0.6623
  156DOPC  H13R18764   4.924   6.191  15.837  0.4822 -3.1012  1.4977
  156DOPC  H13S18765   4.886   6.202  16.013  0.0118 -0.9350  0.2481
  156DOPC  C21418766   5.093   6.160  15.967 -0.2233  0.0083  0.1224
  156DOPC  H14R18767   5.169   6.198  15.895 -0.2432 -0.9137 -0.4068
  156DOPC  H14S18768   5.075   6.050  15.964  1.7050 -0.3255 -1.4729
  156DOPC  C21518769   5.133   6.190  16.110  0.3090  0.5118 -0.1201
  156DOPC  H15R18770   5.048   6.158  16.175 -0.6251  0.8393 -1.1507
  156DOPC  H15S18771   5.153   6.299  16.125 -0.9775  0.7166  0.2651
  156DOPC  C21618772   5.249   6.101  16.155 -0.2956  0.1909 -0.0308
  156DOPC  H16R18773   5.331   6.119  16.082  0.2256  0.3946  0.5938
  156DOPC  H16S18774   5.222   5.994  16.140  0.4050 -0.3494  2.1390
  156DOPC  C21718775   5.293   6.137  16.299 -0.0887  0.7687 -0.4060
  156DOPC  H17R18776   5.212   6.108  16.370  0.5428  1.7630  0.7637
  156DOPC  H17S18777   5.299   6.247  16.318  0.3721  0.2816  2.8352
  156DOPC  C21818778   5.421   6.058  16.330  0.7202 -0.0752  0.7584
  156DOPC  H18R18779   5.407   5.948  16.324 -0.3507  0.0181  1.1923
  156DOPC  H18S18780   5.445   6.078  16.437 -1.6606  0.5104  1.2555
  156DOPC  H18T18781   5.506   6.091  16.267 -0.1673 -1.8517 -1.5221
  156DOPC   C3318782   5.506   7.240  16.218 -0.1552 -0.0056  0.0515
  156DOPC   H3X18783   5.516   7.339  16.267  0.1226 -0.1863  0.3669
  156DOPC   H3Y18784   5.406   7.193  16.230  0.9572 -1.9776  2.8096
  156DOPC   C3418785   5.535   7.244  16.066 -0.1339 -0.0408  0.4058
  156DOPC   H4X18786   5.562   7.144  16.027 -1.9190  0.1381 -1.4563
  156DOPC   H4Y18787   5.626   7.309  16.064 -0.0192 -0.1130  1.9745
  156DOPC   C3518788   5.421   7.309  15.983 -0.4416  0.2354  0.2373
  156DOPC   H5X18789   5.416   7.414  16.020  2.9127  0.9316 -0.9309
  156DOPC   H5Y18790   5.324   7.261  16.008 -0.7440  1.8056  2.3539
  156DOPC   C3618791   5.433   7.313  15.828  0.6694  0.2163  0.1064
  156DOPC   H6X18792   5.374   7.400  15.793  1.5816  0.7200 -0.2283
  156DOPC   H6Y18793   5.540   7.328  15.803  1.1009 -0.8248  1.2294
  156DOPC   C3718794   5.395   7.176  15.770  0.1066  0.4993  0.4015
  156DOPC   H7X18795   5.468   7.100  15.805  0.4615  1.2091  1.2497
  156DOPC   H7Y18796   5.289   7.149  15.790 -1.0470  3.5153 -1.1288
  156DOPC   C3818797   5.415   7.189  15.620 -0.2227  0.1531 -0.5441
  156DOPC   H8X18798   5.508   7.240  15.587  0.2872 -0.5850 -0.2704
  156DOPC   H8Y18799   5.327   7.252  15.593  0.8014  1.1006 -1.8229
  156DOPC   C3918800   5.405   7.055  15.562 -0.1038  0.8755 -0.2738
  156DOPC   H9X18801   5.403   6.976  15.638  1.5204  1.9188  0.9098
  156DOPC  C31018802   5.409   7.015  15.434 -0.0111 -0.3107  0.4869
  156DOPC  H10X18803   5.384   6.914  15.400 -0.1561  0.9139 -3.5146
  156DOPC  C31118804   5.408   7.119  15.319  0.5704 -0.3520 -0.3801
  156DOPC  H11X18805   5.418   7.220  15.364 -1.8017  0.1329 -0.8417
  156DOPC  H11Y18806   5.318   7.126  15.254 -0.7765 -0.7910  1.3669
  156DOPC  C31218807   5.527   7.088  15.230  0.2954  0.0415 -0.0199
  156DOPC  H12X18808   5.530   6.984  15.191 -1.3568  0.5842 -1.7483
  156DOPC  H12Y18809   5.622   7.091  15.288  0.9959  1.2115 -1.1611
  156DOPC  C31318810   5.536   7.183  15.109 -0.4218 -0.3392  0.0310
  156DOPC  H13X18811   5.430   7.179  15.077 -0.3084 -1.5224 -0.2502
  156DOPC  H13Y18812   5.580   7.281  15.140  1.3302 -1.2207  0.4935
  156DOPC  C31418813   5.634   7.138  14.997  0.4093 -0.0841  0.4895
  156DOPC  H14X18814   5.734   7.127  15.045 -0.0821 -0.3843  1.4680
  156DOPC  H14Y18815   5.594   7.037  14.973 -0.2507  0.3103 -0.0916
  156DOPC  C31518816   5.640   7.236  14.885 -0.6225  0.0874 -0.1354
  156DOPC  H15X18817   5.717   7.187  14.822  0.8141  0.1555  1.4919
  156DOPC  H15Y18818   5.669   7.336  14.924 -2.7657  0.9854 -0.6505
  156DOPC  C31618819   5.506   7.249  14.811  0.2490  0.0197  0.6753
  156DOPC  H16X18820   5.467   7.148  14.787  3.4455 -0.9167 -1.2457
  156DOPC  H16Y18821   5.432   7.318  14.856 -1.5131 -1.2308 -0.1895
  156DOPC  C31718822   5.538   7.305  14.670  0.4112  0.6970  0.4320
  156DOPC  H17X18823   5.600   7.396  14.683  1.1448  0.4204 -1.0308
  156DOPC  H17Y18824   5.597   7.224  14.624  0.2848  1.1924 -0.6314
  156DOPC  C31818825   5.408   7.331  14.592 -0.3110 -0.5281 -0.2887
  156DOPC  H18X18826   5.346   7.240  14.601  0.8084 -1.3111 -0.3161
  156DOPC  H18Y18827   5.346   7.411  14.638 -0.5005 -0.2807 -0.9684
  156DOPC  H18Z18828   5.442   7.344  14.487 -0.3473 -0.4531 -0.2912
  157DOPC     N18829   5.754   1.956  17.143 -0.0196 -0.3386 -0.2729
  157DOPC   C1218830   5.738   1.872  17.024  0.4404  0.0168  0.1942
  157DOPC  H12A18831   5.813   1.900  16.952 -0.9947 -0.8317 -1.7009
  157DOPC  H12B18832   5.650   1.900  16.969 -0.6330  0.2317  1.9348
  157DOPC   C1318833   5.680   1.891  17.255 -0.0653 -0.1280 -1.0261
  157DOPC  H13A18834   5.688   1.928  17.356  1.7743 -5.7035  1.2771
  157DOPC  H13B18835   5.575   1.898  17.233 -0.2185  0.0460 -0.2551
  157DOPC  H13C18836   5.700   1.789  17.284 -0.3258  0.6218  2.2772
  157DOPC   C1418837   5.703   2.093  17.119 -0.2945 -0.2318 -0.0939
  157DOPC  H14A18838   5.709   2.156  17.206 -0.4856 -0.5905  0.1776
  157DOPC  H14B18839   5.766   2.141  17.045  0.0893  0.2105  0.5137
  157DOPC  H14C18840   5.600   2.096  17.085 -0.9917  0.6671  1.9376
  157DOPC   C1518841   5.898   1.970  17.179  0.2643 -0.3699 -0.0854
  157DOPC  H15A18842   5.928   1.871  17.210  0.3420 -0.3749 -0.1745
  157DOPC  H15B18843   5.923   2.039  17.257  1.4928  0.1647 -0.9343
  157DOPC  H15C18844   5.954   1.997  17.091 -1.7204  1.9568 -0.7434
  157DOPC   C1118845   5.756   1.719  17.039  0.1232 -0.4124 -0.2012
  157DOPC  H11A18846   5.678   1.678  17.106  0.5097  1.0436  1.1916
  157DOPC  H11B18847   5.741   1.666  16.942  2.7866 -2.4185  0.3857
  157DOPC     P18848   5.932   1.548  17.097 -0.0331 -0.1626 -0.0334
  157DOPC   O1318849   5.819   1.462  17.065  0.7325 -0.1659  0.3638
  157DOPC   O1418850   6.002   1.529  17.222  0.5207  0.1031 -0.6742
  157DOPC   O1218851   5.879   1.693  17.096 -0.5415 -0.1460 -0.4245
  157DOPC   O1118852   6.037   1.553  16.980  0.5356  0.1859  0.6965
  157DOPC    C118853   5.993   1.550  16.847  0.7040  0.7341 -0.3585
  157DOPC    HA18854   6.071   1.591  16.779  0.5214 -0.4315 -1.3186
  157DOPC    HB18855   5.903   1.614  16.831 -1.2446 -1.4725  1.0056
  157DOPC    C218856   5.959   1.408  16.789  0.5101  0.1729  0.8928
  157DOPC    HS18857   5.915   1.345  16.869  1.9569 -1.0588  0.7758
  157DOPC   O2118858   6.087   1.343  16.762  0.3187  0.0531  0.4610
  157DOPC   C2118859   6.077   1.207  16.753 -0.1835 -0.0918 -0.3221
  157DOPC   O2218860   5.978   1.141  16.785 -0.0859 -0.7990  0.0445
  157DOPC   C2218861   6.218   1.154  16.715 -0.1514 -0.3717  0.3105
  157DOPC   H2R18862   6.266   1.113  16.807  0.6011 -0.8614 -0.2851
  157DOPC   H2S18863   6.285   1.232  16.672 -0.1952 -0.2852  0.4013
  157DOPC    C318864   5.865   1.419  16.662 -0.4444  0.7071  0.0540
  157DOPC    HX18865   5.775   1.483  16.679  0.3299  1.6204  0.8215
  157DOPC    HY18866   5.829   1.317  16.637 -0.7967  0.6181  0.9078
  157DOPC   O3118867   5.936   1.487  16.555  0.5473  0.3784  0.0464
  157DOPC   C3118868   5.900   1.451  16.431  0.2972 -0.2402  0.7021
  157DOPC   O3218869   5.823   1.362  16.405  0.3590 -0.0000 -0.5023
  157DOPC   C3218870   5.982   1.536  16.330  0.0513 -0.3271  1.0251
  157DOPC   H2X18871   5.996   1.637  16.375  0.5480 -0.8039  1.9692
  157DOPC   H2Y18872   6.079   1.485  16.314 -0.7339 -1.7160  0.5590
  157DOPC   C2318873   6.216   1.032  16.616  0.1852 -0.5126 -0.3375
  157DOPC   H3R18874   6.142   0.969  16.670  1.5514  1.1624  3.9379
  157DOPC   H3S18875   6.313   0.979  16.609  0.4105 -0.3612  1.3068
  157DOPC   C2418876   6.156   1.067  16.475 -1.0827 -0.9503  0.5157
  157DOPC   H4R18877   6.074   1.140  16.490 -0.2471  0.1864 -0.2564
  157DOPC   H4S18878   6.112   0.979  16.424  0.0482 -1.3665  0.2283
  157DOPC   C2518879   6.261   1.127  16.380  0.3068 -0.0113  0.3068
  157DOPC   H5R18880   6.345   1.054  16.384 -0.8502 -1.3935  0.2300
  157DOPC   H5S18881   6.309   1.219  16.420  1.9333 -0.9272  0.5445
  157DOPC   C2618882   6.196   1.141  16.245 -0.3091  0.2303 -0.6972
  157DOPC   H6R18883   6.109   1.208  16.259  1.3771  2.3988  0.0659
  157DOPC   H6S18884   6.149   1.046  16.213 -3.8932 -0.0260  4.1921
  157DOPC   C2718885   6.293   1.205  16.146  0.4463 -0.0165 -0.1564
  157DOPC   H7R18886   6.389   1.148  16.147 -1.0021 -2.6887  2.4517
  157DOPC   H7S18887   6.315   1.306  16.188  0.6355  0.4662 -1.3659
  157DOPC   C2818888   6.229   1.219  16.009  1.1795  0.1414  0.5543
  157DOPC   H8R18889   6.162   1.308  16.011 -0.6390 -1.1037 -1.1099
  157DOPC   H8S18890   6.173   1.123  15.996 -0.6926  1.4807 -2.2288
  157DOPC   C2918891   6.341   1.229  15.912  0.2189 -0.8330 -0.6790
  157DOPC   H9R18892   6.383   1.132  15.882  1.7250 -0.8487  1.3223
  157DOPC  C21018893   6.396   1.342  15.860 -0.6773 -0.0084 -0.3090
  157DOPC  H10R18894   6.487   1.323  15.802  0.0105 -0.2300  0.8221
  157DOPC  C21118895   6.351   1.481  15.881  0.3381 -0.2441  0.5650
  157DOPC  H11R18896   6.284   1.496  15.968 -0.2168  3.6557 -0.3430
  157DOPC  H11S18897   6.291   1.520  15.797  1.0694 -1.2165 -0.4364
  157DOPC  C21218898   6.476   1.575  15.907 -0.4003  0.5133  0.0889
  157DOPC  H12R18899   6.554   1.557  15.830  0.1745 -2.4515  1.2321
  157DOPC  H12S18900   6.519   1.553  16.007 -0.6612 -1.4845 -0.1878
  157DOPC  C21318901   6.446   1.721  15.893 -0.6244  0.0816 -0.1100
  157DOPC  H13R18902   6.413   1.763  15.990 -0.8336 -0.2108 -0.0549
  157DOPC  H13S18903   6.361   1.731  15.821  0.3728 -1.5303 -1.5837
  157DOPC  C21418904   6.558   1.810  15.842 -0.2141  0.3999  0.6060
  157DOPC  H14R18905   6.589   1.767  15.744 -0.5303  0.8073  0.3193
  157DOPC  H14S18906   6.645   1.804  15.911 -1.4352  1.9799  2.3861
  157DOPC  C21518907   6.511   1.955  15.814  0.1236 -0.0309  0.4903
  157DOPC  H15R18908   6.500   2.013  15.908 -0.1940  0.4034  0.1840
  157DOPC  H15S18909   6.420   1.946  15.751  1.6192 -1.1545 -1.6522
  157DOPC  C21618910   6.608   2.028  15.731 -0.6723 -0.4390  0.5985
  157DOPC  H16R18911   6.632   1.961  15.645 -1.8332 -0.2571  0.1072
  157DOPC  H16S18912   6.703   2.057  15.780 -0.4579  2.2498 -1.2091
  157DOPC  C21718913   6.547   2.157  15.665  0.0846  0.7717 -0.4174
  157DOPC  H17R18914   6.541   2.236  15.743 -1.1189  0.6225 -0.3440
  157DOPC  H17S18915   6.442   2.130  15.643  0.1508 -1.0888  1.2701
  157DOPC  C21818916   6.626   2.209  15.542 -0.3941 -0.7296  0.4873
  157DOPC  H18R18917   6.736   2.205  15.557 -0.4763 -0.9848  1.0548
  157DOPC  H18S18918   6.603   2.315  15.519  2.3268 -0.4074 -1.1956
  157DOPC  H18T18919   6.589   2.156  15.452 -1.6961  1.7858 -0.5335
  157DOPC   C3318920   5.930   1.558  16.186  0.3890  0.4602  0.0054
  157DOPC   H3X18921   6.007   1.608  16.123  0.4924  2.1868  1.4067
  157DOPC   H3Y18922   5.837   1.618  16.188  0.7979  1.2255 -1.7537
  157DOPC   C3418923   5.896   1.424  16.117  0.2093  0.3533  0.6598
  157DOPC   H4X18924   5.824   1.363  16.177  0.4545 -0.5475  0.0544
  157DOPC   H4Y18925   5.989   1.363  16.115 -0.2215 -0.2996  0.2304
  157DOPC   C3518926   5.831   1.432  15.972  1.0080 -0.1203 -0.2911
  157DOPC   H5X18927   5.860   1.344  15.911 -1.8738 -0.3992 -1.3912
  157DOPC   H5Y18928   5.873   1.521  15.922  0.9829  0.1929  0.2335
  157DOPC   C3618929   5.681   1.434  15.967 -0.5756  0.3785 -0.4450
  157DOPC   H6X18930   5.634   1.339  16.002  1.6073 -0.3598  0.6196
  157DOPC   H6Y18931   5.646   1.515  16.034  0.3159 -0.3319  0.9340
  157DOPC   C3718932   5.636   1.461  15.824 -0.0521  0.1872 -0.0733
  157DOPC   H7X18933   5.525   1.472  15.820 -0.4540 -2.5547  0.9834
  157DOPC   H7Y18934   5.675   1.557  15.784 -1.6830 -0.6143 -4.0591
  157DOPC   C3818935   5.663   1.350  15.722  0.3180 -1.0860  0.8759
  157DOPC   H8X18936   5.585   1.272  15.739 -1.0601 -0.2460 -1.1502
  157DOPC   H8Y18937   5.767   1.316  15.737  0.4715 -1.5815 -1.0538
  157DOPC   C3918938   5.637   1.407  15.577  0.1306  0.1509  0.6714
  157DOPC   H9X18939   5.575   1.496  15.556  2.4460  1.0267 -3.5716
  157DOPC  C31018940   5.703   1.355  15.473 -0.5067 -0.5450  0.4299
  157DOPC  H10X18941   5.686   1.410  15.379 -1.0245  0.4822  1.1002
  157DOPC  C31118942   5.817   1.256  15.472 -0.0666 -0.0700 -0.3039
  157DOPC  H11X18943   5.801   1.183  15.389  0.1778  0.5974 -0.9551
  157DOPC  H11Y18944   5.811   1.195  15.565 -0.3109 -0.0912 -0.3323
  157DOPC  C31218945   5.965   1.305  15.461  0.0765  0.1091  0.2854
  157DOPC  H12X18946   5.984   1.369  15.551 -0.1170 -2.7241  2.4886
  157DOPC  H12Y18947   5.983   1.372  15.375  2.2134 -2.9035 -1.7896
  157DOPC  C31318948   6.078   1.195  15.440 -0.0476  0.7522  1.0074
  157DOPC  H13X18949   6.082   1.123  15.524 -1.6462  0.0532  0.5312
  157DOPC  H13Y18950   6.051   1.141  15.347 -1.3660 -1.6759  2.6776
  157DOPC  C31418951   6.220   1.260  15.429  0.3784  0.2950  0.0878
  157DOPC  H14X18952   6.232   1.344  15.501 -2.3272  0.8617  0.0124
  157DOPC  H14Y18953   6.293   1.185  15.466 -0.2180 -0.7998 -0.8843
  157DOPC  C31518954   6.270   1.319  15.300 -0.5002  0.4872  0.4112
  157DOPC  H15X18955   6.362   1.375  15.328  0.0995  0.1747 -0.8527
  157DOPC  H15Y18956   6.199   1.394  15.260 -0.1765 -0.5677 -2.3272
  157DOPC  C31618957   6.315   1.213  15.198  0.1766  0.5240  0.1085
  157DOPC  H16X18958   6.409   1.166  15.233 -0.7156 -1.9372 -0.6093
  157DOPC  H16Y18959   6.239   1.132  15.192  1.3686 -0.5075 -2.4009
  157DOPC  C31718960   6.343   1.271  15.062  0.3838 -0.0120 -0.4879
  157DOPC  H17X18961   6.247   1.317  15.031  0.2667 -1.0876 -1.8125
  157DOPC  H17Y18962   6.430   1.340  15.074  0.4121 -0.3636  1.8016
  157DOPC  C31818963   6.367   1.165  14.954  0.0544  0.0558  0.3152
  157DOPC  H18X18964   6.466   1.116  14.967  1.2644  2.5775  1.3722
  157DOPC  H18Y18965   6.286   1.090  14.945  0.0473  0.2026 -1.0626
  157DOPC  H18Z18966   6.377   1.212  14.854 -0.7110  0.1871  0.2939
  158DOPC     N18967   3.291   0.229  17.387 -0.8638  0.1284 -0.1520
  158DOPC   C1218968   3.300   0.285  17.245  0.1719  0.1003  0.0942
  158DOPC  H12A18969   3.206   0.332  17.223  0.5554  2.1162  2.4059
  158DOPC  H12B18970   3.306   0.201  17.176 -1.5903 -1.2659  1.5032
  158DOPC   C1318971   3.284   0.346  17.481  0.2187 -0.6344  1.1515
  158DOPC  H13A18972   3.364   0.409  17.445 -0.1382 -1.2795 -0.8968
  158DOPC  H13B18973   3.190   0.399  17.480  1.0932  0.9762  0.5459
  158DOPC  H13C18974   3.307   0.314  17.582  1.2262  2.9246  2.1761
  158DOPC   C1418975   3.423   0.160  17.409  0.2632 -0.5284  0.3436
  158DOPC  H14A18976   3.419   0.116  17.508 -0.9142 -0.2722  0.4270
  158DOPC  H14B18977   3.439   0.078  17.342  2.4290  1.8152 -2.2467
  158DOPC  H14C18978   3.498   0.236  17.400  0.4007 -0.5318  1.3060
  158DOPC   C1518979   3.183   0.134  17.402  0.4102  0.4130 -0.1804
  158DOPC  H15A18980   3.186   0.090  17.501 -1.0885 -0.8391 -0.6375
  158DOPC  H15B18981   3.185   0.062  17.322 -1.1365  0.7471 -0.5555
  158DOPC  H15C18982   3.087   0.183  17.401  0.1377  0.1981  3.1641
  158DOPC   C1118983   3.410   0.386  17.209 -0.6474  0.3074 -0.4228
  158DOPC  H11A18984   3.506   0.348  17.248 -0.3128  0.8855 -0.6703
  158DOPC  H11B18985   3.412   0.381  17.098  1.7830 -0.0527 -0.4092
  158DOPC     P18986   3.256   0.598  17.213  0.4270  0.2319  0.1160
  158DOPC   O1318987   3.192   0.655  17.336 -0.1838 -0.3601 -0.4420
  158DOPC   O1418988   3.169   0.515  17.121  0.0507  0.1514  0.3793
  158DOPC   O1218989   3.380   0.510  17.258  0.1468  0.4532 -0.3292
  158DOPC   O1118990   3.323   0.719  17.133  0.3563 -0.2217  0.3184
  158DOPC    C118991   3.415   0.700  17.026  0.4316 -0.2045 -0.1448
  158DOPC    HA18992   3.427   0.591  17.010  1.3946 -0.4383  1.7981
  158DOPC    HB18993   3.520   0.724  17.055  0.6228  1.4110 -1.9540
  158DOPC    C218994   3.369   0.777  16.904 -0.2976  0.1846 -0.0417
  158DOPC    HS18995   3.259   0.793  16.908 -0.2441  1.5416 -2.1462
  158DOPC   O2118996   3.407   0.699  16.789  0.2012 -0.3814 -0.4176
  158DOPC   C2118997   3.328   0.726  16.684 -0.4253 -0.3137 -0.0761
  158DOPC   O2218998   3.236   0.803  16.674 -0.3917 -0.5106  0.3812
  158DOPC   C2218999   3.379   0.641  16.572  0.2154 -0.1462 -0.0383
  158DOPC   H2R19000   3.345   0.536  16.587 -2.5148  0.1011 -3.2123
  158DOPC   H2S19001   3.489   0.637  16.585  0.0941  0.8429  1.5161
  158DOPC    C319002   3.436   0.915  16.905 -0.7179  0.4458 -0.7381
  158DOPC    HX19003   3.545   0.894  16.910 -1.1253 -3.1160 -3.0459
  158DOPC    HY19004   3.405   0.977  16.992  1.8010 -0.4824  0.9438
  158DOPC   O3119005   3.410   0.993  16.789 -0.0387 -0.4958  0.5951
  158DOPC   C3119006   3.300   1.068  16.785  0.3493  0.0921  0.4417
  158DOPC   O3219007   3.226   1.091  16.876 -0.7217  0.6346 -0.4545
  158DOPC   C3219008   3.304   1.144  16.648 -0.1825  0.0281 -0.3211
  158DOPC   H2X19009   3.211   1.205  16.651 -1.2806 -1.6290  0.2032
  158DOPC   H2Y19010   3.399   1.202  16.634 -1.6687  2.3914 -1.2780
  158DOPC   C2319011   3.354   0.678  16.424 -0.6718 -0.0774  0.3281
  158DOPC   H3R19012   3.356   0.790  16.426  0.8577  0.0047 -2.0942
  158DOPC   H3S19013   3.266   0.634  16.373 -2.1417  0.3078  2.4293
  158DOPC   C2419014   3.486   0.650  16.332  0.4976 -0.4930  0.5966
  158DOPC   H4R19015   3.523   0.545  16.338 -1.7320 -1.2597  2.0621
  158DOPC   H4S19016   3.563   0.729  16.345 -0.1137  0.0142  1.1925
  158DOPC   C2519017   3.451   0.672  16.184 -1.0234  0.8354  0.2082
  158DOPC   H5R19018   3.417   0.776  16.165 -1.5929  0.9439  1.6782
  158DOPC   H5S19019   3.371   0.600  16.160  0.4756 -0.6506 -0.5532
  158DOPC   C2619020   3.565   0.633  16.088  0.4402  0.3548  0.1772
  158DOPC   H6R19021   3.599   0.527  16.097  1.0222  0.3081 -1.9899
  158DOPC   H6S19022   3.659   0.684  16.117  0.3089  0.1122  1.0613
  158DOPC   C2719023   3.535   0.661  15.935 -0.0693  0.9757  0.3938
  158DOPC   H7R19024   3.469   0.748  15.914  0.3467  1.0694 -0.5868
  158DOPC   H7S19025   3.479   0.571  15.901 -0.5969  1.2424  0.5336
  158DOPC   C2819026   3.669   0.672  15.860  0.2476 -0.2763 -0.2119
  158DOPC   H8R19027   3.733   0.750  15.908 -0.4945 -0.1548  0.5946
  158DOPC   H8S19028   3.639   0.729  15.770  0.2630  2.1952  1.2389
  158DOPC   C2919029   3.749   0.544  15.833  0.3007  0.1710  0.0664
  158DOPC   H9R19030   3.804   0.502  15.918 -0.6228  2.1402  1.7445
  158DOPC  C21019031   3.764   0.489  15.716 -0.0075 -0.4107  0.3338
  158DOPC  H10R19032   3.836   0.407  15.705 -0.6802 -0.8850 -0.8648
  158DOPC  C21119033   3.706   0.530  15.578 -0.3784 -0.2775 -0.0182
  158DOPC  H11R19034   3.710   0.640  15.565 -1.1675 -0.4320 -1.9387
  158DOPC  H11S19035   3.604   0.494  15.555  0.6523 -2.1074 -2.1989
  158DOPC  C21219036   3.801   0.488  15.467  0.0624  0.1995  0.1921
  158DOPC  H12R19037   3.798   0.377  15.470 -1.5135  0.2371  1.2485
  158DOPC  H12S19038   3.902   0.532  15.481 -0.6958  1.2901  2.6400
  158DOPC  C21319039   3.748   0.543  15.335 -0.1223 -0.4907  0.2668
  158DOPC  H13R19040   3.722   0.651  15.334  0.6738 -0.2675 -1.7415
  158DOPC  H13S19041   3.665   0.485  15.290  0.4958 -0.2526 -1.2451
  158DOPC  C21419042   3.848   0.537  15.218  0.2202  0.5218  0.2825
  158DOPC  H14R19043   3.872   0.429  15.209  0.6855  0.7221 -1.0145
  158DOPC  H14S19044   3.950   0.565  15.251  0.5242  0.7945 -0.8426
  158DOPC  C21519045   3.801   0.597  15.089 -1.3566  0.2798 -1.1105
  158DOPC  H15R19046   3.839   0.702  15.088  2.8112 -1.0197  0.2819
  158DOPC  H15S19047   3.692   0.585  15.073 -1.2070  0.4892 -2.3773
  158DOPC  C21619048   3.881   0.553  14.960 -0.4112 -0.6278  0.3063
  158DOPC  H16R19049   3.985   0.588  14.974 -0.8265  1.6170 -1.5552
  158DOPC  H16S19050   3.835   0.605  14.872 -0.2243 -0.7815  0.1174
  158DOPC  C21719051   3.870   0.407  14.917  0.2701 -0.2833  0.2856
  158DOPC  H17R19052   3.895   0.341  15.003 -1.7289  1.1097  2.0226
  158DOPC  H17S19053   3.935   0.378  14.831 -0.3762  1.0089 -0.6789
  158DOPC  C21819054   3.726   0.377  14.879 -0.4884  0.7407 -0.0338
  158DOPC  H18R19055   3.718   0.268  14.860 -1.3807  0.5712  1.1833
  158DOPC  H18S19056   3.688   0.443  14.799  0.9370  1.1856 -0.3749
  158DOPC  H18T19057   3.660   0.386  14.968  1.2728  0.6024  1.3550
  158DOPC   C3319058   3.290   1.058  16.517  0.0621  0.0761  0.1594
  158DOPC   H3X19059   3.194   1.004  16.508  0.0008  0.4814 -2.6731
  158DOPC   H3Y19060   3.375   0.987  16.507  0.4593  0.7897 -2.2198
  158DOPC   C3419061   3.282   1.148  16.387 -0.2614 -0.2130 -0.2329
  158DOPC   H4X19062   3.382   1.187  16.358 -0.5834  0.7134 -0.1265
  158DOPC   H4Y19063   3.231   1.243  16.412 -0.2658 -0.2276 -0.1870
  158DOPC   C3519064   3.218   1.068  16.271  0.6353  0.6012  0.8389
  158DOPC   H5X19065   3.113   1.046  16.300  1.0506 -1.3158  1.0409
  158DOPC   H5Y19066   3.271   0.971  16.261  0.4781  0.5557  0.4177
  158DOPC   C3619067   3.229   1.139  16.133  0.2169  0.6685 -0.1768
  158DOPC   H6X19068   3.151   1.218  16.143 -1.9314 -1.3056 -0.4946
  158DOPC   H6Y19069   3.331   1.183  16.130  1.0118 -1.1117 -0.6512
  158DOPC   C3719070   3.219   1.048  16.017 -0.8099  0.5245  0.0723
  158DOPC   H7X19071   3.251   1.099  15.923  0.1511  0.2646  0.2535
  158DOPC   H7Y19072   3.293   0.967  16.033 -2.0715 -0.6337  0.2026
  158DOPC   C3819073   3.082   0.988  15.994 -0.0144  0.4449 -0.0526
  158DOPC   H8X19074   3.060   0.943  16.093  1.2719  1.3661  0.6760
  158DOPC   H8Y19075   3.101   0.903  15.925  0.6712  1.0731 -0.6610
  158DOPC   C3919076   2.974   1.078  15.952  0.4937  0.1522  0.1917
  158DOPC   H9X19077   2.936   1.151  16.026  1.9684 -1.1967  2.4053
  158DOPC  C31019078   2.922   1.092  15.828 -0.5318  0.6819 -0.5409
  158DOPC  H10X19079   2.845   1.169  15.810  0.9188  1.7037 -2.8307
  158DOPC  C31119080   2.958   1.006  15.708 -0.1872  0.0735 -0.2898
  158DOPC  H11X19081   2.871   0.943  15.678 -1.1314  0.4990  1.4460
  158DOPC  H11Y19082   3.038   0.931  15.727 -2.0140 -1.8412  0.1581
  158DOPC  C31219083   3.003   1.086  15.581 -0.1741 -1.1573 -0.3665
  158DOPC  H12X19084   3.072   1.165  15.619 -1.0363  1.0087 -2.9904
  158DOPC  H12Y19085   2.907   1.134  15.553 -0.2316 -0.9959  0.1009
  158DOPC  C31319086   3.058   1.025  15.454  0.0866  0.1002 -0.7920
  158DOPC  H13X19087   3.168   1.012  15.464  0.5837  3.4142 -0.8666
  158DOPC  H13Y19088   3.019   0.925  15.423  2.2172 -1.6448  1.7068
  158DOPC  C31419089   3.042   1.123  15.343 -0.4012  0.0610  0.3939
  158DOPC  H14X19090   2.934   1.136  15.321 -0.2693  1.8183  0.6003
  158DOPC  H14Y19091   3.087   1.223  15.362  3.4202 -0.3170 -4.5207
  158DOPC  C31519092   3.106   1.079  15.213 -0.8045  0.3151  0.3612
  158DOPC  H15X19093   3.214   1.062  15.234 -0.2810  1.3975 -1.2539
  158DOPC  H15Y19094   3.078   1.164  15.147 -0.5550  2.4586  2.8938
  158DOPC  C31619095   3.057   0.946  15.155 -0.4775 -0.2593  0.4625
  158DOPC  H16X19096   3.108   0.859  15.202  0.3639 -0.8356 -1.3980
  158DOPC  H16Y19097   2.950   0.929  15.176 -0.5316 -0.4774  0.0218
  158DOPC  C31719098   3.076   0.941  15.003 -0.5937 -0.5553 -0.7067
  158DOPC  H17X19099   3.024   1.021  14.945 -2.6974 -1.4459 -0.1359
  158DOPC  H17Y19100   3.181   0.962  14.973 -0.1161 -0.0170  1.2183
  158DOPC  C31819101   3.028   0.810  14.947 -0.3245 -0.2916 -0.2217
  158DOPC  H18X19102   3.070   0.732  15.015 -0.3315 -0.6182 -0.5850
  158DOPC  H18Y19103   2.917   0.801  14.953 -0.3866  0.5244 -0.0450
  158DOPC  H18Z19104   3.071   0.796  14.846  0.5782  0.3841  0.0550
  159DOPC     N19105   6.383   2.080  17.350 -0.1964  0.1805  0.2124
  159DOPC   C1219106   6.357   1.989  17.238  0.0394  0.1072  0.7103
  159DOPC  H12A19107   6.253   1.960  17.241 -0.1003  0.6097  0.8570
  159DOPC  H12B19108   6.413   1.899  17.256 -0.4777 -0.5143 -0.6492
  159DOPC   C1319109   6.527   2.101  17.376  0.3284 -0.4826  0.0854
  159DOPC  H13A19110   6.587   2.013  17.396  1.7053  0.0906 -1.3139
  159DOPC  H13B19111   6.579   2.156  17.299  0.3638 -1.9499 -1.0021
  159DOPC  H13C19112   6.536   2.154  17.469 -2.0112 -0.9077  0.6145
  159DOPC   C1419113   6.324   2.031  17.473 -0.2149  0.2812  0.1217
  159DOPC  H14A19114   6.377   1.946  17.512 -1.3422 -0.5753 -0.1522
  159DOPC  H14B19115   6.334   2.107  17.549  0.2409 -0.8274  1.1956
  159DOPC  H14C19116   6.218   2.013  17.457 -0.1905  0.6912 -0.5114
  159DOPC   C1519117   6.319   2.214  17.328 -0.1838 -0.0978  0.2843
  159DOPC  H15A19118   6.347   2.262  17.236  0.7603  0.3763  0.8035
  159DOPC  H15B19119   6.360   2.281  17.402 -0.5932  0.2099  0.2339
  159DOPC  H15C19120   6.212   2.201  17.338 -0.6883  0.7143 -2.9821
  159DOPC   C1119121   6.406   2.022  17.095 -0.0667 -0.4117 -0.0513
  159DOPC  H11A19122   6.354   1.961  17.018 -1.9388  0.0800  0.7666
  159DOPC  H11B19123   6.374   2.128  17.086  1.7606  0.2872  1.1509
  159DOPC     P19124   6.629   1.884  17.059 -0.4186  0.5501  0.0697
  159DOPC   O1319125   6.652   1.796  17.178 -0.6195  0.2981 -0.0016
  159DOPC   O1419126   6.756   1.932  16.997  0.4544  0.1729 -0.1082
  159DOPC   O1219127   6.544   2.006  17.089  0.3452 -0.3837 -0.2352
  159DOPC   O1119128   6.536   1.814  16.960  0.5411  0.0276  0.3256
  159DOPC    C119129   6.524   1.854  16.817 -0.4976  0.1252 -0.5696
  159DOPC    HA19130   6.534   1.965  16.820  2.5517 -0.0619  1.9724
  159DOPC    HB19131   6.424   1.819  16.784 -1.0720 -0.4505  1.6039
  159DOPC    C219132   6.629   1.787  16.731 -0.7537  0.3768  0.0117
  159DOPC    HS19133   6.734   1.811  16.759 -0.8259  1.2153 -0.3817
  159DOPC   O2119134   6.613   1.822  16.592 -0.3826 -0.1590 -0.0580
  159DOPC   C2119135   6.640   1.952  16.564 -0.2669 -0.4781  0.0267
  159DOPC   O2219136   6.680   2.034  16.639 -0.4157 -0.7317 -0.7214
  159DOPC   C2219137   6.619   1.967  16.412 -0.4551  0.5806 -0.3901
  159DOPC   H2R19138   6.510   1.968  16.392 -0.7862 -4.5440 -0.2488
  159DOPC   H2S19139   6.652   1.872  16.363 -2.1913  0.9272 -2.3356
  159DOPC    C319140   6.612   1.634  16.753 -0.5127  0.1455  0.2242
  159DOPC    HX19141   6.508   1.601  16.732  0.0448 -0.2508 -2.1783
  159DOPC    HY19142   6.640   1.619  16.860  2.5969 -1.7688 -0.7295
  159DOPC   O3119143   6.698   1.555  16.664  0.3255  0.3552 -0.3089
  159DOPC   C3119144   6.815   1.525  16.715 -0.4030  0.6743 -0.1448
  159DOPC   O3219145   6.860   1.562  16.826  0.0475 -0.6285 -0.3484
  159DOPC   C3219146   6.893   1.444  16.610 -0.6944  0.1765 -0.2314
  159DOPC   H2X19147   6.817   1.408  16.537  0.6454 -0.3122 -1.4324
  159DOPC   H2Y19148   6.949   1.520  16.552  1.2346  0.3231  1.6809
  159DOPC   C2319149   6.688   2.098  16.377 -0.2970  0.5108  0.5361
  159DOPC   H3R19150   6.795   2.093  16.406 -0.9800  1.8281  3.7668
  159DOPC   H3S19151   6.652   2.190  16.428 -0.3125 -0.5565  2.5675
  159DOPC   C2419152   6.675   2.133  16.226  0.2158 -0.3065  0.1218
  159DOPC   H4R19153   6.569   2.160  16.206 -0.4498 -0.0682  3.3653
  159DOPC   H4S19154   6.720   2.050  16.168  0.9661  0.1193  0.0901
  159DOPC   C2519155   6.745   2.263  16.172  0.4736  0.3829  0.2801
  159DOPC   H5R19156   6.833   2.263  16.239  1.7818 -0.3354 -1.3765
  159DOPC   H5S19157   6.682   2.353  16.194 -0.5180 -0.1314 -0.3564
  159DOPC   C2619158   6.786   2.250  16.023  0.2536 -0.1764  0.2501
  159DOPC   H6R19159   6.698   2.236  15.956  1.6721 -0.7830 -1.5726
  159DOPC   H6S19160   6.861   2.178  15.985  0.5597  1.5436 -2.7835
  159DOPC   C2719161   6.850   2.377  15.979  0.2941 -0.1447 -0.1135
  159DOPC   H7R19162   6.952   2.395  16.021  0.7102  0.1941 -1.2510
  159DOPC   H7S19163   6.790   2.469  15.996  1.4912  0.4180  1.3816
  159DOPC   C2819164   6.889   2.385  15.826  0.2086 -0.1703 -0.4822
  159DOPC   H8R19165   6.917   2.487  15.791  0.7146  0.6652  2.1482
  159DOPC   H8S19166   6.802   2.366  15.760 -1.9899  0.4274  2.0904
  159DOPC   C2919167   7.005   2.292  15.799  0.5590 -0.2676 -0.4428
  159DOPC   H9R19168   6.989   2.191  15.839 -1.3531  0.7310  1.5010
  159DOPC  C21019169   7.127   2.319  15.740 -0.0315 -0.3733  0.3391
  159DOPC  H10R19170   7.198   2.235  15.738 -1.6505 -1.9006  2.5451
  159DOPC  C21119171   7.167   2.447  15.675  0.1458  0.5013 -0.1127
  159DOPC  H11R19172   7.275   2.458  15.650  0.7050  1.7403  2.5066
  159DOPC  H11S19173   7.146   2.521  15.754  0.3637 -1.1877  1.6213
  159DOPC  C21219174   7.084   2.467  15.546  0.6005  0.2666  0.3985
  159DOPC  H12R19175   7.114   2.565  15.504 -1.3448  1.2449  1.1512
  159DOPC  H12S19176   6.980   2.484  15.583 -0.0339 -2.5291  0.1147
  159DOPC  C21319177   7.096   2.347  15.447 -0.1294 -0.0866 -0.3479
  159DOPC  H13R19178   7.059   2.254  15.495 -0.7373 -0.2843 -1.1597
  159DOPC  H13S19179   7.202   2.328  15.422 -0.0698  0.4578 -0.5263
  159DOPC  C21419180   7.013   2.383  15.323  0.2970  0.1871  0.2034
  159DOPC  H14R19181   6.986   2.294  15.263 -1.7442  0.3358  0.8114
  159DOPC  H14S19182   7.081   2.446  15.262  2.3795 -0.8593  1.3176
  159DOPC  C21519183   6.874   2.451  15.345  0.0017 -0.6477  0.6189
  159DOPC  H15R19184   6.895   2.542  15.406 -0.4092  0.6129 -1.0459
  159DOPC  H15S19185   6.801   2.379  15.388  0.1222 -1.3990 -0.4058
  159DOPC  C21619186   6.799   2.491  15.216  0.5100 -0.0452 -0.2362
  159DOPC  H16R19187   6.702   2.541  15.236  1.0739  0.1034  2.5170
  159DOPC  H16S19188   6.777   2.393  15.170 -0.9320  0.1218  0.0578
  159DOPC  C21719189   6.871   2.582  15.114 -0.5282 -0.3411  0.3606
  159DOPC  H17R19190   6.968   2.542  15.079 -0.2533  0.7867 -0.2047
  159DOPC  H17S19191   6.892   2.684  15.154 -0.2699  0.7903 -2.4144
  159DOPC  C21819192   6.779   2.599  14.987  0.2903 -0.6416  0.3788
  159DOPC  H18R19193   6.835   2.613  14.892 -2.8938 -0.5788 -1.6239
  159DOPC  H18S19194   6.718   2.691  14.979  0.3992 -0.7034 -1.3396
  159DOPC  H18T19195   6.707   2.515  14.982  0.0906 -0.5604  1.5686
  159DOPC   C3319196   6.990   1.337  16.659 -0.6653  0.4465 -0.2965
  159DOPC   H3X19197   6.948   1.277  16.743  0.8959  1.7015  1.4814
  159DOPC   H3Y19198   7.090   1.379  16.681 -0.7003  1.5994 -2.1219
  159DOPC   C3419199   7.026   1.239  16.538 -0.1308 -0.2299  0.5119
  159DOPC   H4X19200   6.935   1.183  16.509  1.0518 -0.6473 -2.7397
  159DOPC   H4Y19201   7.101   1.166  16.576  1.2689 -0.3588 -2.2923
  159DOPC   C3519202   7.101   1.296  16.423  0.8527 -0.6417 -0.9053
  159DOPC   H5X19203   7.167   1.373  16.468 -0.1392 -0.4396  0.2644
  159DOPC   H5Y19204   7.029   1.344  16.352 -0.7496 -1.3581  0.1704
  159DOPC   C3619205   7.171   1.193  16.329  0.1823  0.7423 -0.3058
  159DOPC   H6X19206   7.239   1.242  16.255  2.9063 -0.1731  1.4093
  159DOPC   H6Y19207   7.224   1.111  16.382  0.0850  1.3282  0.7340
  159DOPC   C3719208   7.065   1.117  16.236 -0.1770 -0.2345 -0.1890
  159DOPC   H7X19209   6.987   1.058  16.290 -0.5868 -0.6909 -1.2620
  159DOPC   H7Y19210   7.028   1.205  16.179  2.1240  1.7473  1.1796
  159DOPC   C3819211   7.144   1.023  16.145 -0.1438  0.0475 -0.2976
  159DOPC   H8X19212   7.172   0.940  16.213 -0.4248  0.7959  0.7565
  159DOPC   H8Y19213   7.237   1.071  16.107  0.3833  1.2898  2.3373
  159DOPC   C3919214   7.065   0.969  16.030 -0.2463 -0.5207 -0.2033
  159DOPC   H9X19215   6.966   0.945  16.070 -1.1690  0.5292 -1.7629
  159DOPC  C31019216   7.096   0.961  15.900 -0.4650  0.8588 -0.1893
  159DOPC  H10X19217   7.018   0.925  15.832 -3.2063  1.7904  2.2828
  159DOPC  C31119218   7.227   0.995  15.847 -0.0458  0.6524  0.3156
  159DOPC  H11X19219   7.293   0.906  15.848  0.0539  0.7199  1.6757
  159DOPC  H11Y19220   7.290   1.065  15.906 -0.0526  0.3963  0.6294
  159DOPC  C31219221   7.232   1.052  15.700  0.3219  0.7395 -0.4343
  159DOPC  H12X19222   7.144   1.019  15.641  0.8645  0.5638 -1.1641
  159DOPC  H12Y19223   7.317   1.016  15.638 -0.9023 -0.4433 -1.5144
  159DOPC  C31319224   7.227   1.205  15.685  0.1994  0.1367 -0.5278
  159DOPC  H13X19225   7.154   1.251  15.754  0.4262  0.9559 -0.8317
  159DOPC  H13Y19226   7.324   1.242  15.724  0.5167 -0.9714 -0.2002
  159DOPC  C31419227   7.210   1.253  15.542 -0.0294  0.3510 -0.1403
  159DOPC  H14X19228   7.307   1.232  15.492  0.3623 -0.1028  0.7683
  159DOPC  H14Y19229   7.133   1.201  15.482 -0.3373  0.4029  0.2085
  159DOPC  C31519230   7.190   1.402  15.539  0.0001 -1.0347  0.2934
  159DOPC  H15X19231   7.264   1.438  15.614 -0.7247 -0.5745  0.8064
  159DOPC  H15Y19232   7.091   1.423  15.586 -0.2944  0.1311 -0.7848
  159DOPC  C31619233   7.187   1.460  15.392 -0.1284  0.0719  0.2030
  159DOPC  H16X19234   7.271   1.411  15.337  1.4675  2.4058  0.3848
  159DOPC  H16Y19235   7.089   1.428  15.350  0.7171 -0.2030 -1.7028
  159DOPC  C31719236   7.203   1.613  15.371 -0.3300 -0.4405  0.0274
  159DOPC  H17X19237   7.137   1.664  15.444  2.1116  3.4161 -0.1437
  159DOPC  H17Y19238   7.303   1.646  15.407  0.3370  0.2294 -2.2872
  159DOPC  C31819239   7.171   1.653  15.224 -0.2320  0.0610  0.4269
  159DOPC  H18X19240   7.074   1.606  15.198 -1.6040  2.2010  1.4645
  159DOPC  H18Y19241   7.163   1.763  15.223  3.1737  0.4189 -1.4605
  159DOPC  H18Z19242   7.243   1.619  15.146  0.4216 -2.9992  2.1848
  160DOPC     N19243   1.439   0.151  16.945  0.1567 -0.2230  0.5523
  160DOPC   C1219244   1.503   0.014  16.975  0.2043 -0.0221 -0.1913
  160DOPC  H12A19245   1.567   0.023  17.062  0.6150  1.7529 -0.6419
  160DOPC  H12B19246   1.542  -0.004  16.877 -0.3124  3.6021 -1.2208
  160DOPC   C1319247   1.346   0.150  16.820 -0.6368 -0.6347  0.5543
  160DOPC  H13A19248   1.281   0.063  16.829 -0.9748 -0.3416  0.9816
  160DOPC  H13B19249   1.292   0.243  16.822  1.9159  0.9247  1.1500
  160DOPC  H13C19250   1.401   0.152  16.727  0.4249  1.2767  1.1738
  160DOPC   C1419251   1.554   0.253  16.916  0.4543 -0.4204  1.1823
  160DOPC  H14A19252   1.590   0.289  17.011 -1.0407 -1.9275  2.3866
  160DOPC  H14B19253   1.626   0.211  16.848 -1.2280 -0.4419 -0.6945
  160DOPC  H14C19254   1.513   0.338  16.863  0.6515 -0.0638  1.6038
  160DOPC   C1519255   1.355   0.197  17.054  0.0182  0.7363  0.2012
  160DOPC  H15A19256   1.263   0.142  17.042  0.9777 -0.6394 -1.2132
  160DOPC  H15B19257   1.332   0.299  17.026  0.1453  0.2699 -1.7193
  160DOPC  H15C19258   1.392   0.180  17.154 -0.3681 -2.1709 -0.0799
  160DOPC   C1119259   1.399  -0.098  17.006 -0.2167 -0.4350  0.8904
  160DOPC  H11A19260   1.456  -0.183  17.049 -0.0895 -0.5124  0.5693
  160DOPC  H11B19261   1.328  -0.073  17.088  0.1722 -0.1199  1.1415
  160DOPC     P19262   1.408  -0.209  16.769  0.0175 -0.3279  0.1299
  160DOPC   O1319263   1.428  -0.347  16.815  0.4855 -0.3915  0.2843
  160DOPC   O1419264   1.529  -0.125  16.730  0.3812  0.1155  0.0637
  160DOPC   O1219265   1.326  -0.134  16.878 -0.2320 -0.4633 -0.5972
  160DOPC   O1119266   1.317  -0.212  16.632  0.7883  0.3133  0.3061
  160DOPC    C119267   1.173  -0.236  16.642 -0.0977  0.1099  0.4163
  160DOPC    HA19268   1.129  -0.134  16.634 -0.3883 -0.1437 -2.1942
  160DOPC    HB19269   1.140  -0.283  16.737 -1.9873 -0.6977 -0.5815
  160DOPC    C219270   1.130  -0.326  16.525 -0.2924  0.4451 -0.4654
  160DOPC    HS19271   1.183  -0.423  16.538 -0.2798  0.3635 -1.1131
  160DOPC   O2119272   1.165  -0.254  16.408  0.3960  0.3944 -0.1917
  160DOPC   C2119273   1.203  -0.321  16.304 -0.3912 -0.0998  0.4000
  160DOPC   O2219274   1.222  -0.442  16.302 -0.8658 -0.0942  0.0307
  160DOPC   C2219275   1.212  -0.225  16.189  0.0128 -0.0536  0.4901
  160DOPC   H2R19276   1.310  -0.173  16.190 -0.0889  0.1339  1.5535
  160DOPC   H2S19277   1.137  -0.143  16.191  1.8303  1.7900 -1.5213
  160DOPC    C319278   0.974  -0.349  16.533  0.4011  0.7220  0.1205
  160DOPC    HX19279   0.919  -0.258  16.501 -0.6150  0.0058 -0.2350
  160DOPC    HY19280   0.944  -0.382  16.634  0.9051 -1.2284 -0.3337
  160DOPC   O3119281   0.932  -0.463  16.456 -0.1498  0.1570  0.3333
  160DOPC   C3119282   0.861  -0.446  16.351  0.3114  1.2033 -0.1378
  160DOPC   O3219283   0.838  -0.335  16.301 -0.1715  0.5538 -0.0391
  160DOPC   C3219284   0.825  -0.577  16.296  0.8551  1.0427  1.3135
  160DOPC   H2X19285   0.803  -0.562  16.188 -0.9777 -1.5342  1.2575
  160DOPC   H2Y19286   0.913  -0.645  16.299  0.9630  1.0618 -0.4663
  160DOPC   C2319287   1.193  -0.305  16.058  0.3874 -0.0689  0.2768
  160DOPC   H3R19288   1.133  -0.398  16.066  1.4736 -0.8034  0.2303
  160DOPC   H3S19289   1.288  -0.347  16.018  0.3836 -1.0571  1.2787
  160DOPC   C2419290   1.124  -0.213  15.961  0.2117 -0.2825 -0.0885
  160DOPC   H4R19291   1.168  -0.112  15.969  0.1470 -0.3248  0.9490
  160DOPC   H4S19292   1.022  -0.192  16.002  0.5782 -1.0094  1.2468
  160DOPC   C2519293   1.108  -0.268  15.823 -0.8224 -0.0434 -0.9876
  160DOPC   H5R19294   1.038  -0.210  15.760 -0.4678 -0.4194 -1.7490
  160DOPC   H5S19295   1.063  -0.369  15.817 -1.1595  0.0674 -0.3667
  160DOPC   C2619296   1.245  -0.274  15.751  0.4784  0.5996 -0.0547
  160DOPC   H6R19297   1.276  -0.380  15.759  1.5602  1.0012  1.5566
  160DOPC   H6S19298   1.320  -0.208  15.799 -1.7413  2.4191  1.1062
  160DOPC   C2719299   1.243  -0.245  15.599 -0.4662 -0.3560 -0.0140
  160DOPC   H7R19300   1.206  -0.142  15.578 -1.8076 -0.8052 -0.0049
  160DOPC   H7S19301   1.171  -0.313  15.548  1.1888 -1.3141 -1.1575
  160DOPC   C2819302   1.380  -0.253  15.536 -0.1192 -0.1193 -0.4806
  160DOPC   H8R19303   1.440  -0.331  15.587  1.2363  0.6496 -0.8455
  160DOPC   H8S19304   1.436  -0.159  15.557 -1.8909  1.2705 -1.6488
  160DOPC   C2919305   1.386  -0.285  15.392 -0.4254 -0.2694 -0.5561
  160DOPC   H9R19306   1.426  -0.387  15.380  1.0145  0.3581 -1.3370
  160DOPC  C21019307   1.378  -0.210  15.281 -0.0731 -0.0326  0.7231
  160DOPC  H10R19308   1.396  -0.256  15.183  2.0073 -0.5313  1.2707
  160DOPC  C21119309   1.343  -0.064  15.276 -0.6254  0.5026 -0.4474
  160DOPC  H11R19310   1.363  -0.010  15.371  1.9093  0.4444 -0.8904
  160DOPC  H11S19311   1.236  -0.036  15.266 -0.2492  1.3102 -2.6886
  160DOPC  C21219312   1.418   0.007  15.163 -0.4543  0.4481  0.0841
  160DOPC  H12R19313   1.454  -0.065  15.086 -0.4735 -0.0691  0.5462
  160DOPC  H12S19314   1.515   0.035  15.210 -1.1498  0.4713  1.5653
  160DOPC  C21319315   1.335   0.122  15.103  0.7891 -0.3741  0.1955
  160DOPC  H13R19316   1.321   0.203  15.177  3.0438 -1.6461  2.1610
  160DOPC  H13S19317   1.233   0.087  15.073 -0.5217  2.5855  0.8696
  160DOPC  C21419318   1.400   0.181  14.982 -0.7596  0.7392 -0.0463
  160DOPC  H14R19319   1.403   0.099  14.907 -0.0602  1.6200 -1.0001
  160DOPC  H14S19320   1.506   0.201  15.009 -0.1583 -0.8690 -1.0371
  160DOPC  C21519321   1.333   0.294  14.899  0.2312 -0.2658 -0.0615
  160DOPC  H15R19322   1.399   0.307  14.811  0.8259  1.4660  0.6052
  160DOPC  H15S19323   1.330   0.392  14.950  0.2775 -0.4514  0.3032
  160DOPC  C21619324   1.183   0.267  14.851  0.3778 -0.3216 -0.3836
  160DOPC  H16R19325   1.133   0.213  14.934 -0.1413  0.7369  0.0242
  160DOPC  H16S19326   1.179   0.201  14.762 -1.0502 -1.7591  0.6979
  160DOPC  C21719327   1.113   0.395  14.817 -0.1569  0.0231 -0.6337
  160DOPC  H17R19328   1.175   0.453  14.747  1.3179 -1.4555 -0.6102
  160DOPC  H17S19329   1.102   0.467  14.901  1.9951  0.8836 -1.0433
  160DOPC  C21819330   0.973   0.374  14.752 -0.2533  0.0797 -0.3794
  160DOPC  H18R19331   0.934   0.449  14.679  3.2270  0.6101 -1.9254
  160DOPC  H18S19332   0.902   0.370  14.837  1.4107 -1.3624  1.0161
  160DOPC  H18T19333   0.960   0.272  14.711  0.2207 -0.2300  0.2276
  160DOPC   C3319334   0.694  -0.635  16.353  0.1038  0.4200  0.2504
  160DOPC   H3X19335   0.610  -0.572  16.316  0.0644 -1.3292 -3.0393
  160DOPC   H3Y19336   0.697  -0.641  16.464  0.1543 -0.9907  0.1819
  160DOPC   C3419337   0.670  -0.777  16.291  0.2935  0.4234 -0.3741
  160DOPC   H4X19338   0.575  -0.815  16.334  0.6350 -1.4727 -1.1911
  160DOPC   H4Y19339   0.736  -0.858  16.327 -0.2884  0.0650 -0.1031
  160DOPC   C3519340   0.662  -0.779  16.141  0.1773  0.2299  0.7815
  160DOPC   H5X19341   0.634  -0.881  16.107  0.0027  0.3383  0.5984
  160DOPC   H5Y19342   0.767  -0.760  16.110  0.5365 -1.0716  1.1203
  160DOPC   C3619343   0.563  -0.673  16.089  0.7709 -0.7779  0.1172
  160DOPC   H6X19344   0.472  -0.678  16.152  0.7436  0.0412  0.1588
  160DOPC   H6Y19345   0.598  -0.567  16.097  0.2291 -0.4714 -1.2769
  160DOPC   C3719346   0.534  -0.691  15.936 -0.1895 -1.1199  0.4319
  160DOPC   H7X19347   0.481  -0.787  15.918 -0.4387 -1.3283  2.1438
  160DOPC   H7Y19348   0.471  -0.605  15.905 -0.4756 -1.0976  1.0669
  160DOPC   C3819349   0.657  -0.707  15.852 -0.4986  0.0930  0.1099
  160DOPC   H8X19350   0.629  -0.753  15.755 -0.5225 -1.5707  0.8758
  160DOPC   H8Y19351   0.723  -0.788  15.890  1.2040  0.7250 -1.3538
  160DOPC   C3919352   0.736  -0.577  15.845 -0.3405  0.3101 -0.5112
  160DOPC   H9X19353   0.750  -0.536  15.946  3.0287  0.8397 -1.0711
  160DOPC  C31019354   0.785  -0.523  15.739  0.3240  0.1425 -0.1655
  160DOPC  H10X19355   0.811  -0.416  15.738  2.2352 -0.2724  0.9703
  160DOPC  C31119356   0.787  -0.581  15.603  0.5520 -1.7328  0.1679
  160DOPC  H11X19357   0.750  -0.686  15.594  1.1370 -2.0007  0.7574
  160DOPC  H11Y19358   0.888  -0.582  15.558  0.4183 -1.2262 -0.1469
  160DOPC  C31219359   0.694  -0.496  15.507 -0.5904  0.0097  0.2063
  160DOPC  H12X19360   0.698  -0.534  15.403  0.1258 -0.3561  0.3601
  160DOPC  H12Y19361   0.747  -0.399  15.511  1.9936 -1.2601 -0.9277
  160DOPC  C31319362   0.554  -0.496  15.566 -0.2422  0.4653 -0.3927
  160DOPC  H13X19363   0.519  -0.592  15.609 -1.2208  0.4253 -1.2141
  160DOPC  H13Y19364   0.556  -0.426  15.652 -2.2126  0.0115  0.0744
  160DOPC  C31419365   0.454  -0.450  15.464  0.4656 -0.1371  0.2231
  160DOPC  H14X19366   0.429  -0.511  15.375 -2.9146 -0.4775  1.3017
  160DOPC  H14Y19367   0.355  -0.447  15.514  1.4725 -0.6393  2.3429
  160DOPC  C31519368   0.473  -0.297  15.432 -0.0019 -0.0132  0.3450
  160DOPC  H15X19369   0.563  -0.283  15.368 -0.1379  0.9142  0.3306
  160DOPC  H15Y19370   0.498  -0.252  15.531  4.0973  0.1384 -0.5750
  160DOPC  C31619371   0.347  -0.229  15.378  0.6134 -0.5644  0.1759
  160DOPC  H16X19372   0.329  -0.253  15.271 -1.5787 -0.6851  0.5305
  160DOPC  H16Y19373   0.261  -0.269  15.436  0.9389 -1.9704 -0.2574
  160DOPC  C31719374   0.362  -0.075  15.382  0.3508 -0.1783  0.1157
  160DOPC  H17X19375   0.363  -0.039  15.487 -0.9998  0.5952 -0.1172
  160DOPC  H17Y19376   0.454  -0.051  15.325 -0.7305 -0.6687 -1.9006
  160DOPC  C31819377   0.247  -0.010  15.310  1.2162 -0.3710  0.1283
  160DOPC  H18X19378   0.259   0.100  15.305 -0.6370  0.0130  2.2799
  160DOPC  H18Y19379   0.239  -0.048  15.206  5.3767  1.8266 -1.2362
  160DOPC  H18Z19380   0.154  -0.019  15.370 -0.8386  1.7840 -2.4436
  161DOPC     N19381   3.394   1.425  17.143 -0.7126  0.2221  0.8200
  161DOPC   C1219382   3.360   1.521  17.030 -0.1797 -0.2875 -0.1206
  161DOPC  H12A19383   3.439   1.518  16.957 -1.3729 -0.1660 -1.4459
  161DOPC  H12B19384   3.371   1.625  17.060 -0.2679 -0.2159 -0.3351
  161DOPC   C1319385   3.366   1.280  17.114  0.3617  0.4082  0.2047
  161DOPC  H13A19386   3.265   1.255  17.145  0.9593 -1.2304  0.9426
  161DOPC  H13B19387   3.378   1.251  17.010 -2.2307 -2.0082  0.4330
  161DOPC  H13C19388   3.438   1.223  17.171  0.5869 -0.7075 -1.1318
  161DOPC   C1419389   3.322   1.457  17.269  0.2832  0.3573 -1.3806
  161DOPC  H14A19390   3.346   1.558  17.298  0.1353 -0.2641  1.0911
  161DOPC  H14B19391   3.217   1.450  17.246 -0.5984  2.1909  1.5384
  161DOPC  H14C19392   3.335   1.386  17.349  0.0354 -1.3271 -2.7691
  161DOPC   C1519393   3.545   1.440  17.165 -0.1379 -0.3333 -0.2765
  161DOPC  H15A19394   3.555   1.547  17.175 -1.7435 -0.1107 -0.7572
  161DOPC  H15B19395   3.611   1.410  17.085 -1.4370 -2.3375 -0.6853
  161DOPC  H15C19396   3.576   1.387  17.254 -1.0939  1.0089  0.8967
  161DOPC   C1119397   3.224   1.507  16.968  0.3836 -0.4372  0.2738
  161DOPC  H11A19398   3.212   1.587  16.892  0.4943 -1.1016 -0.4451
  161DOPC  H11B19399   3.230   1.416  16.905  1.4437 -0.7063  0.7507
  161DOPC     P19400   3.066   1.656  17.115 -0.2945  0.1653  0.6057
  161DOPC   O1319401   3.185   1.728  17.162 -0.1438  0.5808  0.2669
  161DOPC   O1419402   2.955   1.646  17.211  0.3684  0.2780 -0.4099
  161DOPC   O1219403   3.107   1.514  17.063 -0.5389  0.2378 -0.1865
  161DOPC   O1119404   3.005   1.735  16.995  0.4916 -0.2382  0.2738
  161DOPC    C119405   2.891   1.693  16.917  0.3400  0.1802 -0.1017
  161DOPC    HA19406   2.822   1.777  16.893 -1.1395 -0.7604  0.7151
  161DOPC    HB19407   2.822   1.625  16.970  1.7553 -0.7812  0.5784
  161DOPC    C219408   2.924   1.616  16.788  0.2453  0.3845  0.8337
  161DOPC    HS19409   2.984   1.526  16.814 -3.3246 -1.9217  1.8826
  161DOPC   O2119410   2.984   1.711  16.698  0.6579 -0.0069  0.7113
  161DOPC   C2119411   3.074   1.659  16.619 -0.8579 -0.5402 -0.3165
  161DOPC   O2219412   3.116   1.544  16.617  0.0593  0.3436 -0.1024
  161DOPC   C2219413   3.121   1.764  16.515 -0.3095 -0.2043  0.0707
  161DOPC   H2R19414   3.220   1.733  16.474  0.8566  3.7988 -0.5903
  161DOPC   H2S19415   3.136   1.862  16.565 -1.6392 -0.2451  0.5664
  161DOPC    C319416   2.792   1.556  16.729  0.5403 -0.1278 -0.3302
  161DOPC    HX19417   2.723   1.643  16.717 -0.5451 -0.4915  2.3657
  161DOPC    HY19418   2.735   1.496  16.803  1.2633 -0.5000 -0.0665
  161DOPC   O3119419   2.816   1.494  16.596  0.6829 -0.0816 -0.1049
  161DOPC   C3119420   2.821   1.364  16.577  0.5199  0.1412 -0.1503
  161DOPC   O3219421   2.828   1.273  16.657  0.2850 -0.0323 -0.4005
  161DOPC   C3219422   2.837   1.342  16.429 -0.3514  0.7591 -0.0524
  161DOPC   H2X19423   2.783   1.423  16.376  0.3982 -0.2742 -2.5465
  161DOPC   H2Y19424   2.939   1.344  16.386 -0.5152 -1.7381 -0.7140
  161DOPC   C2319425   3.023   1.748  16.399 -0.4561  0.6342  0.4475
  161DOPC   H3R19426   2.932   1.807  16.423 -2.1563 -0.8786 -1.8780
  161DOPC   H3S19427   2.976   1.647  16.390 -0.0094  0.5545 -1.3383
  161DOPC   C2419428   3.062   1.789  16.253  0.2548  0.2750  0.2575
  161DOPC   H4R19429   3.144   1.864  16.262 -0.1849  1.1674 -2.3732
  161DOPC   H4S19430   2.982   1.831  16.188  0.6967  1.4713  0.4512
  161DOPC   C2519431   3.130   1.678  16.170 -0.7064 -0.0876  0.7418
  161DOPC   H5R19432   3.048   1.604  16.153 -0.8580 -0.4945  2.9330
  161DOPC   H5S19433   3.221   1.644  16.225 -1.3514 -1.2721  1.1293
  161DOPC   C2619434   3.185   1.726  16.033  1.2815  0.0821  0.5701
  161DOPC   H6R19435   3.277   1.789  16.037  1.3959 -0.0775  0.4970
  161DOPC   H6S19436   3.106   1.786  15.985  1.2360 -1.3751 -1.3462
  161DOPC   C2719437   3.238   1.611  15.946  0.0677 -0.0656 -0.7002
  161DOPC   H7R19438   3.156   1.538  15.929  1.2276 -1.2490 -1.4873
  161DOPC   H7S19439   3.318   1.555  16.000  0.9924  0.1681 -1.7655
  161DOPC   C2819440   3.300   1.658  15.816  0.5914  0.6663  0.0357
  161DOPC   H8R19441   3.393   1.713  15.839  0.5969  0.2995  0.9019
  161DOPC   H8S19442   3.231   1.726  15.760  0.8396  0.1673 -0.8998
  161DOPC   C2919443   3.329   1.539  15.728 -0.6633  0.1114 -0.2620
  161DOPC   H9R19444   3.287   1.440  15.754  1.5040 -1.4995 -2.4666
  161DOPC  C21019445   3.421   1.543  15.628  0.6687  0.5524  0.8893
  161DOPC  H10R19446   3.417   1.452  15.566 -1.0110  0.4512  1.1206
  161DOPC  C21119447   3.498   1.661  15.579  0.3282  0.3004  0.5850
  161DOPC  H11R19448   3.470   1.762  15.617  0.1155 -0.1050  1.5320
  161DOPC  H11S19449   3.478   1.668  15.470 -0.1412  2.9188  0.7748
  161DOPC  C21219450   3.649   1.641  15.599  0.2850  0.0152  0.0589
  161DOPC  H12R19451   3.691   1.545  15.562 -0.4222 -0.6762  0.9648
  161DOPC  H12S19452   3.661   1.642  15.710  0.2018 -0.2123  0.0711
  161DOPC  C21319453   3.735   1.753  15.545 -0.0656  0.2141  0.2105
  161DOPC  H13R19454   3.706   1.742  15.438  0.3589 -1.9596  0.2745
  161DOPC  H13S19455   3.842   1.727  15.562 -0.2631 -0.3799  0.5382
  161DOPC  C21419456   3.715   1.894  15.597  0.0145 -0.2842  0.5481
  161DOPC  H14R19457   3.621   1.934  15.553  0.3842  0.6642  0.5831
  161DOPC  H14S19458   3.805   1.952  15.565 -0.1427  1.8190  3.5350
  161DOPC  C21519459   3.714   1.905  15.749 -0.0438 -0.1279  0.5081
  161DOPC  H15R19460   3.637   1.841  15.796  0.6706 -0.5012  1.2024
  161DOPC  H15S19461   3.683   2.007  15.780 -1.0864 -0.6497  1.2206
  161DOPC  C21619462   3.854   1.873  15.806 -0.5312  0.3033 -0.3855
  161DOPC  H16R19463   3.916   1.960  15.777 -2.7669  1.7165 -1.2382
  161DOPC  H16S19464   3.887   1.779  15.757 -1.5874 -1.0716  1.4014
  161DOPC  C21719465   3.858   1.858  15.958  0.7637 -0.2816 -0.0225
  161DOPC  H17R19466   3.771   1.791  15.977  0.8388 -1.2257 -2.5801
  161DOPC  H17S19467   3.835   1.955  16.006  1.9823  0.2633 -0.5140
  161DOPC  C21819468   3.992   1.816  16.017 -0.4800  0.4048 -0.8815
  161DOPC  H18R19469   4.054   1.908  16.026 -0.0550 -0.0919  2.2281
  161DOPC  H18S19470   4.037   1.735  15.955  0.4546  0.4853 -0.3303
  161DOPC  H18T19471   3.991   1.779  16.121  0.0199  1.9765 -0.2889
  161DOPC   C3319472   2.780   1.197  16.421 -0.8000 -0.1364  0.2362
  161DOPC   H3X19473   2.684   1.182  16.475 -1.2996 -1.3008 -0.9107
  161DOPC   H3Y19474   2.853   1.121  16.458 -1.3155 -0.0220  1.5333
  161DOPC   C3419475   2.752   1.170  16.270 -0.2380 -0.1066  0.3103
  161DOPC   H4X19476   2.852   1.165  16.221  0.1092 -3.8803  1.1341
  161DOPC   H4Y19477   2.702   1.251  16.213 -0.9135 -0.3474  0.5559
  161DOPC   C3519478   2.682   1.040  16.240  0.1763 -0.0280 -0.1223
  161DOPC   H5X19479   2.604   1.027  16.319  1.7610 -0.9891  1.3474
  161DOPC   H5Y19480   2.743   0.949  16.260 -2.1733 -1.6392  0.0905
  161DOPC   C3619481   2.623   1.032  16.100 -0.3815 -0.7058  1.1673
  161DOPC   H6X19482   2.528   1.088  16.115 -0.4416 -0.5415  0.2134
  161DOPC   H6Y19483   2.690   1.087  16.031 -1.1121  1.7191  2.2564
  161DOPC   C3719484   2.604   0.893  16.043  0.4162  0.3728 -0.1966
  161DOPC   H7X19485   2.557   0.908  15.943 -2.8005 -0.4212  1.0437
  161DOPC   H7Y19486   2.695   0.831  16.029 -0.1505 -0.6632  0.5198
  161DOPC   C3819487   2.510   0.790  16.122  0.7848 -0.6968 -0.5469
  161DOPC   H8X19488   2.569   0.754  16.209  1.0665 -0.6958 -0.7352
  161DOPC   H8Y19489   2.479   0.697  16.070 -1.0100 -0.5857  0.2451
  161DOPC   C3919490   2.391   0.867  16.172 -0.2253  0.6120  0.3041
  161DOPC   H9X19491   2.395   0.890  16.279 -0.7277  0.3048  0.3889
  161DOPC  C31019492   2.272   0.897  16.116  0.4643  0.2332  0.1018
  161DOPC  H10X19493   2.192   0.941  16.177 -0.3588 -3.7004  2.2122
  161DOPC  C31119494   2.250   0.868  15.968  0.8720  0.9389  0.2462
  161DOPC  H11X19495   2.146   0.836  15.944  1.7058  0.1880 -2.6684
  161DOPC  H11Y19496   2.317   0.795  15.918 -1.0441 -0.3099 -0.6290
  161DOPC  C31219497   2.267   1.003  15.890 -1.3528  0.3974  0.0298
  161DOPC  H12X19498   2.344   1.066  15.939  0.2980  0.8034 -2.8760
  161DOPC  H12Y19499   2.174   1.063  15.888 -1.1600  0.6910 -1.7769
  161DOPC  C31319500   2.296   0.990  15.736  0.8172 -0.4630 -0.1620
  161DOPC  H13X19501   2.330   1.088  15.695  3.2173 -1.3251 -0.3824
  161DOPC  H13Y19502   2.381   0.919  15.731  2.3638  1.0131  2.9308
  161DOPC  C31419503   2.180   0.932  15.656  0.2035 -0.4255  0.0778
  161DOPC  H14X19504   2.153   0.833  15.700  1.8624 -0.4998  1.0146
  161DOPC  H14Y19505   2.089   0.994  15.663 -1.4213 -2.4382 -1.7166
  161DOPC  C31519506   2.212   0.921  15.501  0.1568 -0.1527 -0.2651
  161DOPC  H15X19507   2.287   0.841  15.483 -0.9219 -1.3475  0.3979
  161DOPC  H15Y19508   2.253   1.021  15.473  1.4467 -0.6891 -0.3278
  161DOPC  C31619509   2.085   0.902  15.415 -0.1364 -0.1885  0.0479
  161DOPC  H16X19510   2.037   1.002  15.424 -0.1923 -0.2113 -0.0048
  161DOPC  H16Y19511   2.110   0.876  15.310  1.6234 -1.2929  0.6849
  161DOPC  C31719512   1.997   0.794  15.466  0.0197  0.1298 -0.3368
  161DOPC  H17X19513   2.036   0.690  15.465 -1.3882 -0.4421  0.7142
  161DOPC  H17Y19514   1.963   0.817  15.569  1.7665 -1.5681  0.6745
  161DOPC  C31819515   1.875   0.775  15.381 -0.2156  0.0290 -0.3443
  161DOPC  H18X19516   1.815   0.865  15.358 -2.1125 -1.4019 -1.2822
  161DOPC  H18Y19517   1.889   0.728  15.281 -1.4266  0.9676 -0.9737
  161DOPC  H18Z19518   1.802   0.707  15.430  0.1065 -0.1269 -0.0755
  162DOPC     N19519   1.555   7.057  16.516  0.0947 -0.1356  0.0147
  162DOPC   C1219520   1.531   6.915  16.463  0.1710  0.3086 -0.0098
  162DOPC  H12A19521   1.547   6.851  16.548  0.6139  0.2551 -0.1288
  162DOPC  H12B19522   1.613   6.881  16.401  1.9437  0.3289  2.2106
  162DOPC   C1319523   1.540   7.158  16.411  1.0582 -0.2621  0.5698
  162DOPC  H13A19524   1.598   7.125  16.326  0.1264  1.2325 -0.6984
  162DOPC  H13B19525   1.436   7.167  16.384  0.7282 -0.4404  1.7107
  162DOPC  H13C19526   1.576   7.254  16.446  2.8177 -1.2204  1.5692
  162DOPC   C1419527   1.699   7.067  16.575  0.3127 -0.6882  0.2297
  162DOPC  H14A19528   1.721   7.171  16.593 -0.0224 -0.4172 -0.8419
  162DOPC  H14B19529   1.725   7.001  16.656  1.2944 -1.5667 -0.7617
  162DOPC  H14C19530   1.775   7.045  16.502 -1.4866 -0.7613 -1.7309
  162DOPC   C1519531   1.470   7.086  16.634  0.1547  0.0041 -0.4728
  162DOPC  H15A19532   1.470   7.002  16.701 -1.5350 -1.0967 -1.7736
  162DOPC  H15B19533   1.365   7.098  16.608 -0.1071 -0.7290  0.2348
  162DOPC  H15C19534   1.495   7.176  16.688 -0.4654 -0.5375  0.7615
  162DOPC   C1119535   1.402   6.893  16.383 -0.0898  0.3769  0.0333
  162DOPC  H11A19536   1.370   6.984  16.329 -3.3468 -1.1218 -0.7919
  162DOPC  H11B19537   1.426   6.812  16.312  0.8369 -0.7066  1.5117
  162DOPC     P19538   1.243   6.715  16.502 -0.5566 -0.2620 -0.1211
  162DOPC   O1319539   1.144   6.730  16.615  0.0700 -0.0103 -0.1848
  162DOPC   O1419540   1.344   6.612  16.520 -0.1508 -0.0821  0.2913
  162DOPC   O1219541   1.299   6.863  16.483  0.4908  0.6407 -0.1723
  162DOPC   O1119542   1.167   6.696  16.370  0.7462  0.6618  0.2760
  162DOPC    C119543   1.070   6.793  16.326 -0.5909 -0.5153 -0.5928
  162DOPC    HA19544   1.097   6.897  16.351 -0.5135 -0.8911  1.0167
  162DOPC    HB19545   0.974   6.771  16.377  0.3388  0.3322  1.6940
  162DOPC    C219546   1.055   6.787  16.176 -0.1715 -0.0801  0.1969
  162DOPC    HS19547   0.954   6.832  16.164  0.6075  1.9024  0.6626
  162DOPC   O2119548   1.079   6.658  16.119  0.2839  0.4102 -0.5101
  162DOPC   C2119549   0.992   6.568  16.156 -0.7004  0.8234 -0.2569
  162DOPC   O2219550   0.895   6.582  16.230 -0.0700  1.0643 -0.2947
  162DOPC   C2219551   1.039   6.442  16.084 -0.3234  0.0596  0.2269
  162DOPC   H2R19552   1.023   6.355  16.151 -1.8354  0.7869  0.8511
  162DOPC   H2S19553   1.146   6.460  16.061 -0.9464  2.2569 -1.2563
  162DOPC    C319554   1.162   6.878  16.102  0.3958 -0.1627 -0.5389
  162DOPC    HX19555   1.262   6.829  16.108  1.5682  2.2612  2.4890
  162DOPC    HY19556   1.172   6.974  16.157  0.8052 -1.0650  1.0155
  162DOPC   O3119557   1.114   6.893  15.971 -0.1554 -0.4101 -0.1692
  162DOPC   C3119558   1.211   6.934  15.885  0.0908  0.5086 -0.3790
  162DOPC   O3219559   1.334   6.947  15.908  0.4183  0.2856 -0.4548
  162DOPC   C3219560   1.134   6.963  15.765  0.6559 -0.5049  0.5448
  162DOPC   H2X19561   1.062   6.886  15.732  0.9636 -0.8249  0.6095
  162DOPC   H2Y19562   1.079   7.058  15.782  1.8947  0.5843 -1.1183
  162DOPC   C2319563   0.956   6.424  15.963 -0.0670 -0.1453  0.0401
  162DOPC   H3R19564   0.851   6.422  15.999 -0.4351  2.0665 -0.7725
  162DOPC   H3S19565   0.979   6.332  15.905 -1.5175  0.7333 -2.0539
  162DOPC   C2419566   0.971   6.535  15.859  0.5011  0.6890 -0.0464
  162DOPC   H4R19567   1.063   6.521  15.798 -0.3470 -0.5292 -1.0886
  162DOPC   H4S19568   0.963   6.635  15.908  0.2256  1.0435 -0.7862
  162DOPC   C2519569   0.859   6.518  15.747  0.2424  0.3574 -0.1757
  162DOPC   H5R19570   0.757   6.518  15.790  0.2309  0.5727 -0.2049
  162DOPC   H5S19571   0.878   6.414  15.712  0.2857  0.6212 -0.9529
  162DOPC   C2619572   0.887   6.623  15.638  0.4287  0.2067 -0.0535
  162DOPC   H6R19573   0.990   6.612  15.596 -0.4533 -0.4297 -2.1516
  162DOPC   H6S19574   0.890   6.720  15.693 -4.1420 -0.6791  2.2264
  162DOPC   C2719575   0.782   6.623  15.530  0.0727 -0.0043  0.3245
  162DOPC   H7R19576   0.685   6.619  15.584 -0.2990 -0.7484 -0.3780
  162DOPC   H7S19577   0.795   6.530  15.471  2.0774 -0.1833  0.9913
  162DOPC   C2819578   0.786   6.737  15.429  0.3765 -0.7880  0.2004
  162DOPC   H8R19579   0.885   6.734  15.380 -0.2872  2.1248 -1.5639
  162DOPC   H8S19580   0.784   6.830  15.491  2.0500 -1.0631  0.6969
  162DOPC   C2919581   0.679   6.753  15.326  0.1961 -0.4583 -0.1492
  162DOPC   H9R19582   0.576   6.715  15.332 -0.0779 -0.6507 -3.7212
  162DOPC  C21019583   0.689   6.833  15.221  0.8638  0.2584 -0.7255
  162DOPC  H10R19584   0.598   6.853  15.163  0.4653  1.5249  0.2777
  162DOPC  C21119585   0.807   6.917  15.189  0.4828 -0.5548  0.8759
  162DOPC  H11R19586   0.876   6.843  15.144 -0.2638 -0.6392 -0.1840
  162DOPC  H11S19587   0.852   6.968  15.277 -0.1778  0.5671  0.5804
  162DOPC  C21219588   0.787   7.020  15.072 -0.2562  0.3255  0.4530
  162DOPC  H12R19589   0.750   6.961  14.985  1.5326 -1.1500  0.6260
  162DOPC  H12S19590   0.887   7.060  15.044  0.0559 -0.5677  0.2413
  162DOPC  C21319591   0.687   7.133  15.091 -0.1559 -0.8287 -0.2239
  162DOPC  H13R19592   0.725   7.193  15.177 -0.5554 -1.0100  0.0822
  162DOPC  H13S19593   0.590   7.089  15.122 -0.8743  0.3962 -0.6742
  162DOPC  C21419594   0.654   7.224  14.970  0.3385  0.2252 -0.4603
  162DOPC  H14R19595   0.650   7.147  14.891 -0.4556  0.2647 -0.4612
  162DOPC  H14S19596   0.737   7.297  14.955 -0.6080  1.3786 -0.2706
  162DOPC  C21519597   0.518   7.301  14.979 -1.0584  0.5478 -0.0466
  162DOPC  H15R19598   0.510   7.359  15.074  2.0797 -1.6000  1.7022
  162DOPC  H15S19599   0.436   7.226  14.983 -0.8022  0.2073 -0.9491
  162DOPC  C21619600   0.487   7.403  14.863  0.2127  0.4183  0.0760
  162DOPC  H16R19601   0.496   7.360  14.761  0.5904  0.6355  0.0151
  162DOPC  H16S19602   0.567   7.480  14.860 -1.8181  2.6023 -1.8314
  162DOPC  C21719603   0.353   7.468  14.894  0.4709  0.2246  0.0582
  162DOPC  H17R19604   0.358   7.527  14.988 -0.9275 -0.4318  0.5769
  162DOPC  H17S19605   0.287   7.379  14.904  2.4907 -1.3503  0.0323
  162DOPC  C21819606   0.287   7.547  14.780 -0.4255  0.0610 -0.1013
  162DOPC  H18R19607   0.342   7.641  14.758 -0.2283 -0.0383 -0.0357
  162DOPC  H18S19608   0.180   7.569  14.801 -0.5171  0.5902 -1.0953
  162DOPC  H18T19609   0.288   7.484  14.689 -1.5356  1.1333 -0.8815
  162DOPC   C3319610   1.226   6.977  15.639 -0.1967  0.0976  0.6429
  162DOPC   H3X19611   1.292   6.888  15.634  0.1532  0.2495  2.0951
  162DOPC   H3Y19612   1.300   7.057  15.658 -0.2857 -0.0624  1.7592
  162DOPC   C3419613   1.149   6.991  15.502 -0.2005 -0.3250  0.4375
  162DOPC   H4X19614   1.116   7.091  15.466 -0.4674 -0.9705 -1.2147
  162DOPC   H4Y19615   1.060   6.926  15.510  0.4892 -1.3052  0.4154
  162DOPC   C3519616   1.233   6.954  15.381 -0.4410  0.4018 -0.3913
  162DOPC   H5X19617   1.302   7.040  15.366  0.3921 -0.0267  0.7708
  162DOPC   H5Y19618   1.169   6.963  15.291  0.3441 -2.8785 -1.4448
  162DOPC   C3619619   1.322   6.834  15.367  0.4862 -0.1921  0.1653
  162DOPC   H6X19620   1.383   6.849  15.275 -0.0911  1.9166  0.0532
  162DOPC   H6Y19621   1.383   6.816  15.457  0.5358  0.6922  0.3232
  162DOPC   C3719622   1.225   6.706  15.361  0.1110  0.0452  0.4926
  162DOPC   H7X19623   1.281   6.611  15.378  0.7502  0.5303  1.1263
  162DOPC   H7Y19624   1.157   6.710  15.448  0.0453 -1.2603  0.5261
  162DOPC   C3819625   1.130   6.706  15.236 -0.0486 -0.2501  0.0702
  162DOPC   H8X19626   1.069   6.798  15.247  1.2822  0.5896  0.5672
  162DOPC   H8Y19627   1.073   6.610  15.232  0.6076 -0.5999 -2.8221
  162DOPC   C3919628   1.211   6.727  15.114 -0.1598  0.4388  0.0071
  162DOPC   H9X19629   1.279   6.814  15.113  0.6579 -0.1783  0.4806
  162DOPC  C31019630   1.248   6.625  15.033  0.1941 -0.7518  0.8987
  162DOPC  H10X19631   1.317   6.652  14.952 -0.6513 -0.9648  0.0902
  162DOPC  C31119632   1.194   6.480  15.026  0.4594 -0.4907 -0.0370
  162DOPC  H11X19633   1.114   6.472  14.949  0.7888  1.7633 -0.6854
  162DOPC  H11Y19634   1.161   6.461  15.130  0.7410  0.1284  0.1710
  162DOPC  C31219635   1.311   6.387  14.996 -0.0252 -0.1523 -0.4607
  162DOPC  H12X19636   1.365   6.433  14.910 -0.0847 -2.3209 -1.7384
  162DOPC  H12Y19637   1.279   6.287  14.959 -0.4350  0.2731 -1.3001
  162DOPC  C31319638   1.401   6.372  15.125  0.1178 -0.5884  0.4401
  162DOPC  H13X19639   1.424   6.467  15.178  0.7625 -0.7859  0.5307
  162DOPC  H13Y19640   1.347   6.320  15.207  0.9442 -1.7477  0.2765
  162DOPC  C31419641   1.529   6.286  15.098 -0.3074  0.0030  0.2501
  162DOPC  H14X19642   1.506   6.197  15.036  2.3780 -0.5316 -0.1282
  162DOPC  H14Y19643   1.593   6.341  15.026 -2.1996 -0.2871 -1.7371
  162DOPC  C31519644   1.611   6.253  15.232  0.9992  0.4913 -0.3167
  162DOPC  H15X19645   1.545   6.196  15.301 -0.2571  1.0858 -0.9870
  162DOPC  H15Y19646   1.643   6.346  15.284  1.9243 -0.4458  0.8298
  162DOPC  C31619647   1.729   6.172  15.194 -1.2371 -0.4087  0.5855
  162DOPC  H16X19648   1.690   6.072  15.166  1.8078 -1.2011 -1.3903
  162DOPC  H16Y19649   1.781   6.207  15.102 -0.7149 -2.4135  0.0627
  162DOPC  C31719650   1.830   6.150  15.306  0.0935 -0.2779  0.0864
  162DOPC  H17X19651   1.870   6.249  15.337  1.0251 -0.7768  0.5236
  162DOPC  H17Y19652   1.778   6.103  15.392  0.3042 -0.9440 -0.1389
  162DOPC  C31819653   1.940   6.059  15.244 -1.5262  0.4119  0.1724
  162DOPC  H18X19654   1.919   5.951  15.232 -0.4329  0.3097 -1.0801
  162DOPC  H18Y19655   1.976   6.108  15.150 -1.8202  2.0572  0.8848
  162DOPC  H18Z19656   2.023   6.059  15.318 -0.2580 -1.1416 -1.1746
  163DOPC     N19657   0.189   3.332  16.839 -0.4811 -0.8262 -0.3319
  163DOPC   C1219658   0.283   3.420  16.757  0.0226  0.7814  0.2384
  163DOPC  H12A19659   0.254   3.405  16.654  2.3390  2.8625 -0.8072
  163DOPC  H12B19660   0.380   3.375  16.774 -1.0020 -1.6129  0.1874
  163DOPC   C1319661   0.234   3.328  16.986  0.2879 -0.9232  0.1692
  163DOPC  H13A19662   0.332   3.285  17.003  0.4478 -0.5413  0.2160
  163DOPC  H13B19663   0.232   3.427  17.029  1.1035 -1.8405  2.4533
  163DOPC  H13C19664   0.160   3.269  17.038 -1.2141 -2.0106 -2.9470
  163DOPC   C1419665   0.216   3.198  16.794 -0.4733 -0.1038 -0.3698
  163DOPC  H14A19666   0.318   3.170  16.815 -0.7311 -1.8139 -1.2409
  163DOPC  H14B19667   0.152   3.124  16.841 -2.7603  1.2039 -1.2730
  163DOPC  H14C19668   0.194   3.198  16.689 -0.5024 -0.4416 -0.3633
  163DOPC   C1519669   0.048   3.372  16.827 -0.1190 -0.3419  0.7788
  163DOPC  H15A19670   0.042   3.478  16.843  0.1459 -0.0150 -1.0708
  163DOPC  H15B19671  -0.017   3.330  16.902 -1.1313  0.4231  0.3428
  163DOPC  H15C19672   0.014   3.343  16.729  1.0965  0.1731  0.1755
  163DOPC   C1119673   0.287   3.574  16.777  0.1194 -0.0053 -0.2222
  163DOPC  H11A19674   0.343   3.598  16.869  1.3011 -3.9208  0.2498
  163DOPC  H11B19675   0.356   3.603  16.695  0.9214 -3.4752 -0.9155
  163DOPC     P19676   0.104   3.755  16.858 -0.4138  0.3232 -0.1355
  163DOPC   O1319677   0.203   3.801  16.954 -0.4784 -0.1441 -0.1024
  163DOPC   O1419678  -0.031   3.726  16.903 -0.8003 -0.5423 -0.5482
  163DOPC   O1219679   0.161   3.633  16.770  0.7165 -0.7321  0.4916
  163DOPC   O1119680   0.090   3.877  16.748 -0.0528  0.1092  0.0554
  163DOPC    C119681   0.203   3.901  16.663  0.5618 -0.1384  0.3536
  163DOPC    HA19682   0.293   3.837  16.678  0.1334 -0.5241  1.3857
  163DOPC    HB19683   0.237   4.003  16.689 -0.6543  1.1963 -2.8315
  163DOPC    C219684   0.167   3.894  16.510  0.1632  0.0324  0.0632
  163DOPC    HS19685   0.258   3.922  16.454  0.1939 -2.0667 -1.0241
  163DOPC   O2119686   0.050   3.977  16.482 -0.3908  0.2273  0.1512
  163DOPC   C2119687   0.062   4.106  16.506 -0.0783  0.1367 -0.1667
  163DOPC   O2219688   0.168   4.163  16.532 -0.1744 -0.5991 -0.6469
  163DOPC   C2219689  -0.074   4.172  16.505  0.2167 -0.3765  0.6742
  163DOPC   H2R19690  -0.087   4.204  16.611  0.4494  1.0080  0.3078
  163DOPC   H2S19691  -0.151   4.099  16.473  2.1497 -1.0828 -2.9912
  163DOPC    C319692   0.148   3.744  16.462 -0.6669 -0.1271 -0.4619
  163DOPC    HX19693   0.060   3.699  16.513  0.0079  0.0922  0.9434
  163DOPC    HY19694   0.235   3.688  16.502 -1.5149 -0.5761  0.8110
  163DOPC   O3119695   0.154   3.720  16.327  0.3394  0.1528 -0.4161
  163DOPC   C3119696   0.038   3.697  16.271  0.0241  0.0356  0.4131
  163DOPC   O3219697  -0.072   3.695  16.325 -0.7525  0.0746  0.0708
  163DOPC   C3219698   0.063   3.636  16.132  0.4415  0.4939  0.0689
  163DOPC   H2X19699   0.002   3.698  16.064 -0.1521 -0.5012 -0.3372
  163DOPC   H2Y19700   0.166   3.651  16.093  1.7275 -1.1493  2.5482
  163DOPC   C2319701  -0.093   4.305  16.430 -0.2073 -0.3751 -0.5723
  163DOPC   H3R19702  -0.036   4.376  16.494 -0.7186 -1.8252  1.6057
  163DOPC   H3S19703  -0.198   4.341  16.437  0.7476  2.3030  2.2840
  163DOPC   C2419704  -0.044   4.292  16.289 -0.0841 -0.3514  0.2022
  163DOPC   H4R19705   0.053   4.237  16.286 -0.3430 -0.8252  0.4550
  163DOPC   H4S19706  -0.032   4.393  16.245  0.7090 -0.8122 -0.7086
  163DOPC   C2519707  -0.145   4.216  16.192  0.0005 -0.3060  0.0190
  163DOPC   H5R19708  -0.241   4.271  16.190  1.0579  1.6756  1.2531
  163DOPC   H5S19709  -0.158   4.111  16.228 -0.9828 -0.3739 -0.5002
  163DOPC   C2619710  -0.092   4.217  16.048 -0.4408 -0.1227 -0.5081
  163DOPC   H6R19711  -0.077   4.325  16.025  0.3433  0.3141  1.7883
  163DOPC   H6S19712  -0.172   4.183  15.980 -2.3722  0.6536  1.2621
  163DOPC   C2719713   0.046   4.149  16.022 -0.1971  0.1188  0.1228
  163DOPC   H7R19714   0.033   4.039  16.037 -0.1385 -0.3168 -2.5985
  163DOPC   H7S19715   0.130   4.188  16.084  2.1071 -0.9557 -2.1238
  163DOPC   C2819716   0.109   4.156  15.883  0.2511 -0.0011  0.0604
  163DOPC   H8R19717   0.209   4.108  15.879 -0.5273 -1.8264  1.4540
  163DOPC   H8S19718   0.137   4.259  15.852 -0.5572  0.7207  1.6279
  163DOPC   C2919719   0.030   4.101  15.764  0.0617 -0.1352  0.4338
  163DOPC   H9R19720   0.057   3.995  15.749  2.5206  0.1417  2.4415
  163DOPC  C21019721  -0.046   4.163  15.677  0.9706 -0.8526  0.4086
  163DOPC  H10R19722  -0.092   4.100  15.599 -0.6133  1.0709 -0.3094
  163DOPC  C21119723  -0.096   4.308  15.676 -0.7325  0.6202 -0.3631
  163DOPC  H11R19724  -0.058   4.355  15.769  0.0517 -0.0347 -0.3375
  163DOPC  H11S19725  -0.207   4.308  15.684 -0.7163 -1.4517  0.3677
  163DOPC  C21219726  -0.025   4.390  15.567  0.1810  0.3980  0.0967
  163DOPC  H12R19727   0.083   4.370  15.582 -0.3949 -0.5517  3.9139
  163DOPC  H12S19728  -0.036   4.495  15.601  3.4316  0.3722  1.6287
  163DOPC  C21319729  -0.070   4.354  15.426 -0.1748  0.3530 -0.1012
  163DOPC  H13R19730  -0.177   4.380  15.408  0.5165  3.2430 -0.3912
  163DOPC  H13S19731  -0.059   4.243  15.419  0.1508  0.4290 -0.8694
  163DOPC  C21419732   0.002   4.429  15.316 -0.3683 -0.4946 -0.0834
  163DOPC  H14R19733   0.106   4.390  15.304 -0.1505 -0.2026  0.7994
  163DOPC  H14S19734   0.007   4.536  15.345 -2.4120 -0.9281  2.1172
  163DOPC  C21519735  -0.062   4.423  15.172 -0.7090  0.1407  0.5288
  163DOPC  H15R19736  -0.171   4.446  15.166 -0.0626  3.7214 -0.1154
  163DOPC  H15S19737  -0.051   4.319  15.136 -1.2381  0.6021 -1.0353
  163DOPC  C21619738   0.009   4.521  15.081 -0.1765 -0.1368  0.0823
  163DOPC  H16R19739   0.114   4.485  15.071 -0.6588 -1.1089 -2.4386
  163DOPC  H16S19740   0.003   4.625  15.121  2.4300 -0.0597  0.4658
  163DOPC  C21719741  -0.041   4.533  14.936 -0.3352 -0.2966  0.7637
  163DOPC  H17R19742  -0.004   4.628  14.890  2.0523 -1.0306  1.0285
  163DOPC  H17S19743  -0.147   4.561  14.954 -0.8397 -1.3741 -0.3914
  163DOPC  C21819744  -0.034   4.404  14.854 -0.4619 -0.7904 -0.5004
  163DOPC  H18R19745   0.060   4.346  14.865  0.0038 -0.1418 -1.0326
  163DOPC  H18S19746  -0.057   4.418  14.746 -0.1132  0.3764 -0.4366
  163DOPC  H18T19747  -0.099   4.330  14.906  1.8498 -0.8759  2.5038
  163DOPC   C3319748   0.021   3.487  16.122 -0.2685 -0.2285  0.3994
  163DOPC   H3X19749  -0.089   3.474  16.110 -0.3086 -2.6753  2.5271
  163DOPC   H3Y19750   0.041   3.433  16.217  1.1304 -0.9895 -0.2978
  163DOPC   C3419751   0.093   3.410  16.007  0.4415  0.2329  0.2333
  163DOPC   H4X19752   0.062   3.304  16.017 -2.7163  1.2312  2.6957
  163DOPC   H4Y19753   0.203   3.410  16.025  0.2028 -0.7707  1.9219
  163DOPC   C3519754   0.062   3.461  15.865 -0.1817  0.0845  0.4280
  163DOPC   H5X19755   0.076   3.571  15.858  3.6652 -0.3116 -0.3354
  163DOPC   H5Y19756  -0.040   3.432  15.832  0.9661 -0.9875 -2.5254
  163DOPC   C3619757   0.151   3.401  15.759  0.6558 -0.0750  0.7107
  163DOPC   H6X19758   0.252   3.412  15.804  0.4604 -2.5755  1.9277
  163DOPC   H6Y19759   0.130   3.295  15.731 -2.1329  0.7226 -0.5641
  163DOPC   C3719760   0.142   3.478  15.625  0.1104 -0.4757 -0.1698
  163DOPC   H7X19761   0.040   3.460  15.586 -0.2497 -2.9477  1.6818
  163DOPC   H7Y19762   0.155   3.588  15.639  1.8080 -0.6887  0.2017
  163DOPC   C3819763   0.240   3.425  15.524 -0.2898  0.3047  0.2506
  163DOPC   H8X19764   0.201   3.464  15.428 -0.8095 -1.2653 -0.2008
  163DOPC   H8Y19765   0.224   3.316  15.511  2.0906 -0.0465 -0.2995
  163DOPC   C3919766   0.381   3.468  15.551 -0.5447  1.0086 -0.1084
  163DOPC   H9X19767   0.418   3.435  15.649 -0.1508  2.2052  0.1734
  163DOPC  C31019768   0.454   3.554  15.478  0.7030  0.3674 -0.4388
  163DOPC  H10X19769   0.551   3.591  15.515 -0.6561  2.2286  1.4916
  163DOPC  C31119770   0.420   3.624  15.350  0.0394 -0.2780  0.6234
  163DOPC  H11X19771   0.397   3.732  15.367 -0.4410 -0.5590  1.8613
  163DOPC  H11Y19772   0.333   3.568  15.310  0.5973 -1.7468  1.4287
  163DOPC  C31219773   0.528   3.617  15.245 -0.0751 -0.4455  0.4309
  163DOPC  H12X19774   0.531   3.522  15.188  0.4064  0.8407 -1.7898
  163DOPC  H12Y19775   0.625   3.637  15.296 -0.3832 -0.6743  1.1178
  163DOPC  C31319776   0.515   3.736  15.149  0.1386 -0.8839 -0.1231
  163DOPC  H13X19777   0.419   3.723  15.096  0.0578 -0.3762 -0.1101
  163DOPC  H13Y19778   0.507   3.833  15.202 -1.8876 -0.9562 -0.2410
  163DOPC  C31419779   0.626   3.749  15.051  0.2917 -0.0008 -0.3349
  163DOPC  H14X19780   0.599   3.802  14.958 -1.5190  1.3195  0.8736
  163DOPC  H14Y19781   0.700   3.811  15.106  1.0031 -1.5466  0.5176
  163DOPC  C31519782   0.697   3.618  15.019  0.2143  0.3346 -0.0369
  163DOPC  H15X19783   0.617   3.558  14.971  1.4633 -1.0971 -0.4365
  163DOPC  H15Y19784   0.737   3.563  15.107  0.3707  0.9869  0.3110
  163DOPC  C31619785   0.809   3.632  14.917  0.2393 -0.3569 -0.8422
  163DOPC  H16X19786   0.768   3.686  14.829  0.5907  2.5707  0.6464
  163DOPC  H16Y19787   0.876   3.705  14.966 -0.1507 -1.6480  1.7982
  163DOPC  C31719788   0.888   3.509  14.885  0.4577  0.2335 -0.0966
  163DOPC  H17X19789   0.949   3.514  14.977 -2.4784  2.5542  1.9479
  163DOPC  H17Y19790   0.825   3.420  14.904  2.3509 -0.9393  0.9219
  163DOPC  C31819791   0.974   3.515  14.765 -0.0872  0.2942  0.2369
  163DOPC  H18X19792   0.910   3.521  14.674  1.7159 -1.3856 -1.2355
  163DOPC  H18Y19793   1.040   3.602  14.784  1.1731 -0.8294  1.2132
  163DOPC  H18Z19794   1.035   3.422  14.757 -1.4649 -0.4815 -2.2623
  164DOPC     N19795   1.735   1.919  16.657  0.2742 -0.3163 -0.1365
  164DOPC   C1219796   1.593   1.958  16.622 -0.1507 -0.5301 -0.0330
  164DOPC  H12A19797   1.585   2.062  16.593 -0.1318 -0.7515 -0.8686
  164DOPC  H12B19798   1.525   1.956  16.706 -1.9892 -0.0913 -1.4478
  164DOPC   C1319799   1.739   1.785  16.717  0.9174 -0.0091 -0.5004
  164DOPC  H13A19800   1.836   1.746  16.745  0.6481  0.5488  1.3892
  164DOPC  H13B19801   1.681   1.782  16.808  1.5248  1.3487 -0.0357
  164DOPC  H13C19802   1.690   1.712  16.656 -0.5121 -0.4775  1.1296
  164DOPC   C1419803   1.774   2.022  16.757  0.0151 -0.0951 -0.7724
  164DOPC  H14A19804   1.764   2.123  16.720 -1.6576  0.6253  1.3854
  164DOPC  H14B19805   1.718   2.027  16.850 -3.6576 -0.6104 -2.7632
  164DOPC  H14C19806   1.878   2.008  16.780  0.3857  0.2220 -2.1686
  164DOPC   C1519807   1.820   1.927  16.538  0.1553 -0.2270  0.0894
  164DOPC  H15A19808   1.783   1.871  16.454  1.4225 -0.2406 -0.4929
  164DOPC  H15B19809   1.917   1.887  16.566  0.2902  0.9055  1.3114
  164DOPC  H15C19810   1.834   2.025  16.496  1.9914 -0.8291 -0.8315
  164DOPC   C1119811   1.528   1.867  16.508  0.1767 -0.3133 -0.0144
  164DOPC  H11A19812   1.423   1.894  16.482 -0.0703  0.3051  1.5030
  164DOPC  H11B19813   1.594   1.883  16.420  0.2640 -2.5361 -0.4165
  164DOPC     P19814   1.406   1.679  16.643  0.4183 -0.2619 -0.4833
  164DOPC   O1319815   1.383   1.777  16.749 -0.2913 -0.4319 -0.2032
  164DOPC   O1419816   1.433   1.536  16.677  0.1833  0.1335  0.1588
  164DOPC   O1219817   1.528   1.729  16.558 -0.4156 -0.4908 -0.0504
  164DOPC   O1119818   1.281   1.689  16.548  0.3447 -1.0152 -0.1496
  164DOPC    C119819   1.233   1.567  16.483  0.0334 -0.1926  0.1516
  164DOPC    HA19820   1.125   1.585  16.460 -0.4328  0.1400  2.3839
  164DOPC    HB19821   1.238   1.485  16.558  0.8595  0.4938  0.8530
  164DOPC    C219822   1.315   1.525  16.363  0.0863  0.3987  0.1239
  164DOPC    HS19823   1.424   1.524  16.387 -0.0754 -1.5481  0.9431
  164DOPC   O2119824   1.282   1.616  16.261 -0.4070  0.1379 -0.2005
  164DOPC   C2119825   1.380   1.659  16.187 -0.3392 -0.0696  0.7101
  164DOPC   O2219826   1.491   1.611  16.200 -0.0938  0.2144 -0.8540
  164DOPC   C2219827   1.333   1.764  16.089  0.5732  0.0963  1.1414
  164DOPC   H2R19828   1.222   1.763  16.091  0.5818 -0.3642  1.4421
  164DOPC   H2S19829   1.362   1.735  15.985 -1.0707  1.4311  0.2598
  164DOPC    C319830   1.296   1.382  16.309  0.6248 -0.1687  0.9859
  164DOPC    HX19831   1.187   1.368  16.294  1.2809 -1.9429 -4.7278
  164DOPC    HY19832   1.333   1.304  16.379  2.2192 -1.3889 -1.0895
  164DOPC   O3119833   1.373   1.364  16.188 -0.2008  0.0305  0.5155
  164DOPC   C3119834   1.488   1.301  16.193  0.4342  0.1051  0.5273
  164DOPC   O3219835   1.541   1.262  16.293  0.6255  0.0519 -0.0631
  164DOPC   C3219836   1.545   1.284  16.050  0.1144  1.0633  0.4204
  164DOPC   H2X19837   1.567   1.386  16.011 -1.6170  1.0213 -0.7520
  164DOPC   H2Y19838   1.643   1.232  16.061  0.1788  1.4586  2.0396
  164DOPC   C2319839   1.386   1.902  16.122 -0.0747  0.5890  0.1566
  164DOPC   H3R19840   1.492   1.905  16.090  0.5532  0.1496  2.0268
  164DOPC   H3S19841   1.386   1.912  16.233 -1.4646 -2.0047  0.4600
  164DOPC   C2419842   1.302   2.022  16.072  0.2009 -0.1701  0.1660
  164DOPC   H4R19843   1.273   2.000  15.967 -2.0821 -0.1838  0.7638
  164DOPC   H4S19844   1.364   2.115  16.068  0.0724  0.0971  2.6948
  164DOPC   C2519845   1.171   2.057  16.140 -0.2032  0.4820  0.8272
  164DOPC   H5R19846   1.188   2.064  16.249  1.0600 -1.9531  0.8454
  164DOPC   H5S19847   1.107   1.966  16.134  3.0238 -1.9882  1.1656
  164DOPC   C2619848   1.110   2.193  16.106  0.4681 -0.0232 -0.0323
  164DOPC   H6R19849   1.174   2.283  16.121  1.6966 -0.7244 -0.9695
  164DOPC   H6S19850   1.020   2.213  16.168  0.4191  1.0304 -0.4148
  164DOPC   C2719851   1.072   2.207  15.956 -0.6196  0.1589 -0.1646
  164DOPC   H7R19852   0.996   2.130  15.931 -1.1461  0.4929  0.3742
  164DOPC   H7S19853   1.165   2.175  15.905 -0.4041 -1.2976  1.0671
  164DOPC   C2819854   1.017   2.347  15.926  0.2478 -0.3273  0.0882
  164DOPC   H8R19855   1.104   2.409  15.956 -0.7765  1.2861 -0.1340
  164DOPC   H8S19856   0.933   2.351  15.999 -1.2983 -1.6304 -1.5214
  164DOPC   C2919857   0.953   2.382  15.797 -0.6809 -0.4513  0.2634
  164DOPC   H9R19858   0.876   2.315  15.758 -0.2629 -0.3132 -0.8277
  164DOPC  C21019859   1.002   2.478  15.719 -0.4866  0.2416 -0.4839
  164DOPC  H10R19860   0.990   2.461  15.611  0.5377 -0.1363 -0.5528
  164DOPC  C21119861   1.111   2.571  15.742  0.4324  0.0974  0.1874
  164DOPC  H11R19862   1.112   2.607  15.847  2.3001  0.5677  0.0576
  164DOPC  H11S19863   1.095   2.663  15.683 -1.7714  1.8215  3.2110
  164DOPC  C21219864   1.252   2.522  15.713 -1.0036  0.4054  0.0102
  164DOPC  H12R19865   1.272   2.425  15.763 -0.8049  0.6306  0.3682
  164DOPC  H12S19866   1.333   2.591  15.746 -1.9382  1.8465 -0.5876
  164DOPC  C21319867   1.274   2.492  15.560 -0.3183 -0.1524  0.1016
  164DOPC  H13R19868   1.246   2.583  15.502  1.9251  2.1414  2.3471
  164DOPC  H13S19869   1.203   2.411  15.532  0.1722 -0.6570  0.2836
  164DOPC  C21419870   1.418   2.435  15.531 -0.1328 -0.1808  0.0511
  164DOPC  H14R19871   1.405   2.337  15.582 -2.4713  0.5688  1.0769
  164DOPC  H14S19872   1.508   2.477  15.580 -0.4926 -0.7871  1.2975
  164DOPC  C21519873   1.446   2.412  15.382 -0.0657  0.6363 -0.2886
  164DOPC  H15R19874   1.453   2.508  15.325 -1.7900  0.8648 -0.1726
  164DOPC  H15S19875   1.355   2.363  15.339  1.4940 -2.1517 -0.6394
  164DOPC  C21619876   1.570   2.329  15.353 -0.1532  0.8513  0.7432
  164DOPC  H16R19877   1.556   2.235  15.410  0.2099  1.9763  2.7905
  164DOPC  H16S19878   1.663   2.377  15.391  0.4469 -0.0785  0.5008
  164DOPC  C21719879   1.609   2.301  15.203  0.2468 -0.3804 -0.5205
  164DOPC  H17R19880   1.719   2.286  15.206  0.1178 -1.3262  0.8600
  164DOPC  H17S19881   1.580   2.395  15.153  1.0666  0.0684 -0.1563
  164DOPC  C21819882   1.552   2.172  15.140  0.3268  0.1876  0.0501
  164DOPC  H18R19883   1.568   2.178  15.030  0.8574  0.5659  0.1382
  164DOPC  H18S19884   1.445   2.147  15.156 -0.0225  1.4897 -0.0799
  164DOPC  H18T19885   1.605   2.083  15.180 -1.6528 -1.0050  0.1237
  164DOPC   C3319886   1.455   1.204  15.956 -0.0054  0.7130  0.2965
  164DOPC   H3X19887   1.499   1.227  15.857 -0.3748  0.0309 -0.0329
  164DOPC   H3Y19888   1.353   1.247  15.953 -0.0517  0.6108 -2.8069
  164DOPC   C3419889   1.442   1.057  15.977  0.5702 -0.1372  0.0607
  164DOPC   H4X19890   1.399   1.044  16.079  1.0549 -1.6558  0.0991
  164DOPC   H4Y19891   1.545   1.017  15.986  0.9801  1.0342  0.6971
  164DOPC   C3519892   1.358   0.992  15.875  0.3734  0.1334 -0.8002
  164DOPC   H5X19893   1.398   1.024  15.776  1.2687 -0.2381 -0.5640
  164DOPC   H5Y19894   1.252   1.025  15.882 -0.5694 -2.6339 -0.7988
  164DOPC   C3619895   1.345   0.838  15.888  0.0920  0.0022 -0.3256
  164DOPC   H6X19896   1.322   0.817  15.994  2.7414 -0.7577  0.1671
  164DOPC   H6Y19897   1.263   0.803  15.822 -0.2433 -0.9191  0.5633
  164DOPC   C3719898   1.468   0.762  15.844 -0.0098  0.0720 -0.2528
  164DOPC   H7X19899   1.476   0.779  15.734 -1.8166  0.2113 -0.3811
  164DOPC   H7Y19900   1.557   0.793  15.903  0.9627 -1.8950 -0.5943
  164DOPC   C3819901   1.453   0.608  15.865  0.4132 -0.0147 -0.1159
  164DOPC   H8X19902   1.430   0.574  15.968  1.6550  2.1431  0.9468
  164DOPC   H8Y19903   1.555   0.563  15.860  0.9359  0.7699  2.1516
  164DOPC   C3919904   1.350   0.551  15.775  0.2601  0.1327  0.3296
  164DOPC   H9X19905   1.248   0.569  15.812  0.8143  0.3283  1.8204
  164DOPC  C31019906   1.369   0.492  15.659  0.2836  0.2250  0.0904
  164DOPC  H10X19907   1.278   0.468  15.603  1.4138 -1.0558 -1.2922
  164DOPC  C31119908   1.492   0.449  15.593  0.3621 -0.1702  0.4251
  164DOPC  H11X19909   1.518   0.341  15.598 -0.0061 -0.2179  1.6896
  164DOPC  H11Y19910   1.573   0.514  15.631 -1.2923  1.3875  1.4553
  164DOPC  C31219911   1.480   0.474  15.441  0.5907  0.3960  0.3063
  164DOPC  H12X19912   1.385   0.440  15.395 -0.3124  0.8179  1.7859
  164DOPC  H12Y19913   1.554   0.412  15.385 -2.5400 -0.6199 -3.1090
  164DOPC  C31319914   1.490   0.618  15.398 -0.3038 -0.1259  0.7704
  164DOPC  H13X19915   1.414   0.685  15.441 -0.3565 -0.3913  1.0925
  164DOPC  H13Y19916   1.592   0.660  15.413 -0.0063  0.5984 -2.5522
  164DOPC  C31419917   1.477   0.624  15.240  0.0525  0.3260  0.2914
  164DOPC  H14X19918   1.380   0.576  15.214 -0.7073  2.8711 -2.0739
  164DOPC  H14Y19919   1.559   0.560  15.199  0.1166  0.8738 -0.4680
  164DOPC  C31519920   1.473   0.762  15.182 -0.0379  0.0321  0.0046
  164DOPC  H15X19921   1.577   0.792  15.157 -0.2715  0.0066 -1.0331
  164DOPC  H15Y19922   1.436   0.833  15.260 -2.1861 -0.5772 -0.3829
  164DOPC  C31619923   1.377   0.784  15.058 -0.3650 -1.0328 -0.2511
  164DOPC  H16X19924   1.269   0.761  15.073 -1.2451  0.2018 -3.7266
  164DOPC  H16Y19925   1.366   0.894  15.046  0.7181 -0.8811  0.0732
  164DOPC  C31719926   1.420   0.710  14.937  0.0814 -0.1831  0.7163
  164DOPC  H17X19927   1.513   0.762  14.905 -0.6429  0.5894 -0.2402
  164DOPC  H17Y19928   1.443   0.604  14.960 -0.7532 -0.9532 -1.6871
  164DOPC  C31819929   1.308   0.706  14.832 -0.4934 -0.1043  0.4898
  164DOPC  H18X19930   1.212   0.681  14.882 -0.5156  0.6005  0.8079
  164DOPC  H18Y19931   1.303   0.805  14.782  0.9511  2.0905  4.2470
  164DOPC  H18Z19932   1.340   0.631  14.756  0.9224  1.4021 -0.4716
  165DOPC     N19933   5.828   0.854  16.954 -0.0384 -0.6069 -0.4966
  165DOPC   C1219934   5.731   0.976  16.950  0.4396 -0.1086 -0.2261
  165DOPC  H12A19935   5.792   1.048  16.897  0.9746 -1.0099 -0.8696
  165DOPC  H12B19936   5.723   1.027  17.045  2.5412  0.5511 -0.3630
  165DOPC   C1319937   5.845   0.800  16.816 -0.1302 -0.0971 -0.2755
  165DOPC  H13A19938   5.922   0.724  16.816 -0.3215 -0.4518 -3.7569
  165DOPC  H13B19939   5.749   0.765  16.779 -1.5324  1.4284  1.6912
  165DOPC  H13C19940   5.881   0.875  16.748 -1.3964  0.1363 -0.7267
  165DOPC   C1419941   5.779   0.756  17.054 -0.4948  0.1114  0.2531
  165DOPC  H14A19942   5.770   0.815  17.144 -1.7534  0.6567 -0.1979
  165DOPC  H14B19943   5.681   0.715  17.032  0.0507 -1.3074  0.3165
  165DOPC  H14C19944   5.855   0.680  17.066  0.0175  0.5334 -0.3038
  165DOPC   C1519945   5.966   0.896  17.001 -0.4576  0.5645  0.4908
  165DOPC  H15A19946   6.013   0.802  17.024  0.3402  0.6565 -0.6423
  165DOPC  H15B19947   5.967   0.963  17.086 -1.6210  0.8071  0.3388
  165DOPC  H15C19948   6.026   0.947  16.927 -0.7965 -2.3498 -1.9530
  165DOPC   C1119949   5.599   0.953  16.879 -0.2524 -0.6898 -0.4220
  165DOPC  H11A19950   5.533   1.036  16.912  0.1889  0.5070 -2.4085
  165DOPC  H11B19951   5.614   0.954  16.769  2.3846  0.3036 -0.1272
  165DOPC     P19952   5.396   0.787  16.853 -0.2285  0.0522 -0.3639
  165DOPC   O1319953   5.292   0.808  16.954  0.2375 -0.0355 -0.4116
  165DOPC   O1419954   5.410   0.654  16.795  1.0006  0.5204  0.1418
  165DOPC   O1219955   5.544   0.831  16.919 -0.2397 -0.3540 -0.6853
  165DOPC   O1119956   5.382   0.902  16.746 -0.5030 -0.2760  0.2750
  165DOPC    C119957   5.311   0.874  16.618  0.5997 -0.5758 -0.6702
  165DOPC    HA19958   5.263   0.961  16.569  0.0968  0.1962  1.1181
  165DOPC    HB19959   5.237   0.793  16.635  0.4792  0.0736  2.6704
  165DOPC    C219960   5.402   0.821  16.510  0.2780 -0.1329 -0.0753
  165DOPC    HS19961   5.464   0.738  16.551  3.2796  1.9534 -0.0400
  165DOPC   O2119962   5.485   0.926  16.468 -0.1124  0.3752 -0.2208
  165DOPC   C2119963   5.618   0.913  16.483 -0.3678  0.7509  0.1466
  165DOPC   O2219964   5.677   0.811  16.516  0.1566 -0.1484 -0.0124
  165DOPC   C2219965   5.686   1.048  16.462 -0.5875 -0.3403  0.0792
  165DOPC   H2R19966   5.731   1.072  16.560 -0.1659  0.6893 -0.3577
  165DOPC   H2S19967   5.617   1.133  16.443 -1.3001 -0.4780  1.8040
  165DOPC    C319968   5.323   0.762  16.386 -0.4124  0.2438  0.3130
  165DOPC    HX19969   5.269   0.847  16.339 -0.1120 -0.6642 -1.7745
  165DOPC    HY19970   5.244   0.692  16.421 -0.1675  1.3111  3.3706
  165DOPC   O3119971   5.420   0.710  16.286  0.2217  0.6740  0.0338
  165DOPC   C3119972   5.355   0.643  16.189  0.1945  0.0099  0.2173
  165DOPC   O3219973   5.235   0.623  16.176  0.3921 -0.2940  0.1551
  165DOPC   C3219974   5.462   0.586  16.091  0.7407  0.0673 -0.7277
  165DOPC   H2X19975   5.484   0.667  16.018  1.9197  2.5950  2.2057
  165DOPC   H2Y19976   5.551   0.561  16.153 -0.2285  0.9473  1.1029
  165DOPC   C2319977   5.794   1.050  16.351  0.5876  0.3727  0.0751
  165DOPC   H3R19978   5.856   0.959  16.368 -0.0921 -0.2087 -0.4783
  165DOPC   H3S19979   5.856   1.142  16.357  0.7390  0.2278  0.9149
  165DOPC   C2419980   5.725   1.048  16.211  0.0126 -0.3640 -0.6939
  165DOPC   H4R19981   5.660   1.138  16.200 -2.2010 -1.7764  0.1665
  165DOPC   H4S19982   5.658   0.960  16.215  1.2634 -1.3166 -0.2527
  165DOPC   C2519983   5.826   1.030  16.098  0.6148 -0.2301 -0.2178
  165DOPC   H5R19984   5.883   0.936  16.115 -1.1509 -1.0275  1.6421
  165DOPC   H5S19985   5.902   1.111  16.095  0.2169  0.1471 -0.1430
  165DOPC   C2619986   5.753   1.030  15.964  0.4630  0.2814  0.1146
  165DOPC   H6R19987   5.698   1.125  15.946  0.8916  0.3299 -1.0664
  165DOPC   H6S19988   5.676   0.952  15.977  1.3107 -0.2870  2.0675
  165DOPC   C2719989   5.848   1.005  15.842 -0.2029 -0.2525 -0.4450
  165DOPC   H7R19990   5.924   1.086  15.845  0.1887 -0.6295  1.8624
  165DOPC   H7S19991   5.785   1.007  15.751 -2.2028  0.6601  0.8931
  165DOPC   C2819992   5.913   0.863  15.845  0.3019 -0.5885  0.6574
  165DOPC   H8R19993   5.953   0.837  15.945 -2.1728 -4.5159  0.8247
  165DOPC   H8S19994   5.997   0.870  15.771  0.0328  2.2203  0.4934
  165DOPC   C2919995   5.818   0.747  15.811  0.5587 -0.3940  0.8769
  165DOPC   H9R19996   5.759   0.707  15.895  0.6204 -1.7062  0.3032
  165DOPC  C21019997   5.796   0.681  15.694 -0.2900 -0.0547  0.6143
  165DOPC  H10R19998   5.724   0.598  15.697 -1.0955  0.5814 -0.5326
  165DOPC  C21119999   5.882   0.707  15.574 -0.5791 -0.3451  0.0743
  165DOPC  H11R20000   5.900   0.615  15.514 -1.5659 -0.6211  0.1817
  165DOPC  H11S20001   5.982   0.750  15.598 -1.7612  1.3161  2.3992
  165DOPC  C21220002   5.803   0.801  15.484 -0.4586 -0.6038  0.1750
  165DOPC  H12R20003   5.758   0.882  15.546  1.1952  0.9003 -0.4763
  165DOPC  H12S20004   5.717   0.743  15.446 -1.2368 -0.7321  2.0191
  165DOPC  C21320005   5.883   0.887  15.390  0.6909  0.5214  0.7231
  165DOPC  H13R20006   5.975   0.930  15.434  1.6480  1.1028 -1.6993
  165DOPC  H13S20007   5.822   0.977  15.366  0.7057  0.0814 -1.1451
  165DOPC  C21420008   5.931   0.820  15.267 -0.4995 -0.2828  0.4060
  165DOPC  H14R20009   5.847   0.813  15.194  0.1248  1.7900 -0.5920
  165DOPC  H14S20010   5.984   0.726  15.294  0.1881 -0.2294 -0.6742
  165DOPC  C21520011   6.019   0.922  15.188  0.5194 -0.2766 -0.5005
  165DOPC  H15R20012   6.116   0.935  15.239  0.2167 -2.1989  0.6637
  165DOPC  H15S20013   5.967   1.014  15.154 -0.2476 -1.6297 -3.2882
  165DOPC  C21620014   6.064   0.852  15.061 -0.6874 -0.2416 -0.2462
  165DOPC  H16R20015   6.069   0.742  15.076  0.7646 -0.1230  0.2634
  165DOPC  H16S20016   6.167   0.885  15.036 -0.4422 -1.4233 -0.8745
  165DOPC  C21720017   5.967   0.901  14.941 -0.1438  0.1648 -0.2987
  165DOPC  H17R20018   5.950   1.010  14.928 -1.5716  0.1438  1.1368
  165DOPC  H17S20019   5.865   0.859  14.953 -1.4138  2.6281 -1.7073
  165DOPC  C21820020   6.034   0.842  14.808  0.5441  0.5226 -0.6409
  165DOPC  H18R20021   6.131   0.894  14.795 -0.0564  2.8420  2.7375
  165DOPC  H18S20022   5.980   0.868  14.714 -1.5818  0.6379  0.5561
  165DOPC  H18T20023   6.067   0.736  14.801 -0.1632 -0.0116  2.5823
  165DOPC   C3320024   5.424   0.463  16.005 -0.2179 -0.4296 -0.8362
  165DOPC   H3X20025   5.386   0.377  16.063 -0.9053 -0.7373 -1.7194
  165DOPC   H3Y20026   5.517   0.425  15.958  1.0905  0.2891  1.0462
  165DOPC   C3420027   5.322   0.490  15.894  0.2588 -0.5385  0.4522
  165DOPC   H4X20028   5.362   0.570  15.828  1.3475  0.0278  1.7457
  165DOPC   H4Y20029   5.238   0.538  15.949 -0.5005 -3.1878  1.7611
  165DOPC   C3520030   5.289   0.365  15.809 -0.6988 -0.2246  0.0857
  165DOPC   H5X20031   5.203   0.384  15.742  1.4308  1.2186 -2.4113
  165DOPC   H5Y20032   5.263   0.287  15.885 -0.5135  0.8148  1.2533
  165DOPC   C3620033   5.410   0.324  15.707 -0.0247 -0.3745  0.1064
  165DOPC   H6X20034   5.511   0.321  15.752  0.6498  0.5828 -1.2488
  165DOPC   H6Y20035   5.383   0.224  15.667 -2.1712  0.3995 -0.5283
  165DOPC   C3720036   5.428   0.416  15.582 -1.2285  0.3387 -0.2822
  165DOPC   H7X20037   5.498   0.497  15.612 -0.1325 -0.1024 -1.5487
  165DOPC   H7Y20038   5.331   0.463  15.553 -0.0687  1.7092 -2.1999
  165DOPC   C3820039   5.483   0.340  15.461  0.0973  0.4711 -0.0143
  165DOPC   H8X20040   5.441   0.392  15.372 -2.0688 -0.1493  0.5767
  165DOPC   H8Y20041   5.423   0.246  15.460  0.9907 -0.1073 -0.8739
  165DOPC   C3920042   5.634   0.323  15.459  0.7446  0.0045 -0.1183
  165DOPC   H9X20043   5.688   0.419  15.453 -0.6715  0.7648 -1.6296
  165DOPC  C31020044   5.712   0.209  15.483 -0.2819 -0.0063  0.6472
  165DOPC  H10X20045   5.821   0.217  15.484 -0.1847 -1.1588  0.9767
  165DOPC  C31120046   5.653   0.065  15.511  0.3715 -1.0490  0.6715
  165DOPC  H11X20047   5.678   0.004  15.422  2.6773 -0.9308  1.1850
  165DOPC  H11Y20048   5.542   0.078  15.517  0.6139  1.3655  0.6788
  165DOPC  C31220049   5.710  -0.004  15.635  0.4541 -0.3174  0.5997
  165DOPC  H12X20050   5.818   0.018  15.645 -0.1865  2.1245  3.7853
  165DOPC  H12Y20051   5.681  -0.111  15.630  0.1687 -0.1844 -0.8253
  165DOPC  C31320052   5.650   0.053  15.763 -0.6378  0.2770  0.4562
  165DOPC  H13X20053   5.700   0.151  15.779 -0.8823  0.7051 -1.1739
  165DOPC  H13Y20054   5.541   0.073  15.755 -0.3175  2.0269 -0.1095
  165DOPC  C31420055   5.673  -0.046  15.878  0.4476 -0.4404 -0.6344
  165DOPC  H14X20056   5.628  -0.014  15.974  1.7502  1.7436 -0.6857
  165DOPC  H14Y20057   5.611  -0.136  15.861  1.4615 -1.0940 -0.9631
  165DOPC  C31520058   5.816  -0.069  15.909 -0.6795  0.7613 -0.4490
  165DOPC  H15X20059   5.862   0.020  15.959 -1.1409 -0.2846  1.9499
  165DOPC  H15Y20060   5.870  -0.092  15.815 -0.2983 -0.4380  0.0439
  165DOPC  C31620061   5.840  -0.187  16.004  0.9977 -0.6410 -0.4042
  165DOPC  H16X20062   5.769  -0.263  15.965  0.2193  0.5958 -1.4463
  165DOPC  H16Y20063   5.942  -0.230  15.989  0.9555 -0.2135 -2.0817
  165DOPC  C31720064   5.805  -0.165  16.151  0.4665  0.4737  0.0491
  165DOPC  H17X20065   5.695  -0.151  16.155  0.8254  3.7984  2.4796
  165DOPC  H17Y20066   5.826  -0.259  16.207 -0.4383  0.8941  1.1303
  165DOPC  C31820067   5.868  -0.038  16.213 -0.0256  0.1683  0.5035
  165DOPC  H18X20068   5.977  -0.038  16.189 -0.7363 -0.0380 -3.3168
  165DOPC  H18Y20069   5.822   0.056  16.178  0.0285  0.1603  0.4095
  165DOPC  H18Z20070   5.866  -0.051  16.324  0.0087  1.3175  0.6469
  166DOPC     N20071   6.827   3.391  17.042  1.0710  0.7816 -0.1831
  166DOPC   C1220072   6.716   3.295  16.993 -0.4844 -0.0507  0.7654
  166DOPC  H12A20073   6.634   3.351  16.949 -0.1182 -0.3521 -0.3271
  166DOPC  H12B20074   6.665   3.248  17.077  0.8414 -1.0900  1.0127
  166DOPC   C1320075   6.924   3.319  17.130 -0.6086 -0.6929  0.1739
  166DOPC  H13A20076   6.960   3.230  17.080 -0.5569 -0.4289 -0.2637
  166DOPC  H13B20077   7.013   3.381  17.137 -0.7306  0.1258 -3.4775
  166DOPC  H13C20078   6.879   3.301  17.226 -0.7307  1.9490  0.6831
  166DOPC   C1420079   6.768   3.507  17.117 -0.2585  0.1419  0.0266
  166DOPC  H14A20080   6.732   3.468  17.211 -1.5577 -2.1247 -1.3235
  166DOPC  H14B20081   6.846   3.581  17.128  1.2846 -1.4023 -0.2163
  166DOPC  H14C20082   6.697   3.556  17.051  1.4244  2.2809 -0.3022
  166DOPC   C1520083   6.891   3.443  16.926  0.0971 -0.2623 -0.3049
  166DOPC  H15A20084   6.941   3.366  16.871  0.9896 -0.9975  1.4425
  166DOPC  H15B20085   6.968   3.514  16.952  0.6714 -0.5608 -1.1766
  166DOPC  H15C20086   6.821   3.498  16.864  2.2663  1.4205 -1.3962
  166DOPC   C1120087   6.758   3.188  16.894  0.0029  0.1282 -1.0055
  166DOPC  H11A20088   6.660   3.145  16.862 -0.3391 -0.4143  0.6709
  166DOPC  H11B20089   6.808   3.201  16.796  0.2078  1.2294 -0.7745
  166DOPC     P20090   6.765   2.977  17.058 -0.0412 -0.1953 -0.1266
  166DOPC   O1320091   6.655   3.042  17.135  0.2363  0.4723  0.2911
  166DOPC   O1420092   6.874   2.906  17.134  0.2264 -0.2120  0.7228
  166DOPC   O1220093   6.830   3.083  16.964  0.0785 -0.4695  0.1770
  166DOPC   O1120094   6.687   2.878  16.955 -0.4516  0.4532  0.2005
  166DOPC    C120095   6.754   2.765  16.901 -0.4754  0.0101 -0.0532
  166DOPC    HA20096   6.679   2.687  16.876 -1.7917  0.6623  1.6234
  166DOPC    HB20097   6.824   2.711  16.969 -0.4509 -2.0242 -1.5927
  166DOPC    C220098   6.816   2.792  16.762  0.1816 -0.1620  0.1661
  166DOPC    HS20099   6.902   2.861  16.770 -1.7936  2.7276 -1.6227
  166DOPC   O2120100   6.715   2.846  16.680  0.2083  0.3421 -0.0146
  166DOPC   C2120101   6.748   2.962  16.620  0.1713  0.4581  0.1628
  166DOPC   O2220102   6.864   3.002  16.615 -0.7208  0.2609 -0.0147
  166DOPC   C2220103   6.626   3.034  16.570 -0.3434  0.0417  0.9174
  166DOPC   H2R20104   6.573   3.076  16.659 -1.2012  0.4503  0.2280
  166DOPC   H2S20105   6.561   2.959  16.521 -0.2982 -0.4683  1.6166
  166DOPC    C320106   6.857   2.666  16.689  0.2198  0.2787 -0.0112
  166DOPC    HX20107   6.773   2.596  16.671  2.3735 -2.6567  0.5704
  166DOPC    HY20108   6.921   2.607  16.758  0.2583  0.0667 -0.2280
  166DOPC   O3120109   6.936   2.700  16.571  0.4188 -0.0292 -0.6179
  166DOPC   C3120110   6.865   2.702  16.460  0.2245 -0.5384 -0.4770
  166DOPC   O3220111   6.746   2.677  16.453  0.1246  0.2653  0.0677
  166DOPC   C3220112   6.953   2.727  16.342 -0.1520  0.4504  0.7441
  166DOPC   H2X20113   7.006   2.823  16.359  0.0708  0.4060  0.3209
  166DOPC   H2Y20114   7.028   2.645  16.329  1.6288  2.1277 -0.0120
  166DOPC   C2320115   6.654   3.146  16.469  0.5072 -0.2288  0.6351
  166DOPC   H3R20116   6.723   3.218  16.516  0.1993  0.3047  0.2779
  166DOPC   H3S20117   6.556   3.199  16.465  1.0348  0.7073 -0.0756
  166DOPC   C2420118   6.698   3.091  16.326  0.0489  0.0308 -0.8989
  166DOPC   H4R20119   6.634   3.007  16.292 -1.9095  0.5430  1.2583
  166DOPC   H4S20120   6.803   3.058  16.342  0.0038  0.2492 -0.1346
  166DOPC   C2520121   6.713   3.194  16.219 -0.2588  0.0523  0.4901
  166DOPC   H5R20122   6.791   3.161  16.148 -0.4665  0.1599  0.2119
  166DOPC   H5S20123   6.757   3.282  16.271 -0.3167  0.0117  0.6080
  166DOPC   C2620124   6.578   3.234  16.157  1.0000  0.4218 -0.6647
  166DOPC   H6R20125   6.590   3.331  16.105 -2.2367  0.3813 -1.7131
  166DOPC   H6S20126   6.500   3.248  16.234 -0.3197 -0.7746 -1.7165
  166DOPC   C2720127   6.535   3.127  16.056  0.6371 -0.1230  0.4252
  166DOPC   H7R20128   6.517   3.034  16.114 -0.6793 -0.9955 -1.2768
  166DOPC   H7S20129   6.614   3.090  15.987 -0.3441 -1.2112 -0.1633
  166DOPC   C2820130   6.408   3.153  15.975  0.1494  0.0095  0.5695
  166DOPC   H8R20131   6.319   3.163  16.040  0.0817  1.0568  0.3389
  166DOPC   H8S20132   6.394   3.068  15.905  2.3427  1.9340 -2.5029
  166DOPC   C2920133   6.432   3.283  15.897  0.6706 -0.4807  0.1526
  166DOPC   H9R20134   6.423   3.376  15.955  0.7033  0.0202 -0.6303
  166DOPC  C21020135   6.460   3.294  15.770  0.5189 -0.3139  0.3319
  166DOPC  H10R20136   6.452   3.396  15.728 -1.7420 -0.4172  0.3455
  166DOPC  C21120137   6.482   3.191  15.662  0.2646  0.7662  0.1967
  166DOPC  H11R20138   6.490   3.090  15.708  0.7171 -0.9388 -3.3168
  166DOPC  H11S20139   6.578   3.207  15.607 -0.4019  0.6190 -1.0342
  166DOPC  C21220140   6.377   3.183  15.547 -0.5611 -0.2980  0.2965
  166DOPC  H12R20141   6.425   3.127  15.464 -0.5361  0.7501 -0.4222
  166DOPC  H12S20142   6.346   3.282  15.508 -0.7724 -0.6536 -0.4525
  166DOPC  C21320143   6.259   3.104  15.589  0.4195  0.7322  0.4259
  166DOPC  H13R20144   6.195   3.155  15.665  0.3895  1.7861 -0.2848
  166DOPC  H13S20145   6.301   3.014  15.639  0.3680  1.7050  2.3530
  166DOPC  C21420146   6.172   3.061  15.476 -0.4320  0.2185 -0.5530
  166DOPC  H14R20147   6.104   2.976  15.495  0.5589 -1.0301 -2.3906
  166DOPC  H14S20148   6.228   3.021  15.390  1.3023  1.0684  0.1180
  166DOPC  C21520149   6.080   3.171  15.416  0.2257  0.2515 -0.0091
  166DOPC  H15R20150   6.136   3.262  15.385 -2.3606  2.0168  0.0759
  166DOPC  H15S20151   6.001   3.209  15.485  0.9720  2.6976 -0.3852
  166DOPC  C21620152   6.008   3.128  15.292  0.0960 -0.6408  1.0869
  166DOPC  H16R20153   5.938   3.209  15.264  1.2533 -0.3685 -1.3540
  166DOPC  H16S20154   5.946   3.038  15.311  0.2099 -0.8855  0.3634
  166DOPC  C21720155   6.096   3.105  15.163 -0.4276 -0.8262 -1.0154
  166DOPC  H17R20156   6.039   3.106  15.068  1.2063  1.0775 -2.0479
  166DOPC  H17S20157   6.141   3.003  15.166  1.1087 -0.1380  0.7114
  166DOPC  C21820158   6.225   3.193  15.151  0.1040 -0.4578  0.1186
  166DOPC  H18R20159   6.290   3.148  15.074  1.9318 -0.3611  1.5237
  166DOPC  H18S20160   6.282   3.187  15.246  0.4806  1.3066  0.0373
  166DOPC  H18T20161   6.208   3.300  15.124  0.5205 -0.4023  0.0629
  166DOPC   C3320162   6.885   2.750  16.211  0.5539  0.8584 -0.2204
  166DOPC   H3X20163   6.805   2.822  16.238 -0.0930 -1.3441  4.8124
  166DOPC   H3Y20164   6.832   2.659  16.175 -2.5868  2.3634  0.2199
  166DOPC   C3420165   6.967   2.800  16.091 -0.3623  0.4772 -0.2778
  166DOPC   H4X20166   7.041   2.719  16.076  1.6769  2.0946  0.5780
  166DOPC   H4Y20167   7.024   2.893  16.110 -0.6273  0.5472  0.2086
  166DOPC   C3520168   6.872   2.838  15.982  0.2157 -0.3069  0.3289
  166DOPC   H5X20169   6.801   2.917  16.015 -0.0500  0.7535 -2.5345
  166DOPC   H5Y20170   6.815   2.754  15.937 -1.3299  2.1281 -2.5939
  166DOPC   C3620171   6.942   2.898  15.857 -0.5847  0.9787  0.0367
  166DOPC   H6X20172   6.878   2.921  15.770 -0.8407 -0.2192 -0.1119
  166DOPC   H6Y20173   6.981   2.995  15.895  0.3373  0.5399  0.2508
  166DOPC   C3720174   7.055   2.811  15.802 -0.9649 -0.3553 -0.5089
  166DOPC   H7X20175   7.137   2.801  15.876 -0.4716 -2.1200 -1.2405
  166DOPC   H7Y20176   7.006   2.712  15.791 -0.2700 -1.1597  2.6590
  166DOPC   C3820177   7.104   2.854  15.667 -0.0496  0.1412  0.5972
  166DOPC   H8X20178   7.185   2.781  15.648  1.9194  2.6407 -1.2357
  166DOPC   H8Y20179   7.156   2.952  15.666 -0.0224  0.1230  0.3483
  166DOPC   C3920180   7.012   2.839  15.554  0.2597 -0.1264 -0.1203
  166DOPC   H9X20181   6.937   2.759  15.565 -0.1002  0.3839  1.3589
  166DOPC  C31020182   7.020   2.918  15.440  0.2440 -0.2129 -0.9712
  166DOPC  H10X20183   6.957   2.883  15.358  0.4222 -1.7032 -0.5109
  166DOPC  C31120184   7.120   3.026  15.408 -0.7261 -0.7597 -0.0693
  166DOPC  H11X20185   7.196   3.044  15.487 -0.2522 -1.2255 -0.4178
  166DOPC  H11Y20186   7.051   3.111  15.390 -0.2264 -0.3420 -0.0548
  166DOPC  C31220187   7.184   2.997  15.272  0.7685  0.0096 -0.6586
  166DOPC  H12X20188   7.256   3.080  15.257 -0.3976  1.4449  1.2635
  166DOPC  H12Y20189   7.091   3.001  15.211 -1.3520  1.1671  2.3799
  166DOPC  C31320190   7.249   2.859  15.271  0.0966  0.0379  0.1022
  166DOPC  H13X20191   7.178   2.779  15.301  1.3969 -0.7084  1.3262
  166DOPC  H13Y20192   7.277   2.824  15.169 -2.1307 -1.3671 -0.1154
  166DOPC  C31420193   7.374   2.847  15.363 -0.5341  0.4154  0.0116
  166DOPC  H14X20194   7.456   2.915  15.332  0.6273  0.4486  2.8216
  166DOPC  H14Y20195   7.343   2.861  15.469 -0.8800 -0.3592  0.0195
  166DOPC  C31520196   7.442   2.707  15.334 -1.0786 -0.0905  0.1565
  166DOPC  H15X20197   7.541   2.723  15.382 -1.0440  1.8645 -0.4699
  166DOPC  H15Y20198   7.454   2.700  15.224 -0.8637 -0.0393  0.1755
  166DOPC  C31620199   7.377   2.587  15.404 -1.2044 -1.1753 -0.1108
  166DOPC  H16X20200   7.357   2.619  15.509  0.3517 -0.4027 -0.0113
  166DOPC  H16Y20201   7.293   2.543  15.347 -1.7850  0.6901 -0.7615
  166DOPC  C31720202   7.480   2.475  15.408 -0.1999  0.2963 -0.0382
  166DOPC  H17X20203   7.584   2.515  15.412  0.7052 -1.6655 -2.0839
  166DOPC  H17Y20204   7.465   2.427  15.507 -2.9061 -0.4092 -0.7129
  166DOPC  C31820205   7.463   2.377  15.290 -0.7501  0.1725  0.0309
  166DOPC  H18X20206   7.367   2.321  15.291 -1.7087  1.7022 -1.4632
  166DOPC  H18Y20207   7.456   2.430  15.193  1.9523 -1.0254 -0.9119
  166DOPC  H18Z20208   7.549   2.306  15.282 -0.4620  0.3419  1.4071
  167DOPC     N20209   7.236   1.772  17.477 -0.4302  0.0546  0.2115
  167DOPC   C1220210   7.135   1.833  17.384  0.2956 -0.1378  0.1433
  167DOPC  H12A20211   7.166   1.935  17.366 -0.1602  0.2546  1.5161
  167DOPC  H12B20212   7.040   1.836  17.435  1.0861 -2.1264  1.8761
  167DOPC   C1320213   7.228   1.842  17.605 -0.6038  0.3906 -0.2817
  167DOPC  H13A20214   7.132   1.831  17.652 -0.1596  1.7238  1.0016
  167DOPC  H13B20215   7.304   1.793  17.664  0.0154  0.8863 -0.6419
  167DOPC  H13C20216   7.260   1.945  17.595 -1.2084  0.6492  0.4119
  167DOPC   C1420217   7.379   1.798  17.424  1.0001  0.0106  0.0913
  167DOPC  H14A20218   7.382   1.743  17.331 -1.9909  0.5069 -0.3781
  167DOPC  H14B20219   7.401   1.899  17.394  0.5817 -0.2380 -1.1079
  167DOPC  H14C20220   7.451   1.750  17.489  1.8377  1.1412  0.0253
  167DOPC   C1520221   7.218   1.624  17.497 -0.2781  0.7542  0.1223
  167DOPC  H15A20222   7.300   1.582  17.555 -1.1440 -2.5468 -0.8366
  167DOPC  H15B20223   7.232   1.565  17.408  1.0603  0.5359  0.4567
  167DOPC  H15C20224   7.120   1.595  17.533 -0.2926  2.3225  1.4358
  167DOPC   C1120225   7.099   1.761  17.253  0.2800  0.3277 -0.0752
  167DOPC  H11A20226   7.076   1.655  17.279  2.0383  0.3939  2.0564
  167DOPC  H11B20227   7.007   1.803  17.206 -0.7032 -0.2301  1.2890
  167DOPC     P20228   7.250   1.866  17.071 -0.0464 -0.1578 -0.0312
  167DOPC   O1320229   7.394   1.869  17.036 -0.1605 -0.3562  0.1493
  167DOPC   O1420230   7.197   1.997  17.125  0.2047 -0.0502 -0.2729
  167DOPC   O1220231   7.214   1.751  17.167 -0.1093  0.3751 -0.6035
  167DOPC   O1120232   7.161   1.829  16.947  0.0686 -0.2715  0.0191
  167DOPC    C120233   7.181   1.707  16.879 -0.0519 -0.0151  1.0792
  167DOPC    HA20234   7.095   1.677  16.816  1.7597 -1.3141 -0.9043
  167DOPC    HB20235   7.192   1.622  16.950 -1.3742 -0.5246  0.7166
  167DOPC    C220236   7.301   1.708  16.779 -0.6444 -0.1393 -0.5857
  167DOPC    HS20237   7.377   1.784  16.811 -0.2363 -0.5670 -0.5347
  167DOPC   O2120238   7.258   1.728  16.643  0.5788  0.2433  0.0909
  167DOPC   C2120239   7.256   1.855  16.597 -0.2577 -0.3840 -0.0302
  167DOPC   O2220240   7.319   1.951  16.637  0.2829  0.5941 -0.4610
  167DOPC   C2220241   7.153   1.863  16.480  0.0516 -0.0071  0.0233
  167DOPC   H2R20242   7.056   1.829  16.520  0.8352 -1.8887  0.4038
  167DOPC   H2S20243   7.189   1.792  16.403  3.2269 -0.2937  1.6124
  167DOPC    C320244   7.376   1.573  16.788  0.3618  0.4735  0.3135
  167DOPC    HX20245   7.299   1.496  16.765  0.3643  0.5090  0.1878
  167DOPC    HY20246   7.417   1.560  16.891 -0.2224 -3.0491  0.2265
  167DOPC   O3120247   7.484   1.568  16.689  0.2025 -0.2497 -0.0458
  167DOPC   C3120248   7.588   1.645  16.718 -0.5760  0.0439  0.0021
  167DOPC   O3220249   7.600   1.721  16.812 -0.1330 -0.6062  0.2839
  167DOPC   C3220250   7.690   1.634  16.602 -0.2341 -0.7426 -0.2168
  167DOPC   H2X20251   7.778   1.692  16.638 -0.9341  0.6552 -0.6922
  167DOPC   H2Y20252   7.729   1.532  16.583 -1.0053 -1.2316  0.7880
  167DOPC   C2320253   7.130   2.010  16.419 -0.1174  0.1111 -0.2272
  167DOPC   H3R20254   7.224   2.068  16.417 -0.3740  0.5126 -0.7026
  167DOPC   H3S20255   7.047   2.054  16.478 -1.1417 -1.1984 -0.6434
  167DOPC   C2420256   7.079   2.003  16.274 -0.6411 -0.7202  0.1708
  167DOPC   H4R20257   7.173   2.010  16.216 -1.3251 -0.1856 -0.8983
  167DOPC   H4S20258   7.019   2.096  16.264  1.1031  0.6348  1.5868
  167DOPC   C2520259   6.999   1.885  16.223  0.1937  0.3888 -0.0167
  167DOPC   H5R20260   6.908   1.873  16.285  0.3699 -0.1161  0.1456
  167DOPC   H5S20261   7.063   1.795  16.218  0.5261  0.6073  0.2445
  167DOPC   C2620262   6.945   1.903  16.076  0.4123  0.8445 -0.2376
  167DOPC   H6R20263   6.869   1.984  16.078  0.9135  1.3265  1.4265
  167DOPC   H6S20264   6.881   1.814  16.061  0.9098 -0.1881  2.9644
  167DOPC   C2720265   7.043   1.904  15.963 -0.0356 -0.0783  0.5473
  167DOPC   H7R20266   7.121   1.829  15.988  0.4920 -0.0298 -0.8863
  167DOPC   H7S20267   7.092   2.002  15.946  1.6579 -1.0564 -0.5066
  167DOPC   C2820268   6.972   1.871  15.832  0.1171  0.6845 -0.5041
  167DOPC   H8R20269   6.887   1.943  15.819 -2.3802 -1.7137  1.3490
  167DOPC   H8S20270   6.925   1.771  15.830  0.8909  0.2886  0.3690
  167DOPC   C2920271   7.073   1.882  15.712 -0.2975  0.1748 -0.0983
  167DOPC   H9R20272   7.174   1.842  15.729 -0.8943 -0.9246  1.0735
  167DOPC  C21020273   7.044   1.946  15.594 -0.4538 -0.2338  0.2639
  167DOPC  H10R20274   7.130   1.946  15.525  0.3681 -0.1230  1.2571
  167DOPC  C21120275   6.922   2.011  15.546  0.1790  0.2856 -0.3924
  167DOPC  H11R20276   6.929   2.119  15.574  0.2271  0.0800  0.4050
  167DOPC  H11S20277   6.830   1.970  15.592 -0.8126 -1.4517 -3.6372
  167DOPC  C21220278   6.888   1.993  15.399 -0.2684 -0.3689 -0.2715
  167DOPC  H12R20279   6.801   2.058  15.372  1.0744  1.6356  0.0361
  167DOPC  H12S20280   6.971   2.031  15.336  1.4696 -3.1778  0.1278
  167DOPC  C21320281   6.853   1.847  15.369 -0.0589  0.3476  0.4225
  167DOPC  H13R20282   6.788   1.805  15.449 -1.0383 -1.9543 -1.4667
  167DOPC  H13S20283   6.946   1.787  15.377  0.6876  1.0770 -2.1003
  167DOPC  C21420284   6.793   1.824  15.235  0.6360 -0.2221 -0.2769
  167DOPC  H14R20285   6.687   1.858  15.242  0.3896 -1.1519  0.7405
  167DOPC  H14S20286   6.782   1.715  15.220 -1.7403 -0.0753 -0.0019
  167DOPC  C21520287   6.877   1.881  15.120 -0.1437 -0.6092 -0.8983
  167DOPC  H15R20288   6.982   1.855  15.144 -0.4246 -1.2085 -0.3080
  167DOPC  H15S20289   6.857   1.991  15.114 -2.7125 -0.8419  1.3244
  167DOPC  C21620290   6.841   1.826  14.988  0.3836  0.2433 -0.1499
  167DOPC  H16R20291   6.820   1.718  15.002  3.4528 -0.2126  2.0523
  167DOPC  H16S20292   6.930   1.845  14.924  1.4606 -0.2786  1.1358
  167DOPC  C21720293   6.722   1.888  14.916 -0.2716 -0.1620  0.8475
  167DOPC  H17R20294   6.721   1.999  14.911  0.3451 -0.2036 -2.7188
  167DOPC  H17S20295   6.630   1.872  14.977 -0.5151  0.2663  0.5966
  167DOPC  C21820296   6.697   1.829  14.778  0.1546  0.4913 -0.4586
  167DOPC  H18R20297   6.592   1.856  14.755  0.0233 -0.3094 -0.8448
  167DOPC  H18S20298   6.711   1.719  14.783 -0.5099  0.4464  0.7676
  167DOPC  H18T20299   6.770   1.870  14.705 -0.1211  1.7412 -0.0479
  167DOPC   C3320300   7.639   1.697  16.473 -0.8059 -0.5591  0.9696
  167DOPC   H3X20301   7.721   1.750  16.421 -0.7345  0.4378  2.0531
  167DOPC   H3Y20302   7.555   1.764  16.499 -2.5599 -1.3162 -2.2406
  167DOPC   C3420303   7.593   1.587  16.378 -0.0763 -0.0041 -0.2816
  167DOPC   H4X20304   7.552   1.503  16.438  1.4268 -0.4120  0.2231
  167DOPC   H4Y20305   7.678   1.539  16.324 -0.0861 -0.6137  0.2271
  167DOPC   C3520306   7.503   1.630  16.262  0.4085 -0.0194  0.3596
  167DOPC   H5X20307   7.564   1.704  16.207  1.7139 -0.4882  1.1104
  167DOPC   H5Y20308   7.414   1.687  16.297 -0.4257 -0.3694 -1.1435
  167DOPC   C3620309   7.446   1.514  16.183  0.2047 -0.4694  0.0552
  167DOPC   H6X20310   7.519   1.439  16.144  0.9505  0.4791 -0.3997
  167DOPC   H6Y20311   7.399   1.448  16.259  0.6246  0.3238  1.0262
  167DOPC   C3720312   7.352   1.563  16.086 -0.2496  0.8199  0.4617
  167DOPC   H7X20313   7.265   1.605  16.141 -0.7736 -0.4541  0.6573
  167DOPC   H7Y20314   7.406   1.644  16.033 -0.7254  0.0560 -1.2482
  167DOPC   C3820315   7.298   1.457  15.987  0.3767 -0.2679 -0.1895
  167DOPC   H8X20316   7.246   1.387  16.055  1.1049  0.9034  1.6617
  167DOPC   H8Y20317   7.377   1.396  15.939 -0.2463 -0.3896 -1.0891
  167DOPC   C3920318   7.212   1.515  15.883  0.8489  0.6120  0.5256
  167DOPC   H9X20319   7.268   1.589  15.822  1.6500 -0.1467  0.3216
  167DOPC  C31020320   7.082   1.505  15.863  0.1270 -0.0412 -0.6634
  167DOPC  H10X20321   7.025   1.543  15.777 -2.3450 -2.4455 -0.2292
  167DOPC  C31120322   6.988   1.426  15.956 -0.6052  0.2308  0.4616
  167DOPC  H11X20323   7.036   1.344  16.014 -0.0241 -0.8750 -1.4816
  167DOPC  H11Y20324   6.916   1.373  15.889 -0.8542 -0.3088  1.1458
  167DOPC  C31220325   6.905   1.523  16.045 -0.1266  0.4973 -0.4924
  167DOPC  H12X20326   6.867   1.613  15.993 -1.2767  1.0266  1.1916
  167DOPC  H12Y20327   6.975   1.547  16.128 -1.0840 -0.1832  0.5471
  167DOPC  C31320328   6.781   1.451  16.102  0.2195 -0.0835 -0.0934
  167DOPC  H13X20329   6.716   1.428  16.015  0.6261 -1.5966 -0.0172
  167DOPC  H13Y20330   6.808   1.353  16.146  2.5908 -0.4541 -2.1754
  167DOPC  C31420331   6.707   1.533  16.210 -0.0628 -0.0962  0.4642
  167DOPC  H14X20332   6.766   1.549  16.303 -1.4289  1.5658  1.0903
  167DOPC  H14Y20333   6.691   1.634  16.168  1.6638 -0.0189 -0.1036
  167DOPC  C31520334   6.582   1.464  16.266  0.5682 -0.3779 -0.7557
  167DOPC  H15X20335   6.614   1.379  16.330 -1.9065 -0.1174  0.9870
  167DOPC  H15Y20336   6.524   1.429  16.177 -0.9936  1.4797 -0.5309
  167DOPC  C31620337   6.503   1.560  16.353 -0.2530 -0.7578  0.2188
  167DOPC  H16X20338   6.557   1.591  16.446  1.3665  2.7007 -1.6788
  167DOPC  H16Y20339   6.484   1.661  16.310 -0.8323 -0.3553  1.3738
  167DOPC  C31720340   6.372   1.501  16.396 -0.1723  0.3971 -0.1277
  167DOPC  H17X20341   6.311   1.465  16.310 -0.3307  0.7556 -0.1627
  167DOPC  H17Y20342   6.403   1.413  16.456  2.2375  0.0432 -1.7637
  167DOPC  C31820343   6.287   1.579  16.500 -0.5234  0.4354 -0.1455
  167DOPC  H18X20344   6.251   1.507  16.576 -1.2971 -1.4237 -2.1772
  167DOPC  H18Y20345   6.363   1.645  16.547  0.1792 -0.4758  0.0062
  167DOPC  H18Z20346   6.201   1.626  16.447  1.0023  1.3390 -1.9493
  168DOPC     N20347   1.522   0.880  16.905 -0.4311  0.7577  0.1373
  168DOPC   C1220348   1.656   0.937  16.863 -0.2416 -0.2983 -0.2074
  168DOPC  H12A20349   1.723   0.853  16.871  1.1995  0.8415  0.3282
  168DOPC  H12B20350   1.692   1.014  16.930  0.1348  1.6698 -2.5158
  168DOPC   C1320351   1.527   0.823  17.042 -0.4064 -0.7124  0.2589
  168DOPC  H13A20352   1.623   0.776  17.061 -0.9166 -1.3289  1.4922
  168DOPC  H13B20353   1.533   0.900  17.117  1.1858 -0.3023 -0.2498
  168DOPC  H13C20354   1.453   0.749  17.070  0.8890 -1.7594  1.0506
  168DOPC   C1420355   1.466   0.772  16.808 -0.9220  0.9345 -0.3918
  168DOPC  H14A20356   1.549   0.719  16.763  0.3878  1.9939  0.6574
  168DOPC  H14B20357   1.390   0.710  16.852 -1.1253  1.1966 -0.3721
  168DOPC  H14C20358   1.436   0.822  16.717  0.3150 -0.5945 -1.7202
  168DOPC   C1520359   1.426   0.988  16.911  0.4113 -0.2974 -0.2913
  168DOPC  H15A20360   1.461   1.074  16.966 -0.7187 -0.4811  0.7716
  168DOPC  H15B20361   1.340   0.953  16.967  0.0883 -0.2658 -0.7678
  168DOPC  H15C20362   1.400   1.016  16.810  4.8187  0.4781 -1.4205
  168DOPC   C1120363   1.675   0.999  16.717 -0.5744 -0.3293  0.1357
  168DOPC  H11A20364   1.608   1.086  16.697 -0.2662 -0.8402 -3.9730
  168DOPC  H11B20365   1.780   1.035  16.723 -0.8640  0.3764  1.5737
  168DOPC     P20366   1.776   0.822  16.569  0.4470 -0.0583  0.3341
  168DOPC   O1320367   1.735   0.693  16.509  0.0004  0.5164 -0.3121
  168DOPC   O1420368   1.874   0.813  16.676  0.1251 -0.5138 -0.1844
  168DOPC   O1220369   1.643   0.895  16.621 -0.6524 -0.0376  0.3331
  168DOPC   O1120370   1.840   0.916  16.459  0.3230 -0.0242 -0.7341
  168DOPC    C120371   1.749   0.977  16.368 -0.2967 -0.9481  0.1849
  168DOPC    HA20372   1.795   1.071  16.331 -0.8351 -0.4552  0.7669
  168DOPC    HB20373   1.651   0.996  16.416 -0.6496 -1.7748 -0.1915
  168DOPC    C220374   1.734   0.907  16.226  0.2112  0.6280 -1.1287
  168DOPC    HS20375   1.670   0.971  16.162 -0.7229 -0.1917 -1.0485
  168DOPC   O2120376   1.671   0.780  16.237  0.3792  0.4266 -0.5733
  168DOPC   C2120377   1.545   0.797  16.281  0.0147  1.0498  0.0522
  168DOPC   O2220378   1.488   0.901  16.278  0.8537 -0.2032  0.0330
  168DOPC   C2220379   1.484   0.667  16.326  0.0235  0.3241 -0.8857
  168DOPC   H2R20380   1.483   0.668  16.437  0.0244 -0.6909 -0.8614
  168DOPC   H2S20381   1.547   0.580  16.298  1.2648  0.9508 -0.1217
  168DOPC    C320382   1.877   0.893  16.166  0.0429 -0.3486  0.0317
  168DOPC    HX20383   1.914   0.801  16.215 -2.9363 -1.2638  0.8053
  168DOPC    HY20384   1.943   0.978  16.195  1.2755 -2.1456  2.9005
  168DOPC   O3120385   1.874   0.868  16.028  0.1674  0.9719 -0.3056
  168DOPC   C3120386   1.852   0.974  15.952  0.1407 -0.5692 -0.2993
  168DOPC   O3220387   1.852   1.090  15.993  0.7313  0.1264 -0.2234
  168DOPC   C3220388   1.822   0.944  15.798  0.3426 -0.3980  0.5831
  168DOPC   H2X20389   1.917   0.959  15.743 -0.7091 -0.6747 -1.4001
  168DOPC   H2Y20390   1.783   0.840  15.790 -0.2275 -0.1627  0.1842
  168DOPC   C2320391   1.339   0.655  16.261  1.1740 -0.0282  0.2991
  168DOPC   H3R20392   1.360   0.653  16.152 -0.4396 -0.6376 -0.0181
  168DOPC   H3S20393   1.266   0.733  16.291  0.5982 -0.6472  0.5207
  168DOPC   C2420394   1.260   0.524  16.298  0.6428 -0.8961  0.0261
  168DOPC   H4R20395   1.153   0.553  16.287  1.1721  1.0886 -0.4358
  168DOPC   H4S20396   1.280   0.480  16.397  1.9720 -1.2337 -0.3816
  168DOPC   C2520397   1.273   0.424  16.187 -0.1181 -0.3179  0.3519
  168DOPC   H5R20398   1.377   0.390  16.170 -0.3587 -0.2511 -1.4578
  168DOPC   H5S20399   1.252   0.476  16.091 -0.5719 -0.5460  0.3261
  168DOPC   C2620400   1.174   0.307  16.200  0.3985 -0.9008 -0.7004
  168DOPC   H6R20401   1.069   0.335  16.181  0.3372 -1.0878 -0.6427
  168DOPC   H6S20402   1.171   0.267  16.304 -4.0882  1.3211  0.2290
  168DOPC   C2720403   1.216   0.192  16.103 -0.0223  0.4546  0.4707
  168DOPC   H7R20404   1.146   0.106  16.098  2.2548 -1.5115  0.8671
  168DOPC   H7S20405   1.315   0.155  16.137  0.5299  0.3548 -1.1488
  168DOPC   C2820406   1.223   0.238  15.953 -0.6145 -0.1987  0.0864
  168DOPC   H8R20407   1.308   0.309  15.951 -0.6846 -0.1033  0.4774
  168DOPC   H8S20408   1.132   0.296  15.927 -0.1301  0.7888  0.5056
  168DOPC   C2920409   1.268   0.139  15.848  0.2586  0.1436  0.7088
  168DOPC   H9R20410   1.351   0.069  15.867  0.6220  0.3476 -0.1093
  168DOPC  C21020411   1.214   0.134  15.724 -0.6824 -0.0538 -0.3112
  168DOPC  H10R20412   1.237   0.048  15.660  0.5021  0.7373 -0.9869
  168DOPC  C21120413   1.120   0.229  15.659  0.4978 -0.1924 -0.8070
  168DOPC  H11R20414   1.132   0.329  15.706  0.7155 -1.1814  1.3952
  168DOPC  H11S20415   1.018   0.203  15.696  1.0586 -3.0894 -1.0721
  168DOPC  C21220416   1.139   0.243  15.509 -0.0749  0.2856 -0.5771
  168DOPC  H12R20417   1.108   0.159  15.443  1.8501 -2.9750  2.3241
  168DOPC  H12S20418   1.239   0.276  15.473 -0.1380  0.5494 -0.5152
  168DOPC  C21320419   1.050   0.358  15.453  0.3644  0.2347 -0.4570
  168DOPC  H13R20420   1.078   0.445  15.517 -1.9429 -1.4820  3.2558
  168DOPC  H13S20421   0.944   0.337  15.479  0.7060  2.5329  3.6134
  168DOPC  C21420422   1.086   0.403  15.309  0.6907 -0.2176  0.1718
  168DOPC  H14R20423   1.070   0.315  15.243 -3.8639  1.1494 -0.9013
  168DOPC  H14S20424   1.193   0.427  15.295  1.0116 -1.2599  0.7201
  168DOPC  C21520425   0.999   0.513  15.237 -0.7908 -0.2285 -0.1885
  168DOPC  H15R20426   1.049   0.567  15.153 -0.2181  0.4812  0.5971
  168DOPC  H15S20427   0.974   0.591  15.311  1.1330  1.9439 -1.6685
  168DOPC  C21620428   0.867   0.453  15.190  0.3530 -0.3870 -0.1058
  168DOPC  H16R20429   0.814   0.421  15.283  0.0139 -2.0953 -0.8524
  168DOPC  H16S20430   0.887   0.369  15.121 -1.8219 -0.0500 -1.2076
  168DOPC  C21720431   0.788   0.554  15.106 -0.6044  0.3264 -0.9008
  168DOPC  H17R20432   0.818   0.563  14.999  1.0105  0.5464 -0.4523
  168DOPC  H17S20433   0.794   0.656  15.151 -0.7284  0.3848 -1.0145
  168DOPC  C21820434   0.642   0.517  15.112 -0.5232 -0.2525 -0.0687
  168DOPC  H18R20435   0.585   0.588  15.048 -0.3126 -0.8711 -0.9602
  168DOPC  H18S20436   0.618   0.506  15.220  2.3832  0.7269  0.7595
  168DOPC  H18T20437   0.618   0.414  15.077 -2.1078  0.4520 -1.2135
  168DOPC   C3320438   1.717   1.036  15.735  0.3827 -0.0501  1.0055
  168DOPC   H3X20439   1.739   1.141  15.766  0.4025  0.6967 -1.3500
  168DOPC   H3Y20440   1.610   1.012  15.755 -0.2469  1.8740  0.1936
  168DOPC   C3420441   1.705   1.029  15.585 -0.3016  0.1732 -0.2939
  168DOPC   H4X20442   1.682   0.926  15.551 -0.8917  0.5649 -1.0887
  168DOPC   H4Y20443   1.808   1.049  15.548 -0.2490  0.1141 -0.1841
  168DOPC   C3520444   1.595   1.110  15.534  0.5604 -0.3761 -0.7824
  168DOPC   H5X20445   1.621   1.217  15.550 -0.7715 -0.1521  0.0553
  168DOPC   H5Y20446   1.500   1.099  15.589  1.6633 -0.1030  1.2652
  168DOPC   C3620447   1.574   1.092  15.381  0.2257 -0.2594  0.0389
  168DOPC   H6X20448   1.579   0.983  15.357  0.7163 -0.1201 -0.5202
  168DOPC   H6Y20449   1.470   1.119  15.354  0.3169 -1.8786 -2.2562
  168DOPC   C3720450   1.673   1.162  15.296 -0.7914  0.3406 -0.4680
  168DOPC   H7X20451   1.669   1.270  15.321  3.8019  0.4536  0.6452
  168DOPC   H7Y20452   1.778   1.147  15.328 -0.3413  4.0633  0.2524
  168DOPC   C3820453   1.658   1.142  15.139 -0.1926  0.2710  0.0596
  168DOPC   H8X20454   1.699   1.047  15.099  0.2808  0.8443 -0.8497
  168DOPC   H8Y20455   1.724   1.224  15.102  1.0104  0.4618  2.4063
  168DOPC   C3920456   1.518   1.149  15.093  1.1046 -0.0714 -0.3325
  168DOPC   H9X20457   1.459   1.068  15.138 -0.0335 -0.6260 -2.7096
  168DOPC  C31020458   1.458   1.244  15.017  0.1178 -0.4228 -0.4525
  168DOPC  H10X20459   1.356   1.219  14.984 -0.3838 -1.9102  2.0078
  168DOPC  C31120460   1.532   1.351  14.947 -0.1500 -0.6784 -0.6581
  168DOPC  H11X20461   1.635   1.359  14.988 -0.0609 -0.7737 -0.8602
  168DOPC  H11Y20462   1.488   1.450  14.970 -1.5905 -0.9020 -2.2722
  168DOPC  C31220463   1.534   1.324  14.797 -0.3657 -0.1289 -0.0735
  168DOPC  H12X20464   1.549   1.215  14.787  0.2099  0.0263 -1.0164
  168DOPC  H12Y20465   1.622   1.376  14.753 -0.1514  0.1017  0.6145
  168DOPC  C31320466   1.417   1.369  14.703  0.5576 -0.9615  0.5626
  168DOPC  H13X20467   1.436   1.335  14.599  0.1026 -1.2329  0.5662
  168DOPC  H13Y20468   1.323   1.330  14.746  0.1719  2.0955  2.8218
  168DOPC  C31420469   1.396   1.519  14.705 -0.0727 -0.5953  0.1758
  168DOPC  H14X20470   1.340   1.533  14.800 -1.0171 -3.1952  0.0820
  168DOPC  H14Y20471   1.494   1.571  14.716 -0.8078  0.5394  1.5759
  168DOPC  C31520472   1.311   1.586  14.589 -0.0472  0.2570 -0.1630
  168DOPC  H15X20473   1.211   1.615  14.629 -0.0371  1.0646 -0.7038
  168DOPC  H15Y20474   1.309   1.510  14.509 -0.9908  0.5835 -0.4667
  168DOPC  C31620475   1.377   1.716  14.533 -0.0816  0.2432  0.3024
  168DOPC  H16X20476   1.400   1.790  14.613  1.5436 -0.2901  0.3571
  168DOPC  H16Y20477   1.476   1.691  14.488  0.7353 -3.4877  3.5870
  168DOPC  C31720478   1.296   1.765  14.417  0.4972  0.4163  0.1465
  168DOPC  H17X20479   1.287   1.681  14.345 -0.6854  0.9537 -0.3557
  168DOPC  H17Y20480   1.189   1.790  14.430  0.0219 -0.7592 -1.2387
  168DOPC  C31820481   1.362   1.879  14.345  0.3161 -0.0940  0.0019
  168DOPC  H18X20482   1.354   1.974  14.402  4.5937 -0.3755  1.3889
  168DOPC  H18Y20483   1.470   1.869  14.323  0.1141 -0.6309 -0.7852
  168DOPC  H18Z20484   1.306   1.910  14.254 -1.1069  0.9301  1.1837
  169DOPC     N20485   0.745   0.820  17.286  0.5320 -0.2398  0.1455
  169DOPC   C1220486   0.650   0.927  17.231 -0.1137  0.1566  0.3358
  169DOPC  H12A20487   0.561   0.924  17.292  0.7738 -1.8715  1.5857
  169DOPC  H12B20488   0.620   0.900  17.130  0.0367  1.5708 -0.1159
  169DOPC   C1320489   0.658   0.693  17.295  0.3563 -0.3893 -0.2322
  169DOPC  H13A20490   0.635   0.658  17.196 -1.6281 -2.2605  0.7990
  169DOPC  H13B20491   0.714   0.622  17.354 -0.7780 -0.3775  0.9190
  169DOPC  H13C20492   0.565   0.720  17.344  0.3117  1.0523 -1.0526
  169DOPC   C1420493   0.810   0.848  17.413  0.1877 -0.0153  0.0583
  169DOPC  H14A20494   0.892   0.918  17.403  0.5812  0.0849  3.0521
  169DOPC  H14B20495   0.737   0.885  17.482 -0.5933  1.5636 -1.5410
  169DOPC  H14C20496   0.844   0.754  17.456 -1.4751 -0.4620  0.4573
  169DOPC   C1520497   0.852   0.790  17.190  0.3892  0.0652  0.5928
  169DOPC  H15A20498   0.812   0.768  17.092  0.5878 -1.9274  0.9072
  169DOPC  H15B20499   0.910   0.702  17.217 -1.2977 -1.3706 -0.2855
  169DOPC  H15C20500   0.922   0.872  17.183  0.4058  0.2088  2.1027
  169DOPC   C1120501   0.706   1.074  17.242  0.2911  0.4000 -0.2244
  169DOPC  H11A20502   0.631   1.139  17.192 -1.4103 -0.0774  1.6124
  169DOPC  H11B20503   0.702   1.106  17.348  1.2129  0.0439 -0.0670
  169DOPC     P20504   0.868   1.202  17.084 -0.0528 -0.2184  0.0968
  169DOPC   O1320505   0.999   1.178  17.022 -0.5144  0.0238  0.2195
  169DOPC   O1420506   0.837   1.335  17.140  0.1640 -0.4467 -0.0480
  169DOPC   O1220507   0.842   1.090  17.190  0.2431 -0.5261  0.3134
  169DOPC   O1120508   0.753   1.160  16.979 -0.3680  0.4294 -0.0179
  169DOPC    C120509   0.760   1.035  16.908 -0.0097 -0.0078 -0.0031
  169DOPC    HA20510   0.656   0.999  16.890 -0.5135  2.0341 -1.5238
  169DOPC    HB20511   0.811   0.952  16.960  1.2606  0.2806 -0.7429
  169DOPC    C220512   0.817   1.057  16.770  0.8796 -0.2485 -0.0489
  169DOPC    HS20513   0.919   1.096  16.791  0.0151  2.0987  0.0654
  169DOPC   O2120514   0.735   1.158  16.705  0.6078 -0.4677  0.0770
  169DOPC   C2120515   0.801   1.256  16.644  0.1446  0.5386 -0.1910
  169DOPC   O2220516   0.921   1.265  16.628  0.4043 -0.5946  0.1151
  169DOPC   C2220517   0.700   1.349  16.577 -0.7010  0.1796 -0.5294
  169DOPC   H2R20518   0.632   1.384  16.659 -0.8567  2.5606 -1.6021
  169DOPC   H2S20519   0.637   1.297  16.502 -0.1883  1.3753 -1.8289
  169DOPC    C320520   0.812   0.923  16.686 -0.8583  0.4050 -0.6191
  169DOPC    HX20521   0.712   0.877  16.700 -0.5838 -0.9837 -2.8660
  169DOPC    HY20522   0.889   0.856  16.728  1.6779  2.7643 -1.2076
  169DOPC   O3120523   0.830   0.959  16.541  0.4321  0.4286 -0.0557
  169DOPC   C3120524   0.960   0.971  16.515 -0.9167 -0.6878  0.5518
  169DOPC   O3220525   1.053   0.956  16.597 -0.5679 -0.6919 -0.3405
  169DOPC   C3220526   0.978   0.999  16.363 -0.3230 -0.5549  0.1578
  169DOPC   H2X20527   0.975   0.903  16.308 -0.0817 -0.5464  0.1316
  169DOPC   H2Y20528   0.891   1.061  16.333  0.1834 -0.5690 -1.4425
  169DOPC   C2320529   0.748   1.473  16.504 -0.0903  0.8215 -0.5335
  169DOPC   H3R20530   0.823   1.523  16.570  0.2048  0.7762 -0.8338
  169DOPC   H3S20531   0.669   1.551  16.499 -1.9588 -0.7789  1.9930
  169DOPC   C2420532   0.822   1.453  16.366  1.0188  0.2134  0.3321
  169DOPC   H4R20533   0.751   1.396  16.302  3.1053 -1.6062 -0.4694
  169DOPC   H4S20534   0.917   1.397  16.379  0.6190 -0.2135  1.4954
  169DOPC   C2520535   0.844   1.591  16.308 -0.0681  0.2792  0.0928
  169DOPC   H5R20536   0.904   1.659  16.373 -2.1541  2.4931 -0.1672
  169DOPC   H5S20537   0.745   1.640  16.321 -1.3024 -2.0295 -0.0107
  169DOPC   C2620538   0.874   1.594  16.154 -0.2456 -0.0829 -0.6194
  169DOPC   H6R20539   0.798   1.542  16.092 -1.0743 -0.4851  0.7138
  169DOPC   H6S20540   0.969   1.539  16.133 -0.6823 -0.2678 -2.2731
  169DOPC   C2720541   0.876   1.735  16.096  0.2832 -0.8114  0.5004
  169DOPC   H7R20542   0.963   1.797  16.123  0.8315 -0.5222 -1.7363
  169DOPC   H7S20543   0.782   1.794  16.107  1.2229  0.9885 -0.5917
  169DOPC   C2820544   0.880   1.725  15.940 -0.1200  0.5269  0.0967
  169DOPC   H8R20545   0.788   1.670  15.913 -0.1949 -0.7335  2.5847
  169DOPC   H8S20546   0.960   1.651  15.914  1.2109  0.3565  4.0111
  169DOPC   C2920547   0.894   1.855  15.875 -0.0712  0.0560 -0.1255
  169DOPC   H9R20548   0.927   1.935  15.943  1.4704  1.2152 -2.1648
  169DOPC  C21020549   0.887   1.883  15.747 -0.5324  0.0456 -0.4436
  169DOPC  H10R20550   0.904   1.984  15.708 -0.7980  1.4519  2.8145
  169DOPC  C21120551   0.857   1.779  15.645 -0.5650  0.4536 -0.7305
  169DOPC  H11R20552   0.867   1.678  15.689  0.7180  0.3294 -1.2347
  169DOPC  H11S20553   0.937   1.782  15.567 -0.1798  1.4093 -0.3155
  169DOPC  C21220554   0.722   1.798  15.573  0.2154  0.1892  0.0507
  169DOPC  H12R20555   0.639   1.824  15.641 -1.3234 -2.0057 -0.8851
  169DOPC  H12S20556   0.706   1.703  15.517  1.3883  0.4843 -0.8419
  169DOPC  C21320557   0.725   1.907  15.462 -0.5985  0.2058 -0.2759
  169DOPC  H13R20558   0.819   1.903  15.404 -1.2557 -0.3357 -1.3240
  169DOPC  H13S20559   0.720   2.004  15.517 -4.2237 -0.3910  0.7359
  169DOPC  C21420560   0.606   1.903  15.362  0.4568  0.2294  0.2156
  169DOPC  H14R20561   0.627   1.989  15.296 -0.1221  0.9309  0.9262
  169DOPC  H14S20562   0.516   1.918  15.425 -0.0291  0.0330 -0.4225
  169DOPC  C21520563   0.590   1.775  15.291 -0.3563 -0.1135 -0.7562
  169DOPC  H15R20564   0.579   1.687  15.358 -0.7065  0.7446  0.3350
  169DOPC  H15S20565   0.674   1.755  15.221 -1.2124  0.9769 -2.1664
  169DOPC  C21620566   0.469   1.766  15.195 -0.0108 -0.4838 -0.3898
  169DOPC  H16R20567   0.478   1.849  15.121  2.0704  1.0520  1.4563
  169DOPC  H16S20568   0.376   1.778  15.255 -1.1784 -2.6393 -1.6489
  169DOPC  C21720569   0.462   1.631  15.121  0.3583 -0.0276  1.0057
  169DOPC  H17R20570   0.365   1.608  15.072  0.5200 -0.0491  0.6947
  169DOPC  H17S20571   0.465   1.565  15.211  0.0603  0.7628  1.6114
  169DOPC  C21820572   0.576   1.606  15.017  0.3996 -0.1532  0.5197
  169DOPC  H18R20573   0.553   1.517  14.954 -0.0457  1.7867 -2.2234
  169DOPC  H18S20574   0.678   1.608  15.060  0.4642 -2.6134  0.6467
  169DOPC  H18T20575   0.566   1.689  14.944 -0.5387  1.1394  2.0677
  169DOPC   C3320576   1.108   1.066  16.322  0.5987 -0.7287  0.0003
  169DOPC   H3X20577   1.200   1.009  16.348  3.6848  2.8795 -1.9765
  169DOPC   H3Y20578   1.109   1.165  16.373 -0.2405 -0.9909  0.5425
  169DOPC   C3420579   1.125   1.096  16.170  0.2306  0.6172  0.2359
  169DOPC   H4X20580   1.128   1.002  16.112 -2.2018 -0.4879  1.7153
  169DOPC   H4Y20581   1.221   1.150  16.161 -0.0076  1.2700  1.3138
  169DOPC   C3520582   1.011   1.188  16.118  0.3067  0.0270 -0.3033
  169DOPC   H5X20583   0.996   1.276  16.183  0.9361 -0.1323  0.0570
  169DOPC   H5Y20584   0.920   1.125  16.106  0.6919 -1.0471  2.0513
  169DOPC   C3620585   1.037   1.244  15.976  0.4701  0.4989  0.1367
  169DOPC   H6X20586   1.114   1.324  15.981  0.9360  0.1496 -1.1959
  169DOPC   H6Y20587   1.071   1.160  15.912 -2.3657 -0.1034 -0.7081
  169DOPC   C3720588   0.915   1.316  15.916 -0.4118  0.2775 -0.3758
  169DOPC   H7X20589   0.836   1.240  15.897  0.3319 -1.4369  2.6517
  169DOPC   H7Y20590   0.883   1.407  15.971  0.1305  1.4934 -2.0265
  169DOPC   C3820591   0.954   1.366  15.779 -0.0057  0.5277  0.5771
  169DOPC   H8X20592   1.033   1.443  15.790 -1.1850  2.0564 -1.1460
  169DOPC   H8Y20593   0.865   1.419  15.739 -1.7078 -0.2805  3.0414
  169DOPC   C3920594   0.986   1.254  15.683 -0.0925  0.9603  0.6451
  169DOPC   H9X20595   0.911   1.173  15.683 -0.6470  1.4576 -0.5108
  169DOPC  C31020596   1.090   1.245  15.593 -0.0843  0.7096 -0.5046
  169DOPC  H10X20597   1.110   1.156  15.532  1.4256  2.3046 -2.4895
  169DOPC  C31120598   1.195   1.349  15.579  0.2657  0.1243  0.4017
  169DOPC  H11X20599   1.298   1.307  15.571  1.4017  2.9971 -1.6888
  169DOPC  H11Y20600   1.192   1.420  15.664  0.5257 -2.2098  2.4553
  169DOPC  C31220601   1.174   1.449  15.464  0.5881 -0.4666 -0.0347
  169DOPC  H12X20602   1.157   1.387  15.374 -0.8805  0.2370 -0.2709
  169DOPC  H12Y20603   1.259   1.517  15.444  0.6196 -0.1509  1.1123
  169DOPC  C31320604   1.055   1.543  15.476  0.3755 -0.7933  0.7586
  169DOPC  H13X20605   0.973   1.470  15.488  0.8943 -1.6083 -0.4056
  169DOPC  H13Y20606   1.069   1.600  15.570 -1.3558 -0.3275  0.7568
  169DOPC  C31420607   1.037   1.642  15.355  0.1878 -0.3083  0.0425
  169DOPC  H14X20608   0.966   1.726  15.372  0.5390  0.4176 -1.7864
  169DOPC  H14Y20609   1.127   1.708  15.359 -0.7677  1.0020  0.8368
  169DOPC  C31520610   1.008   1.585  15.216 -0.0699  0.1859  0.6055
  169DOPC  H15X20611   0.934   1.503  15.215  1.7767 -1.5989  2.1477
  169DOPC  H15Y20612   1.099   1.535  15.178 -0.8482 -0.9981  0.2645
  169DOPC  C31620613   0.997   1.703  15.117  0.1355  0.3778  0.1414
  169DOPC  H16X20614   0.959   1.661  15.021  0.7756 -2.7421  1.1540
  169DOPC  H16Y20615   0.919   1.769  15.158  0.1050  1.4011 -1.4538
  169DOPC  C31720616   1.129   1.768  15.067 -0.4921 -0.0670 -0.0568
  169DOPC  H17X20617   1.188   1.799  15.155  1.3438 -2.5489 -0.3166
  169DOPC  H17Y20618   1.201   1.699  15.019 -0.3099  1.5136 -2.2528
  169DOPC  C31820619   1.112   1.884  14.973  0.1044 -0.3038  0.2495
  169DOPC  H18X20620   1.115   1.849  14.867 -1.5673 -1.6550  0.6021
  169DOPC  H18Y20621   1.018   1.941  14.985 -0.6512 -0.4450 -3.6132
  169DOPC  H18Z20622   1.192   1.959  14.991  0.0401 -0.0615 -0.4184
  170DOPC     N20623   6.233   0.152  17.294  0.4693 -0.5589 -0.4482
  170DOPC   C1220624   6.245   0.257  17.192  0.0903 -0.0302  0.2232
  170DOPC  H12A20625   6.333   0.315  17.215 -1.2709  1.6730  1.3942
  170DOPC  H12B20626   6.183   0.345  17.204 -0.5044 -0.5229  0.8308
  170DOPC   C1320627   6.188   0.210  17.429 -0.2701  0.3819 -0.3960
  170DOPC  H13A20628   6.095   0.264  17.418  0.2104  0.7357 -3.9589
  170DOPC  H13B20629   6.187   0.128  17.499  3.2320  0.7888  0.2900
  170DOPC  H13C20630   6.262   0.273  17.475  0.7318 -1.4491  0.6030
  170DOPC   C1420631   6.368   0.084  17.315 -0.9852  0.6478 -0.2813
  170DOPC  H14A20632   6.355  -0.002  17.379  0.9909 -2.1685 -3.3347
  170DOPC  H14B20633   6.414   0.058  17.221  0.1581  1.2506  0.0874
  170DOPC  H14C20634   6.429   0.147  17.377 -2.1801  0.2378  1.3850
  170DOPC   C1520635   6.125   0.050  17.259 -0.3173 -0.1628  0.3503
  170DOPC  H15A20636   6.144   0.008  17.161 -0.6196  0.5944 -0.0410
  170DOPC  H15B20637   6.028   0.098  17.256 -0.2630 -0.0169  0.9153
  170DOPC  H15C20638   6.117  -0.030  17.331  1.3607  1.3428  2.3297
  170DOPC   C1120639   6.248   0.219  17.040 -0.2510  0.0144 -0.2140
  170DOPC  H11A20640   6.154   0.166  17.013 -0.1846 -0.1115 -0.1935
  170DOPC  H11B20641   6.253   0.313  16.981  0.3347  0.8480  1.1238
  170DOPC     P20642   6.356  -0.010  16.946 -0.0877  0.0960 -0.0333
  170DOPC   O1320643   6.227  -0.077  16.981  0.2183 -0.5940  0.4413
  170DOPC   O1420644   6.478  -0.082  16.996  0.3398  0.1696  0.1850
  170DOPC   O1220645   6.357   0.136  17.002  0.1049 -0.0159 -0.1303
  170DOPC   O1120646   6.360   0.014  16.784  0.1036 -0.0832 -0.1998
  170DOPC    C120647   6.389   0.146  16.732  0.1857 -0.2771  1.4435
  170DOPC    HA20648   6.444   0.219  16.795  2.0699 -2.1893  2.1315
  170DOPC    HB20649   6.298   0.203  16.704 -0.8018 -2.4849 -0.1051
  170DOPC    C220650   6.479   0.138  16.604 -0.5070  0.1008  0.6128
  170DOPC    HS20651   6.489   0.236  16.553  1.9088 -0.1270  0.5320
  170DOPC   O2120652   6.411   0.032  16.521 -0.2686 -0.6073  0.6525
  170DOPC   C2120653   6.339   0.087  16.418  0.0390  0.2380 -0.2457
  170DOPC   O2220654   6.312   0.203  16.408 -0.4083 -0.4983  0.3209
  170DOPC   C2220655   6.291  -0.026  16.325 -0.3990 -0.3713 -0.4030
  170DOPC   H2R20656   6.181  -0.023  16.332 -0.3902  0.2448 -0.4724
  170DOPC   H2S20657   6.327  -0.122  16.367 -0.9153 -0.1399  0.5959
  170DOPC    C320658   6.624   0.091  16.647  0.5802 -0.6536 -0.4321
  170DOPC    HX20659   6.623  -0.006  16.701  2.1098 -0.9940 -0.9749
  170DOPC    HY20660   6.672   0.163  16.717  1.3101 -1.6949  0.1618
  170DOPC   O3120661   6.710   0.089  16.536  0.2514  0.3478  0.1900
  170DOPC   C3120662   6.835   0.070  16.572 -0.5775 -0.3249  0.1501
  170DOPC   O3220663   6.876   0.049  16.687  0.2755 -1.0646 -0.1326
  170DOPC   C3220664   6.931   0.061  16.449  0.2965 -0.2320 -0.1892
  170DOPC   H2X20665   6.955  -0.046  16.431  3.0343  0.6139 -2.1417
  170DOPC   H2Y20666   6.876   0.108  16.365  0.3292 -0.8273 -0.5506
  170DOPC   C2320667   6.342  -0.013  16.180  0.0060  0.6593  0.3399
  170DOPC   H3R20668   6.294   0.077  16.137 -1.5312  0.9834  2.5346
  170DOPC   H3S20669   6.319  -0.113  16.137  0.5608  0.7825 -0.2464
  170DOPC   C2420670   6.500   0.009  16.180 -0.0586 -0.0061 -0.3064
  170DOPC   H4R20671   6.568  -0.069  16.220 -0.4917 -1.1403 -1.7044
  170DOPC   H4S20672   6.519   0.104  16.234  1.1110 -1.4766  2.0547
  170DOPC   C2520673   6.557   0.021  16.043 -0.6170 -0.4486  0.3322
  170DOPC   H5R20674   6.511   0.109  15.992 -1.1978  0.8841  2.9756
  170DOPC   H5S20675   6.520  -0.068  15.988 -0.6025  0.3053 -0.9579
  170DOPC   C2620676   6.706   0.023  16.047 -0.3893  0.1706  0.0636
  170DOPC   H6R20677   6.748  -0.079  16.067  0.7951  0.5242 -0.5126
  170DOPC   H6S20678   6.731   0.094  16.129  0.2792  1.1133 -0.9387
  170DOPC   C2720679   6.757   0.056  15.910  0.2074 -0.4778  0.0606
  170DOPC   H7R20680   6.695   0.139  15.871  2.2033  0.4796 -1.2578
  170DOPC   H7S20681   6.733  -0.027  15.841 -0.7744 -1.0803  1.0966
  170DOPC   C2820682   6.910   0.095  15.907  0.0311 -0.2748 -0.2517
  170DOPC   H8R20683   6.926   0.184  15.971 -1.8414 -0.1440  0.1074
  170DOPC   H8S20684   6.936   0.122  15.802  2.6010 -1.0094  0.1374
  170DOPC   C2920685   6.991  -0.022  15.959  0.0481  0.0052  0.5060
  170DOPC   H9R20686   6.974  -0.070  16.056 -1.6783 -2.3452 -0.8523
  170DOPC  C21020687   7.109  -0.077  15.909  0.4774 -0.2916 -0.4097
  170DOPC  H10R20688   7.161  -0.149  15.974 -2.3577  0.7339  3.3737
  170DOPC  C21120689   7.176  -0.036  15.775  0.6324 -0.2264 -0.4942
  170DOPC  H11R20690   7.285  -0.031  15.797  0.8102  0.0231 -1.4195
  170DOPC  H11S20691   7.145   0.068  15.751 -0.4803 -0.0685  1.3947
  170DOPC  C21220692   7.149  -0.110  15.649 -0.2432  0.5763 -0.0316
  170DOPC  H12R20693   7.163  -0.046  15.559  0.7224 -1.6858 -1.5723
  170DOPC  H12S20694   7.042  -0.141  15.649 -0.9032  2.6360  0.2644
  170DOPC  C21320695   7.248  -0.234  15.643 -0.0253  0.1073 -0.5077
  170DOPC  H13R20696   7.240  -0.272  15.747  0.8761  0.5009 -0.2872
  170DOPC  H13S20697   7.351  -0.195  15.635 -0.0708  0.1742 -0.7778
  170DOPC  C21420698   7.221  -0.335  15.529 -0.6320 -1.0810  0.2012
  170DOPC  H14R20699   7.112  -0.344  15.513 -0.2816  0.1470 -4.0072
  170DOPC  H14S20700   7.270  -0.432  15.554  1.7792 -0.1017 -0.4408
  170DOPC  C21520701   7.272  -0.261  15.400  0.6700 -0.1230 -0.4019
  170DOPC  H15R20702   7.380  -0.239  15.411  0.2364  1.5138  1.1053
  170DOPC  H15S20703   7.221  -0.162  15.401 -1.2492 -1.0751  1.0156
  170DOPC  C21620704   7.243  -0.344  15.279  0.0073 -0.2580 -0.3873
  170DOPC  H16R20705   7.135  -0.366  15.271 -0.9888  2.6968  2.5756
  170DOPC  H16S20706   7.294  -0.441  15.296 -2.7378 -1.3849  2.3465
  170DOPC  C21720707   7.297  -0.278  15.149  1.0613  0.5064 -0.1975
  170DOPC  H17R20708   7.405  -0.261  15.167  1.4415 -1.2679 -0.5772
  170DOPC  H17S20709   7.235  -0.187  15.136  1.5173  0.8526  0.0049
  170DOPC  C21820710   7.275  -0.372  15.029  0.8566  0.3037  0.1070
  170DOPC  H18R20711   7.340  -0.460  15.049  0.9671  0.4458  0.3847
  170DOPC  H18S20712   7.307  -0.325  14.934  2.7526 -3.0324 -1.0500
  170DOPC  H18T20713   7.173  -0.415  15.021  1.3870 -0.6137 -2.9424
  170DOPC   C3320714   7.065   0.133  16.477 -0.2676 -0.2631 -0.5417
  170DOPC   H3X20715   7.128   0.078  16.551 -0.3280  0.9994  0.4828
  170DOPC   H3Y20716   7.051   0.236  16.515  0.8848 -0.9374  1.9506
  170DOPC   C3420717   7.152   0.126  16.352  0.0943  0.1139  0.3175
  170DOPC   H4X20718   7.166   0.018  16.328 -0.1318  0.5300 -1.9468
  170DOPC   H4Y20719   7.256   0.155  16.377  1.1918  0.9074 -4.2648
  170DOPC   C3520720   7.123   0.222  16.236  0.5223 -0.0598  0.4634
  170DOPC   H5X20721   7.108   0.327  16.270 -0.1472  0.4516 -1.2510
  170DOPC   H5Y20722   7.027   0.198  16.185  2.2352 -0.4739 -2.8232
  170DOPC   C3620723   7.227   0.226  16.126  0.2343  0.0117  0.6858
  170DOPC   H6X20724   7.323   0.260  16.171 -0.0392 -0.0020  1.2990
  170DOPC   H6Y20725   7.240   0.121  16.092  0.6645 -0.3611  1.9537
  170DOPC   C3720726   7.193   0.331  16.020 -1.0377  0.0663 -0.2644
  170DOPC   H7X20727   7.096   0.297  15.977 -1.4074  1.0282 -0.2145
  170DOPC   H7Y20728   7.177   0.430  16.068  1.2877 -0.5869  2.1028
  170DOPC   C3820729   7.304   0.326  15.912  0.5789 -0.0135  0.5996
  170DOPC   H8X20730   7.284   0.393  15.825  0.3155 -0.2730  0.4559
  170DOPC   H8Y20731   7.306   0.223  15.870 -1.2668 -0.3250  1.1636
  170DOPC   C3920732   7.441   0.361  15.959 -0.1432  0.1495 -0.5890
  170DOPC   H9X20733   7.495   0.278  16.007 -2.8823 -0.0104  2.5516
  170DOPC  C31020734   7.503   0.482  15.952 -0.6986 -0.5617  0.3003
  170DOPC  H10X20735   7.612   0.488  15.964 -0.4810 -0.7915 -1.3223
  170DOPC  C31120736   7.442   0.607  15.888 -0.1235  0.0197  0.5173
  170DOPC  H11X20737   7.462   0.681  15.969  0.0401 -0.7677  1.2096
  170DOPC  H11Y20738   7.335   0.604  15.857 -0.0164  0.4903  0.0899
  170DOPC  C31220739   7.517   0.653  15.768  1.3798  0.3502 -0.2496
  170DOPC  H12X20740   7.624   0.677  15.782  2.4768 -2.0810 -3.2564
  170DOPC  H12Y20741   7.476   0.753  15.742  1.7898  0.3155 -1.0595
  170DOPC  C31320742   7.513   0.569  15.639 -0.5976 -0.2561 -0.0710
  170DOPC  H13X20743   7.586   0.487  15.657 -0.1902  0.1686  0.2358
  170DOPC  H13Y20744   7.413   0.522  15.628 -1.1660  0.6401  1.0537
  170DOPC  C31420745   7.541   0.663  15.521 -0.1167 -1.5176  0.5181
  170DOPC  H14X20746   7.491   0.763  15.521 -1.2612 -2.0718  0.2642
  170DOPC  H14Y20747   7.647   0.695  15.531 -0.8085  1.8209 -1.0526
  170DOPC  C31520748   7.517   0.595  15.385 -0.1486  0.2864 -0.0295
  170DOPC  H15X20749   7.428   0.533  15.407  0.0754 -0.1094 -0.2204
  170DOPC  H15Y20750   7.598   0.519  15.385  1.6776  2.1403 -0.1505
  170DOPC  C31620751   7.476   0.678  15.270 -0.8967 -0.0627  0.1945
  170DOPC  H16X20752   7.559   0.745  15.240  0.5527 -2.2589 -0.9836
  170DOPC  H16Y20753   7.450   0.611  15.185 -2.2852  0.6469  0.0318
  170DOPC  C31720754   7.339   0.754  15.284  0.3356  0.6392 -0.5317
  170DOPC  H17X20755   7.259   0.685  15.321  1.3597 -0.9775 -1.2056
  170DOPC  H17Y20756   7.343   0.834  15.360 -0.6171  0.5457 -0.3658
  170DOPC  C31820757   7.273   0.812  15.160  0.4383  0.4409 -0.3164
  170DOPC  H18X20758   7.293   0.740  15.078 -1.1933  0.1079 -0.4376
  170DOPC  H18Y20759   7.166   0.829  15.183  0.8624 -0.9028  3.4634
  170DOPC  H18Z20760   7.316   0.914  15.148  2.4197  0.0520  2.4365
  171DOPC     N20761   3.722   4.158  12.803  0.5512 -0.2788  0.0291
  171DOPC   C1220762   3.706   4.045  12.912 -0.1424 -0.0262  0.6483
  171DOPC  H12A20763   3.690   3.953  12.856  3.7695 -0.4767  0.0234
  171DOPC  H12B20764   3.619   4.075  12.969 -0.1071  0.5071  0.4295
  171DOPC   C1320765   3.741   4.288  12.878 -0.2728  0.3731  0.3051
  171DOPC  H13A20766   3.755   4.373  12.813  0.5436 -0.4539 -0.6137
  171DOPC  H13B20767   3.649   4.312  12.931 -0.8249  1.7429 -1.1754
  171DOPC  H13C20768   3.817   4.275  12.954 -1.0280 -1.1081  0.8592
  171DOPC   C1420769   3.594   4.161  12.710  0.0065 -0.4352  0.0165
  171DOPC  H14A20770   3.523   4.203  12.780 -0.0322 -1.4226  0.5919
  171DOPC  H14B20771   3.595   4.229  12.627 -1.5069  0.2251  0.5064
  171DOPC  H14C20772   3.557   4.064  12.681  1.3953 -1.1644  0.5841
  171DOPC   C1520773   3.839   4.127  12.716 -0.3617 -0.1970 -0.3415
  171DOPC  H15A20774   3.820   4.038  12.657  0.2323  0.1272 -1.0365
  171DOPC  H15B20775   3.927   4.105  12.774 -1.0506  2.3473  1.8604
  171DOPC  H15C20776   3.874   4.205  12.649  0.5615 -0.2341  0.0904
  171DOPC   C1120777   3.829   4.027  13.005  0.2824 -0.4957 -0.0603
  171DOPC  H11A20778   3.847   4.125  13.053 -1.9717  0.3832 -0.8530
  171DOPC  H11B20779   3.798   3.965  13.092 -1.0780  2.0195  1.3572
  171DOPC     P20780   3.966   3.843  12.883 -0.0055 -0.0257  0.0068
  171DOPC   O1320781   4.079   3.854  12.784  0.6184 -0.1317 -0.6563
  171DOPC   O1420782   3.847   3.767  12.843  0.1191 -0.3702  0.0654
  171DOPC   O1220783   3.946   3.985  12.943 -0.5433  0.3514 -0.2388
  171DOPC   O1120784   4.018   3.759  13.009  0.3361  0.2460  0.0439
  171DOPC    C120785   3.950   3.661  13.087  0.5995 -0.4626  0.5646
  171DOPC    HA20786   4.006   3.567  13.068  3.7387  1.8608 -3.1837
  171DOPC    HB20787   3.844   3.654  13.055 -0.1336 -0.1820  2.7663
  171DOPC    C220788   3.940   3.701  13.233 -0.1694 -0.1645 -0.4118
  171DOPC    HS20789   3.893   3.802  13.230 -0.8234 -0.4807 -2.1411
  171DOPC   O2120790   4.073   3.697  13.293  0.4423  0.2381 -0.1835
  171DOPC   C2120791   4.088   3.777  13.396  0.1844  0.1884 -0.0958
  171DOPC   O2220792   4.009   3.861  13.432  0.2453  0.2430 -0.3791
  171DOPC   C2220793   4.223   3.751  13.470 -0.2934  0.7349 -0.3989
  171DOPC   H2R20794   4.240   3.826  13.550  1.4850  2.3966 -2.2098
  171DOPC   H2S20795   4.299   3.760  13.390  0.7246 -0.6468  0.3584
  171DOPC    C320796   3.853   3.598  13.305  0.5371 -0.1029 -0.4870
  171DOPC    HX20797   3.905   3.500  13.307  0.1435 -0.3128 -0.5119
  171DOPC    HY20798   3.755   3.584  13.254 -0.6463 -1.0444  1.8858
  171DOPC   O3120799   3.837   3.634  13.444 -0.3941 -0.2415  0.6459
  171DOPC   C3120800   3.723   3.690  13.476 -0.6099  0.4886  0.3698
  171DOPC   O3220801   3.636   3.730  13.400  0.3473  0.2030  0.4508
  171DOPC   C3220802   3.715   3.679  13.625  0.1426  0.3472  0.3916
  171DOPC   H2X20803   3.733   3.574  13.657 -0.0908  0.1773 -0.0274
  171DOPC   H2Y20804   3.796   3.741  13.670 -0.4029  0.0722  1.8285
  171DOPC   C2320805   4.240   3.611  13.539 -0.0339  0.0830 -0.4178
  171DOPC   H3R20806   4.337   3.614  13.593 -0.7991  2.5826  0.9681
  171DOPC   H3S20807   4.242   3.531  13.462 -0.1762  1.3219 -1.7592
  171DOPC   C2420808   4.120   3.577  13.631  0.4758  0.0237  0.1145
  171DOPC   H4R20809   4.149   3.473  13.656  0.1474 -0.1303 -0.1502
  171DOPC   H4S20810   4.016   3.574  13.593  0.0962  3.6942  0.4390
  171DOPC   C2520811   4.139   3.662  13.760 -0.2827 -0.1296 -0.1221
  171DOPC   H5R20812   4.109   3.767  13.740  0.9388  0.6897  1.9704
  171DOPC   H5S20813   4.246   3.665  13.790 -0.5415  1.7849  0.7570
  171DOPC   C2620814   4.058   3.618  13.886  0.2265  0.7995  0.5964
  171DOPC   H6R20815   4.104   3.523  13.919  0.1332  0.1144 -1.1225
  171DOPC   H6S20816   3.953   3.595  13.857  0.9109 -0.6518 -0.9151
  171DOPC   C2720817   4.061   3.729  13.991 -0.9334 -0.5460 -0.4515
  171DOPC   H7R20818   4.026   3.819  13.936  0.6826 -2.0017 -4.2666
  171DOPC   H7S20819   4.165   3.735  14.030 -0.6269  1.1591 -1.4246
  171DOPC   C2820820   3.985   3.696  14.117  0.6740 -0.1116 -0.1629
  171DOPC   H8R20821   4.029   3.603  14.159 -2.9996 -1.8014  0.3538
  171DOPC   H8S20822   3.884   3.671  14.077  0.3100  0.2310  0.5350
  171DOPC   C2920823   3.967   3.813  14.213 -0.8358 -0.0942 -0.2625
  171DOPC   H9R20824   3.928   3.908  14.174 -3.2023  0.1474  2.3634
  171DOPC  C21020825   3.985   3.809  14.350 -0.8259 -0.6580 -0.2509
  171DOPC  H10R20826   3.980   3.901  14.409  3.8215 -0.7902  0.6838
  171DOPC  C21120827   4.019   3.684  14.426 -0.5491 -0.2122 -1.4003
  171DOPC  H11R20828   4.120   3.703  14.466 -1.0529  2.4385 -1.1629
  171DOPC  H11S20829   4.022   3.596  14.359  0.5027 -2.8345  1.8705
  171DOPC  C21220830   3.941   3.654  14.555 -0.1650 -0.2999  0.2044
  171DOPC  H12R20831   3.963   3.560  14.609  1.3462  0.3515  0.7819
  171DOPC  H12S20832   3.836   3.647  14.521  0.2063  0.2395 -1.1353
  171DOPC  C21320833   3.943   3.778  14.652  0.3463 -0.4462 -0.0722
  171DOPC  H13R20834   3.865   3.751  14.727  0.5668 -0.4751  0.1500
  171DOPC  H13S20835   3.922   3.877  14.605 -1.0278 -0.4055  0.5607
  171DOPC  C21420836   4.068   3.786  14.738 -1.0429  0.0382 -0.1903
  171DOPC  H14R20837   4.148   3.828  14.674 -0.3929 -0.4686  0.2698
  171DOPC  H14S20838   4.097   3.685  14.776  0.2218  0.2638 -0.5441
  171DOPC  C21520839   4.061   3.875  14.858  0.2411 -0.0638 -0.8815
  171DOPC  H15R20840   4.053   3.983  14.832 -0.4641  0.5320  1.5580
  171DOPC  H15S20841   4.162   3.864  14.904 -0.0631 -0.4907 -0.3057
  171DOPC  C21620842   3.968   3.850  14.980 -0.4259 -0.2548  0.3782
  171DOPC  H16R20843   4.005   3.759  15.033 -0.2644 -1.2681 -1.3913
  171DOPC  H16S20844   3.866   3.834  14.940  0.0464 -0.8184 -0.6448
  171DOPC  C21720845   3.964   3.957  15.091  0.8479 -0.6204 -0.2493
  171DOPC  H17R20846   4.059   3.990  15.138 -0.3141  2.3037  0.2797
  171DOPC  H17S20847   3.908   3.913  15.177 -0.6464  0.4124 -0.6465
  171DOPC  C21820848   3.884   4.081  15.053 -0.2532 -0.2526  0.2643
  171DOPC  H18R20849   3.792   4.061  14.995 -1.2618  1.1213  1.3105
  171DOPC  H18S20850   3.949   4.149  14.994 -1.4366 -0.2759 -1.1032
  171DOPC  H18T20851   3.853   4.129  15.149 -0.0600  0.5134 -0.0467
  171DOPC   C3320852   3.573   3.710  13.692  0.1622  0.0058  0.1119
  171DOPC   H3X20853   3.505   3.628  13.662  0.1013  0.5468 -1.3474
  171DOPC   H3Y20854   3.525   3.800  13.647 -2.5122 -0.6081  1.5216
  171DOPC   C3420855   3.579   3.724  13.840 -0.2355 -0.5583 -0.0842
  171DOPC   H4X20856   3.644   3.637  13.867  3.0611  1.0395 -2.1742
  171DOPC   H4Y20857   3.478   3.699  13.877  0.5103 -1.4156  1.4790
  171DOPC   C3520858   3.630   3.860  13.890 -0.1830  0.0979 -0.7233
  171DOPC   H5X20859   3.596   3.935  13.816  0.3719 -2.0543 -3.3427
  171DOPC   H5Y20860   3.740   3.862  13.880 -0.2762  2.1286 -1.7380
  171DOPC   C3620861   3.588   3.889  14.036 -0.1936  0.1937 -0.2253
  171DOPC   H6X20862   3.478   3.883  14.050 -0.1789 -0.7560 -0.4940
  171DOPC   H6Y20863   3.617   3.803  14.100 -3.8937 -1.1951 -0.1817
  171DOPC   C3720864   3.650   4.018  14.085  0.0353 -0.2395 -0.1809
  171DOPC   H7X20865   3.760   4.006  14.073 -0.0203 -2.5273  1.0539
  171DOPC   H7Y20866   3.621   4.109  14.029  1.8675  1.9424  2.1653
  171DOPC   C3820867   3.644   4.044  14.241  0.1994  0.1561 -0.5068
  171DOPC   H8X20868   3.702   4.133  14.273 -2.1292  1.1491  1.2632
  171DOPC   H8Y20869   3.691   3.955  14.288 -0.6578  0.4339  0.9449
  171DOPC   C3920870   3.500   4.049  14.284 -0.3966 -0.6959  0.1943
  171DOPC   H9X20871   3.436   3.989  14.219  1.0068 -0.6434 -1.2903
  171DOPC  C31020872   3.446   4.121  14.383 -0.4358  0.6544  0.2973
  171DOPC  H10X20873   3.337   4.119  14.390 -0.4591  1.6327  0.2954
  171DOPC  C31120874   3.512   4.204  14.485  0.1549  0.6312 -0.3775
  171DOPC  H11X20875   3.492   4.312  14.468  0.9894  0.7125 -0.8898
  171DOPC  H11Y20876   3.621   4.185  14.472 -0.0721 -0.0066 -1.4726
  171DOPC  C31220877   3.470   4.154  14.628 -0.0877  0.0539  0.5047
  171DOPC  H12X20878   3.474   4.043  14.635 -0.7246 -0.0747 -0.7917
  171DOPC  H12Y20879   3.368   4.180  14.662 -1.4324 -3.0753 -0.6826
  171DOPC  C31320880   3.567   4.215  14.742 -0.4958 -0.5753 -0.3671
  171DOPC  H13X20881   3.535   4.156  14.831  1.9244 -1.0866  0.2513
  171DOPC  H13Y20882   3.668   4.185  14.707 -1.3493 -1.5398 -2.1670
  171DOPC  C31420883   3.542   4.364  14.767 -0.1339 -0.3672 -0.9234
  171DOPC  H14X20884   3.538   4.417  14.670  2.1711  0.2001 -0.7580
  171DOPC  H14Y20885   3.445   4.378  14.819  1.0135 -0.4027  1.3575
  171DOPC  C31520886   3.657   4.442  14.838  0.4042 -0.2883  0.0374
  171DOPC  H15X20887   3.630   4.548  14.822  1.0126 -0.1063  0.1953
  171DOPC  H15Y20888   3.754   4.446  14.785 -0.6187  0.4800 -1.8496
  171DOPC  C31620889   3.673   4.402  14.990 -0.1482  0.6076 -0.2498
  171DOPC  H16X20890   3.592   4.445  15.053 -1.5602  0.0258 -1.6186
  171DOPC  H16Y20891   3.674   4.291  14.987  0.1421  0.6141 -3.4809
  171DOPC  C31720892   3.808   4.456  15.047 -0.2112  0.3452 -0.4623
  171DOPC  H17X20893   3.893   4.409  14.992 -1.0696 -1.7419 -0.1265
  171DOPC  H17Y20894   3.809   4.566  15.032  0.3947  0.6155  1.3298
  171DOPC  C31820895   3.821   4.429  15.197  0.0350  0.4797 -0.2542
  171DOPC  H18X20896   3.917   4.466  15.238 -1.8055  1.9471  3.2034
  171DOPC  H18Y20897   3.751   4.494  15.254 -0.1749  0.4796 -0.5078
  171DOPC  H18Z20898   3.803   4.321  15.221  0.0703  0.6621  0.6363
  172DOPC     N20899   2.895   4.960  13.035 -0.0115 -0.2863 -0.2875
  172DOPC   C1220900   2.817   5.092  13.059 -0.1611  0.1626 -0.8958
  172DOPC  H12A20901   2.888   5.169  13.086  1.9929 -1.7777 -0.7710
  172DOPC  H12B20902   2.747   5.079  13.141  1.6233 -0.7928  0.5613
  172DOPC   C1320903   2.798   4.853  13.010  0.6520 -0.1265  0.5340
  172DOPC  H13A20904   2.744   4.841  13.103  1.0341  0.3669  0.8274
  172DOPC  H13B20905   2.726   4.882  12.935  1.0874  0.5725  0.3742
  172DOPC  H13C20906   2.836   4.757  12.978 -0.7647 -0.3513 -0.5767
  172DOPC   C1420907   2.960   4.926  13.166  0.5622  1.1310  0.1571
  172DOPC  H14A20908   2.891   4.916  13.249  0.6611  2.1667  0.3782
  172DOPC  H14B20909   3.005   4.828  13.157 -0.4186  0.8129 -1.7881
  172DOPC  H14C20910   3.028   5.005  13.190  0.5519  0.0762  4.5487
  172DOPC   C1520911   3.001   4.959  12.926 -0.3401  0.3257  0.2214
  172DOPC  H15A20912   3.046   4.862  12.916  1.3608  0.8968  1.8002
  172DOPC  H15B20913   3.083   5.027  12.942  0.3263 -0.8730  2.2733
  172DOPC  H15C20914   2.963   4.987  12.829 -0.0632  0.7169  0.2249
  172DOPC   C1120915   2.738   5.142  12.934  0.0493 -0.3328  0.1338
  172DOPC  H11A20916   2.713   5.246  12.961  2.1472 -0.2762  2.2608
  172DOPC  H11B20917   2.813   5.141  12.852  0.6344  0.3116  0.6444
  172DOPC     P20918   2.493   5.043  12.980 -0.2166 -0.1124 -0.3403
  172DOPC   O1320919   2.398   4.956  12.912  0.6446  0.1745  0.1208
  172DOPC   O1420920   2.456   5.181  13.016  0.3137 -0.2057 -0.0386
  172DOPC   O1220921   2.629   5.054  12.893  0.7582 -0.2199 -0.3843
  172DOPC   O1120922   2.551   4.979  13.115 -0.4631  0.1167 -0.4673
  172DOPC    C120923   2.474   4.879  13.189  0.1036 -0.7338 -0.8696
  172DOPC    HA20924   2.488   4.770  13.167  1.7117 -0.9209  0.7757
  172DOPC    HB20925   2.366   4.883  13.165  0.1303 -1.4230 -1.1433
  172DOPC    C220926   2.476   4.917  13.341  0.1767  0.1312  0.4348
  172DOPC    HS20927   2.567   4.977  13.361 -0.9531  1.8658  0.5187
  172DOPC   O2120928   2.486   4.795  13.422  0.0464  0.1174  0.3896
  172DOPC   C2120929   2.601   4.730  13.406  0.6016 -0.3618 -0.2953
  172DOPC   O2220930   2.701   4.762  13.350  0.8204  0.2505  0.7034
  172DOPC   C2220931   2.585   4.609  13.497 -0.6255  0.3071 -0.3994
  172DOPC   H2R20932   2.484   4.603  13.543  0.7559  3.1709  3.6583
  172DOPC   H2S20933   2.663   4.614  13.577  0.9150 -0.2031 -1.8236
  172DOPC    C320934   2.363   4.998  13.398  0.1142 -0.0843  0.1395
  172DOPC    HX20935   2.266   4.961  13.359  2.2952 -2.9697 -3.0699
  172DOPC    HY20936   2.378   5.094  13.344  0.6555  0.2589  0.8686
  172DOPC   O3120937   2.371   5.004  13.544  0.2583 -0.6324  0.5159
  172DOPC   C3120938   2.458   5.080  13.608 -0.5585 -0.5878  0.4923
  172DOPC   O3220939   2.535   5.162  13.563 -0.1578  0.0528 -0.2163
  172DOPC   C3220940   2.453   5.038  13.752  0.3435 -0.0165  0.6235
  172DOPC   H2X20941   2.354   5.000  13.783  1.9750 -2.4890  3.1718
  172DOPC   H2Y20942   2.525   4.956  13.770  0.7850 -0.2009 -1.6428
  172DOPC   C2320943   2.593   4.482  13.413  0.2151  0.2351 -0.0419
  172DOPC   H3R20944   2.684   4.493  13.350  0.9442 -0.8112  0.7843
  172DOPC   H3S20945   2.495   4.476  13.362 -0.6098  1.1884  1.3641
  172DOPC   C2420946   2.626   4.369  13.514 -0.1838 -0.2829 -0.3341
  172DOPC   H4R20947   2.711   4.394  13.581 -0.3486 -0.1984 -0.1533
  172DOPC   H4S20948   2.654   4.283  13.449  3.4167  1.2440 -1.0498
  172DOPC   C2520949   2.504   4.325  13.588  0.6897  0.3097 -0.1078
  172DOPC   H5R20950   2.417   4.308  13.521 -0.1123 -1.7427  1.3536
  172DOPC   H5S20951   2.480   4.416  13.646 -2.5518 -1.1911  1.1388
  172DOPC   C2620952   2.529   4.200  13.671  0.2399 -0.7827 -0.6147
  172DOPC   H6R20953   2.559   4.120  13.600 -0.5490 -1.1567 -0.5331
  172DOPC   H6S20954   2.439   4.155  13.720 -1.0748  2.2069 -0.1011
  172DOPC   C2720955   2.651   4.205  13.764 -0.0916 -0.0511  0.1049
  172DOPC   H7R20956   2.646   4.293  13.830  1.1556  1.0076 -1.1351
  172DOPC   H7S20957   2.742   4.221  13.701  0.3219 -0.1184  0.6814
  172DOPC   C2820958   2.666   4.084  13.865 -0.3181  0.5090 -0.2643
  172DOPC   H8R20959   2.676   3.987  13.812  0.4545  0.7168 -0.5171
  172DOPC   H8S20960   2.581   4.085  13.936  2.3569 -1.2655  3.2827
  172DOPC   C2920961   2.790   4.108  13.954  1.0779 -0.3983  0.1870
  172DOPC   H9R20962   2.869   4.146  13.887  0.1970 -1.7538 -1.7200
  172DOPC  C21020963   2.794   4.107  14.089 -0.3695  0.3300 -0.4591
  172DOPC  H10R20964   2.885   4.125  14.147  0.4157 -1.2588 -1.1347
  172DOPC  C21120965   2.679   4.082  14.183  0.1781  0.0157  0.2457
  172DOPC  H11R20966   2.705   3.998  14.251 -0.3659 -0.0393  0.3896
  172DOPC  H11S20967   2.582   4.059  14.134  0.9479  0.8127 -1.7788
  172DOPC  C21220968   2.642   4.187  14.284 -0.0299  0.0044 -0.2963
  172DOPC  H12R20969   2.635   4.290  14.241  0.2080  0.4992  0.8060
  172DOPC  H12S20970   2.722   4.178  14.361  0.9007  1.0450 -1.1098
  172DOPC  C21320971   2.505   4.158  14.361 -0.3279  0.5272 -0.7930
  172DOPC  H13R20972   2.509   4.057  14.408 -1.4234  0.8751  0.1042
  172DOPC  H13S20973   2.422   4.178  14.290 -1.7598 -1.0763  0.3412
  172DOPC  C21420974   2.495   4.266  14.471  0.0818 -0.4607 -0.5616
  172DOPC  H14R20975   2.474   4.368  14.431 -0.5424  0.3606  1.7098
  172DOPC  H14S20976   2.598   4.278  14.513  0.2373  0.0632 -1.0692
  172DOPC  C21520977   2.387   4.233  14.576  0.0741 -0.1516 -0.5756
  172DOPC  H15R20978   2.295   4.220  14.516  0.0218 -1.3461 -0.2625
  172DOPC  H15S20979   2.380   4.328  14.634  0.3258 -0.6034  0.2220
  172DOPC  C21620980   2.408   4.107  14.667 -0.4066  0.0500 -0.5224
  172DOPC  H16R20981   2.512   4.098  14.706  0.0344 -1.7915 -1.9362
  172DOPC  H16S20982   2.385   4.015  14.609  2.6959 -0.4681 -1.1286
  172DOPC  C21720983   2.323   4.097  14.794  0.8075  0.2162 -0.0613
  172DOPC  H17R20984   2.326   4.191  14.852  0.5006  0.3742 -0.3027
  172DOPC  H17S20985   2.379   4.022  14.856  1.0457 -0.7850 -1.4300
  172DOPC  C21820986   2.176   4.058  14.776  0.2864 -0.0957  0.3497
  172DOPC  H18R20987   2.166   3.976  14.702 -3.6297  1.2120 -0.8562
  172DOPC  H18S20988   2.117   4.147  14.747 -0.3398 -1.4843 -3.0596
  172DOPC  H18T20989   2.130   4.026  14.872 -2.3548 -1.9294 -1.3930
  172DOPC   C3320990   2.494   5.149  13.849  0.2171  0.6948  0.0976
  172DOPC   H3X20991   2.592   5.196  13.828  1.0304 -1.5298 -1.4049
  172DOPC   H3Y20992   2.496   5.118  13.956  3.3645  1.3676  0.3349
  172DOPC   C3420993   2.396   5.259  13.846  0.7861  0.3501  0.9428
  172DOPC   H4X20994   2.305   5.222  13.898  2.6502 -2.8877  2.1756
  172DOPC   H4Y20995   2.371   5.284  13.741  2.0306 -1.8918  0.0513
  172DOPC   C3520996   2.444   5.384  13.918  0.3752 -0.1946 -0.1452
  172DOPC   H5X20997   2.531   5.430  13.867 -1.4125  3.7238 -0.0025
  172DOPC   H5Y20998   2.458   5.361  14.026  0.7481 -0.5245 -0.2620
  172DOPC   C3620999   2.333   5.492  13.916 -0.2519  0.4429  0.9736
  172DOPC   H6X21000   2.244   5.439  13.956 -1.0014 -0.7689 -2.0460
  172DOPC   H6Y21001   2.363   5.572  13.987  0.2664  1.3696 -0.2500
  172DOPC   C3721002   2.296   5.544  13.776 -0.1310  0.2275 -0.2183
  172DOPC   H7X21003   2.375   5.619  13.752  0.3145 -0.5679 -1.3175
  172DOPC   H7Y21004   2.296   5.464  13.699 -2.0667  1.6997 -1.8574
  172DOPC   C3821005   2.154   5.597  13.755 -0.4388 -0.2274 -0.3083
  172DOPC   H8X21006   2.124   5.662  13.839 -0.6054 -0.5577 -0.1093
  172DOPC   H8Y21007   2.076   5.518  13.755 -2.0229  1.2781 -1.2576
  172DOPC   C3921008   2.142   5.672  13.626  0.5225 -0.3555 -0.1955
  172DOPC   H9X21009   2.177   5.611  13.541  0.5752  0.4670 -0.7666
  172DOPC  C31021010   2.128   5.801  13.607 -0.4066  0.1426 -0.0506
  172DOPC  H10X21011   2.110   5.831  13.503  0.0409 -2.5812 -0.9890
  172DOPC  C31121012   2.117   5.905  13.713 -0.2952  0.1803 -0.0990
  172DOPC  H11X21013   2.168   5.992  13.667  1.3516 -0.3693  0.6243
  172DOPC  H11Y21014   2.170   5.889  13.809 -0.7474  0.2089  0.1614
  172DOPC  C31221015   1.976   5.946  13.747  0.4292 -0.0610  0.4488
  172DOPC  H12X21016   1.922   5.984  13.658 -0.3883 -1.6851  0.2031
  172DOPC  H12Y21017   1.980   6.033  13.816 -0.2853  1.0783 -0.9019
  172DOPC  C31321018   1.907   5.830  13.820 -0.1605  0.7053 -0.2725
  172DOPC  H13X21019   1.913   5.728  13.776 -0.2443  0.7382 -0.3622
  172DOPC  H13Y21020   1.955   5.819  13.919  0.3791  0.3682 -0.5641
  172DOPC  C31421021   1.759   5.855  13.845 -0.5186 -0.2618 -0.3658
  172DOPC  H14X21022   1.736   5.963  13.859 -0.9430 -0.1911 -1.4908
  172DOPC  H14Y21023   1.701   5.819  13.758 -3.9186 -0.4685  1.8147
  172DOPC  C31521024   1.711   5.785  13.967  0.1051  0.2645  0.3088
  172DOPC  H15X21025   1.772   5.832  14.047  1.7257  0.5810 -1.0319
  172DOPC  H15Y21026   1.745   5.680  13.958 -1.0335 -0.0692 -0.1889
  172DOPC  C31621027   1.561   5.784  14.004  0.8181  0.1878  0.1397
  172DOPC  H16X21028   1.520   5.887  13.996 -0.0844 -0.2708 -1.6163
  172DOPC  H16Y21029   1.513   5.728  13.922 -1.3752  4.2968 -1.6985
  172DOPC  C31721030   1.538   5.714  14.135 -0.0384 -0.6368 -0.4795
  172DOPC  H17X21031   1.575   5.609  14.139  0.3153 -0.5719 -1.8037
  172DOPC  H17Y21032   1.585   5.767  14.221 -1.4345 -2.1279  1.3186
  172DOPC  C31821033   1.386   5.717  14.169  0.7605  0.1521 -0.3355
  172DOPC  H18X21034   1.374   5.680  14.273 -1.8739  1.8504  0.0455
  172DOPC  H18Y21035   1.335   5.815  14.172  1.2094  0.4792 -2.1690
  172DOPC  H18Z21036   1.327   5.649  14.103  0.4980 -1.0200  1.0512
  173DOPC     N21037   0.885   3.734  12.729 -0.0246 -0.2471  0.4369
  173DOPC   C1221038   1.012   3.713  12.806 -0.0970  0.4143  0.5022
  173DOPC  H12A21039   1.059   3.809  12.814  0.1493  0.2271  1.5568
  173DOPC  H12B21040   1.070   3.656  12.735  0.9143  1.6135  0.3547
  173DOPC   C1321041   0.797   3.812  12.821  0.4023 -0.1956 -0.4470
  173DOPC  H13A21042   0.781   3.760  12.914 -3.1941  1.5079  0.0716
  173DOPC  H13B21043   0.841   3.903  12.858 -0.8284  0.9697 -1.7351
  173DOPC  H13C21044   0.703   3.836  12.774 -0.8310 -0.4161  1.7728
  173DOPC   C1421045   0.822   3.603  12.694  0.1700 -1.2382  0.3653
  173DOPC  H14A21046   0.888   3.539  12.637 -2.2051 -1.6889 -2.0542
  173DOPC  H14B21047   0.807   3.537  12.778 -2.3238  0.2034  1.1493
  173DOPC  H14C21048   0.727   3.616  12.644  0.3865  0.2073  0.2927
  173DOPC   C1521049   0.901   3.813  12.602 -0.3310  0.0504  0.8564
  173DOPC  H15A21050   0.813   3.836  12.545  0.6019  0.0651 -0.6339
  173DOPC  H15B21051   0.980   3.773  12.540 -2.3687  0.5440 -2.2781
  173DOPC  H15C21052   0.951   3.903  12.635  0.0140 -0.0886  0.7141
  173DOPC   C1121053   1.013   3.654  12.944 -0.1048  0.1592  0.7840
  173DOPC  H11A21054   1.112   3.687  12.982  1.1997 -1.6364 -0.8476
  173DOPC  H11B21055   0.937   3.702  13.008  0.7019  0.8676  1.2330
  173DOPC     P21056   1.121   3.417  12.912 -0.0534 -0.0393 -0.3413
  173DOPC   O1321057   1.204   3.475  12.805 -0.2073 -0.5668  0.0111
  173DOPC   O1421058   1.077   3.275  12.897 -0.1952  0.2788 -0.4047
  173DOPC   O1221059   0.995   3.509  12.943 -0.1951  0.3711 -0.1170
  173DOPC   O1121060   1.209   3.424  13.044  0.6008 -0.4048  0.6078
  173DOPC    C121061   1.195   3.342  13.159  0.4579  0.4413 -0.3006
  173DOPC    HA21062   1.089   3.316  13.176  0.2901  0.6666 -0.9733
  173DOPC    HB21063   1.235   3.393  13.249 -1.6407 -0.1891  1.0489
  173DOPC    C221064   1.268   3.210  13.136  0.6642  0.2715  0.1315
  173DOPC    HS21065   1.215   3.155  13.055 -1.0024  1.9996 -0.0394
  173DOPC   O2121066   1.268   3.142  13.259  0.1472  0.5486  0.3925
  173DOPC   C2121067   1.322   3.019  13.249 -0.6245 -0.8684  0.3065
  173DOPC   O2221068   1.356   2.971  13.144  0.2836  0.1000  0.0276
  173DOPC   C2221069   1.341   2.948  13.384 -0.3345 -0.4794  0.2635
  173DOPC   H2R21070   1.440   2.901  13.368 -1.0707 -1.5406 -1.5304
  173DOPC   H2S21071   1.274   2.861  13.399  0.0247 -0.2866  3.6589
  173DOPC    C321072   1.415   3.242  13.081  1.5529  0.0303 -0.5057
  173DOPC    HX21073   1.395   3.290  12.982 -1.2012  1.2719  0.5437
  173DOPC    HY21074   1.471   3.148  13.064  1.2040 -0.4448  0.8496
  173DOPC   O3121075   1.485   3.327  13.178  0.3202 -0.3829 -0.4744
  173DOPC   C3121076   1.560   3.428  13.132  0.5425 -0.2002 -0.2879
  173DOPC   O3221077   1.603   3.438  13.022 -0.1444 -0.2767  0.3816
  173DOPC   C3221078   1.604   3.516  13.256 -0.0988 -0.0931  0.5782
  173DOPC   H2X21079   1.539   3.604  13.238 -0.4916 -0.8232 -1.9672
  173DOPC   H2Y21080   1.575   3.453  13.342 -0.0045 -1.2879 -0.2432
  173DOPC   C2321081   1.336   3.048  13.502 -0.2292 -0.1365  0.2127
  173DOPC   H3R21082   1.251   3.120  13.507  0.9000  1.1870  1.1207
  173DOPC   H3S21083   1.414   3.121  13.472 -0.2493  0.5201  1.6742
  173DOPC   C2421084   1.347   2.981  13.641  0.6116  0.0521 -0.2153
  173DOPC   H4R21085   1.450   2.941  13.657  1.0896  1.7737  1.3815
  173DOPC   H4S21086   1.279   2.893  13.653 -0.3983  1.0454  1.7275
  173DOPC   C2521087   1.307   3.078  13.755  0.4037  0.1549  0.2424
  173DOPC   H5R21088   1.197   3.086  13.767  0.5003  1.8785  0.2573
  173DOPC   H5S21089   1.333   3.182  13.724  1.5788 -0.4373 -0.8547
  173DOPC   C2621090   1.380   3.061  13.889 -0.6925 -0.3592 -1.0243
  173DOPC   H6R21091   1.490   3.052  13.882 -0.3041 -1.2487  3.3371
  173DOPC   H6S21092   1.350   2.966  13.939  0.6047 -1.5399 -2.3908
  173DOPC   C2721093   1.370   3.187  13.984  0.8750 -0.1765 -0.5297
  173DOPC   H7R21094   1.263   3.213  13.996  0.7276 -1.3292  0.8001
  173DOPC   H7S21095   1.416   3.278  13.939  1.1354 -1.0621 -2.1281
  173DOPC   C2821096   1.425   3.178  14.123 -0.0282  0.7167 -0.2508
  173DOPC   H8R21097   1.531   3.166  14.094 -0.5184 -0.5582 -1.6665
  173DOPC   H8S21098   1.390   3.078  14.156  0.5263  0.2627 -1.0086
  173DOPC   C2921099   1.395   3.287  14.226 -0.3989 -0.0924 -0.5196
  173DOPC   H9R21100   1.291   3.308  14.256  0.4119  0.7348  1.9180
  173DOPC  C21021101   1.475   3.374  14.288 -0.4156  0.3038 -0.3743
  173DOPC  H10R21102   1.428   3.452  14.349  2.6668  1.2100  1.0480
  173DOPC  C21121103   1.625   3.383  14.267  0.0195  0.8599  0.4595
  173DOPC  H11R21104   1.650   3.326  14.175  0.3271  0.6246  0.6880
  173DOPC  H11S21105   1.665   3.320  14.349  2.3303  0.5776 -0.8072
  173DOPC  C21221106   1.691   3.523  14.275  0.1954  0.2380 -0.9026
  173DOPC  H12R21107   1.647   3.599  14.208 -1.0486  1.7603  1.5119
  173DOPC  H12S21108   1.793   3.517  14.233  0.9910 -0.9288  1.0296
  173DOPC  C21321109   1.696   3.584  14.417  0.2824  0.1162 -0.1181
  173DOPC  H13R21110   1.746   3.519  14.492  1.3090  0.1510 -0.7404
  173DOPC  H13S21111   1.591   3.593  14.452 -0.7169 -3.0327 -1.8985
  173DOPC  C21421112   1.779   3.715  14.420  0.1972  0.3015 -0.6312
  173DOPC  H14R21113   1.725   3.806  14.385  0.6732  0.1604 -1.7634
  173DOPC  H14S21114   1.867   3.690  14.356 -0.9590 -1.6290 -1.5462
  173DOPC  C21521115   1.844   3.748  14.558  0.6541 -0.4207  0.2616
  173DOPC  H15R21116   1.898   3.845  14.556 -2.3558  1.3485 -1.6349
  173DOPC  H15S21117   1.914   3.666  14.587  1.1792 -0.2422 -0.4868
  173DOPC  C21621118   1.738   3.757  14.675  0.1734 -0.5049  0.0213
  173DOPC  H16R21119   1.697   3.654  14.685 -0.3519 -0.4428 -1.2561
  173DOPC  H16S21120   1.662   3.830  14.639  1.4399  2.0894  2.2842
  173DOPC  C21721121   1.780   3.812  14.812  0.5672  0.1647 -0.5146
  173DOPC  H17R21122   1.863   3.750  14.852  1.4550  1.6972  0.0721
  173DOPC  H17S21123   1.690   3.812  14.878 -0.8566 -0.2993 -2.3677
  173DOPC  C21821124   1.843   3.952  14.817 -0.1363  0.0821 -0.1028
  173DOPC  H18R21125   1.938   3.951  14.759 -1.5325 -0.0500 -2.5167
  173DOPC  H18S21126   1.869   3.981  14.922 -1.9325 -0.9171  0.6620
  173DOPC  H18T21127   1.787   4.041  14.780  0.4020  0.8946  0.9588
  173DOPC   C3321128   1.752   3.552  13.243 -0.0887 -0.6173  0.4118
  173DOPC   H3X21129   1.748   3.615  13.151  0.1582  1.0228  1.4829
  173DOPC   H3Y21130   1.822   3.468  13.228  0.9044  0.4804 -1.6299
  173DOPC   C3421131   1.808   3.643  13.354  0.3095 -0.5197 -0.3191
  173DOPC   H4X21132   1.741   3.727  13.381 -0.7469 -2.0596  2.2865
  173DOPC   H4Y21133   1.897   3.693  13.312 -0.7766  1.9553  0.1529
  173DOPC   C3521134   1.833   3.562  13.478  0.4187  0.4219 -0.2048
  173DOPC   H5X21135   1.884   3.469  13.447 -0.3878 -0.5205  1.1865
  173DOPC   H5Y21136   1.737   3.532  13.525  0.2568  2.2894  0.7445
  173DOPC   C3621137   1.921   3.640  13.576 -0.2289  0.1632 -1.0306
  173DOPC   H6X21138   2.024   3.664  13.540  0.4663  0.1120  0.8087
  173DOPC   H6Y21139   1.874   3.737  13.600 -0.2145 -0.0152 -0.2740
  173DOPC   C3721140   1.932   3.557  13.707 -0.8196  1.3048  0.5423
  173DOPC   H7X21141   1.828   3.533  13.741 -1.3373  0.4697 -1.4960
  173DOPC   H7Y21142   1.978   3.462  13.675 -1.7460  1.1478 -0.3903
  173DOPC   C3821143   2.027   3.625  13.809  0.2958 -0.6180 -0.2730
  173DOPC   H8X21144   2.112   3.664  13.750  0.8868  0.9377  1.5039
  173DOPC   H8Y21145   2.064   3.542  13.873 -0.7910  0.1341  1.4111
  173DOPC   C3921146   1.955   3.727  13.894  0.4293 -0.0466  0.2769
  173DOPC   H9X21147   1.881   3.679  13.959 -0.5252  1.4533  0.3426
  173DOPC  C31021148   1.972   3.859  13.912  0.1827  0.7584  0.2202
  173DOPC  H10X21149   1.917   3.909  13.992 -0.8192 -0.9028  0.6050
  173DOPC  C31121150   2.070   3.938  13.831 -0.2985  0.2727 -0.2275
  173DOPC  H11X21151   2.148   3.879  13.778 -0.3911  0.0182 -0.0801
  173DOPC  H11Y21152   2.122   4.022  13.883 -0.1250 -0.8875  1.5669
  173DOPC  C31221153   1.988   4.003  13.724  0.7697  0.1009  0.3657
  173DOPC  H12X21154   1.924   4.080  13.771 -0.9187 -0.5079 -0.8023
  173DOPC  H12Y21155   1.917   3.933  13.674  0.2303  0.4537  0.6347
  173DOPC  C31321156   2.065   4.084  13.611 -0.9499 -0.4355 -0.0664
  173DOPC  H13X21157   1.999   4.158  13.562 -0.3964  0.4311  0.4561
  173DOPC  H13Y21158   2.138   4.151  13.662 -2.3121 -1.1762  3.1549
  173DOPC  C31421159   2.130   3.993  13.504 -0.4604 -0.1426 -0.7596
  173DOPC  H14X21160   2.188   3.918  13.562  0.2510  1.2848  0.4194
  173DOPC  H14Y21161   2.048   3.940  13.451 -0.1627 -1.2858 -0.1174
  173DOPC  C31521162   2.215   4.069  13.394 -0.2815  0.2131 -0.6178
  173DOPC  H15X21163   2.279   4.142  13.447 -0.2028  0.4205 -0.9945
  173DOPC  H15Y21164   2.128   4.112  13.340 -2.4761  0.7049  3.0048
  173DOPC  C31621165   2.298   3.982  13.307 -0.5830 -0.3759 -0.0400
  173DOPC  H16X21166   2.346   4.059  13.243  0.1249 -0.4639  0.3747
  173DOPC  H16Y21167   2.379   3.940  13.370  0.3021  0.2529 -0.7497
  173DOPC  C31721168   2.227   3.873  13.230  0.4575  0.1040  0.2569
  173DOPC  H17X21169   2.128   3.847  13.273  0.7400  1.0971  1.5445
  173DOPC  H17Y21170   2.207   3.910  13.127  1.0981 -0.5015 -0.0971
  173DOPC  C31821171   2.316   3.749  13.209  0.1024 -0.7007 -0.1775
  173DOPC  H18X21172   2.408   3.787  13.159 -0.1088 -0.5446 -0.4529
  173DOPC  H18Y21173   2.344   3.712  13.310 -2.2907 -1.9398  0.0947
  173DOPC  H18Z21174   2.270   3.668  13.149  2.5298 -1.1168 -1.6389
  174DOPC     N21175   5.640   3.223  12.838 -0.7882  0.0321 -0.2496
  174DOPC   C1221176   5.521   3.191  12.922 -0.0273 -0.4567 -0.0073
  174DOPC  H12A21177   5.540   3.096  12.968  1.0307 -0.1212  0.2742
  174DOPC  H12B21178   5.432   3.182  12.861 -0.2927 -0.5161  0.3838
  174DOPC   C1321179   5.768   3.207  12.924 -0.5090  0.7152  0.1969
  174DOPC  H13A21180   5.777   3.105  12.959 -1.8604  1.1038  1.8414
  174DOPC  H13B21181   5.858   3.226  12.868 -0.2691 -0.3848  0.1741
  174DOPC  H13C21182   5.760   3.273  13.008  0.6325 -0.0446  0.9324
  174DOPC   C1421183   5.631   3.352  12.782 -0.8179 -0.3648  0.0423
  174DOPC  H14A21184   5.658   3.426  12.856 -1.6253  1.4777 -1.4340
  174DOPC  H14B21185   5.704   3.365  12.703 -1.4397 -0.6654 -0.5873
  174DOPC  H14C21186   5.531   3.377  12.751 -0.7359  1.0801  0.8398
  174DOPC   C1521187   5.629   3.125  12.729 -0.1356 -0.1171 -0.1963
  174DOPC  H15A21188   5.540   3.150  12.674 -0.2309  0.8233  0.3475
  174DOPC  H15B21189   5.622   3.026  12.770  3.7363  0.1694  1.7164
  174DOPC  H15C21190   5.714   3.126  12.662  0.4197  0.7428  0.4767
  174DOPC   C1121191   5.493   3.282  13.044  0.5678 -0.1934 -0.1143
  174DOPC  H11A21192   5.411   3.243  13.107  0.5136  2.0027  1.2632
  174DOPC  H11B21193   5.593   3.274  13.092  1.3902  2.9584 -1.1093
  174DOPC     P21194   5.334   3.453  12.944 -0.4992  0.2187 -0.2083
  174DOPC   O1321195   5.342   3.393  12.811 -0.4464 -0.7839  0.4141
  174DOPC   O1421196   5.315   3.596  12.956  0.0072  0.6681  0.5976
  174DOPC   O1221197   5.470   3.420  13.016  0.3499 -0.5928 -0.2791
  174DOPC   O1121198   5.227   3.377  13.029  0.3009 -0.0989  0.3329
  174DOPC    C121199   5.141   3.425  13.135  0.1889 -0.7393  0.2822
  174DOPC    HA21200   5.061   3.354  13.165 -0.3826  0.2252  1.1130
  174DOPC    HB21201   5.079   3.510  13.100 -0.3061 -0.4816  1.6988
  174DOPC    C221202   5.208   3.471  13.271 -0.2288  0.0337 -0.2209
  174DOPC    HS21203   5.280   3.553  13.249  0.1689 -0.1254  0.4802
  174DOPC   O2121204   5.278   3.359  13.330 -0.0239  0.3920  0.3343
  174DOPC   C2121205   5.390   3.378  13.399 -0.2965 -0.4137  0.3324
  174DOPC   O2221206   5.463   3.475  13.388  0.0879  0.5590  0.3242
  174DOPC   C2221207   5.423   3.251  13.490 -0.3052 -0.7871 -0.9677
  174DOPC   H2R21208   5.533   3.234  13.491 -0.2584 -0.6461  1.2707
  174DOPC   H2S21209   5.361   3.169  13.447 -2.4264  0.0418  0.3744
  174DOPC    C321210   5.099   3.513  13.369 -0.2887  0.1359 -0.9024
  174DOPC    HX21211   5.047   3.416  13.380 -1.1816  0.6343 -0.6058
  174DOPC    HY21212   5.030   3.583  13.316 -1.1954  0.6602  0.8833
  174DOPC   O3121213   5.141   3.576  13.496  0.8272  0.1813 -0.1002
  174DOPC   C3121214   5.093   3.507  13.609  0.6400 -0.7593  0.7141
  174DOPC   O3221215   5.024   3.403  13.607 -0.3048 -0.2535  0.2077
  174DOPC   C3221216   5.114   3.593  13.739  0.0395 -0.1977 -0.0019
  174DOPC   H2X21217   5.222   3.618  13.751  0.0263 -0.6471  1.3295
  174DOPC   H2Y21218   5.051   3.684  13.739  0.8233  0.3575 -0.3768
  174DOPC   C2321219   5.378   3.262  13.641  0.1066 -0.0537 -0.3292
  174DOPC   H3R21220   5.273   3.283  13.670  0.6748  0.4936  1.4871
  174DOPC   H3S21221   5.429   3.350  13.687 -0.9750 -0.5163  1.8805
  174DOPC   C2421222   5.425   3.134  13.707  0.3860 -0.4611  0.1750
  174DOPC   H4R21223   5.534   3.119  13.687  0.2322  2.1547 -3.5293
  174DOPC   H4S21224   5.370   3.049  13.662  0.1103 -0.8085  1.1431
  174DOPC   C2521225   5.400   3.125  13.863  0.1233 -1.2716  0.0277
  174DOPC   H5R21226   5.293   3.147  13.883  0.7460  0.6408  1.6650
  174DOPC   H5S21227   5.457   3.210  13.906  1.0408 -1.8378 -0.0367
  174DOPC   C2621228   5.449   2.992  13.923  0.1631  0.1798 -0.2468
  174DOPC   H6R21229   5.545   2.968  13.872  0.1066 -2.7863  0.8690
  174DOPC   H6S21230   5.382   2.904  13.912  0.9765 -0.3091 -1.4306
  174DOPC   C2721231   5.490   3.007  14.068 -0.2851 -0.4938  0.0931
  174DOPC   H7R21232   5.539   3.105  14.086 -0.2178  0.1749 -3.1767
  174DOPC   H7S21233   5.568   2.929  14.084  1.4205  1.3363  1.1259
  174DOPC   C2821234   5.375   2.990  14.179 -0.1169  0.6308 -0.1014
  174DOPC   H8R21235   5.324   2.892  14.169 -0.1077  0.2006  3.1466
  174DOPC   H8S21236   5.303   3.074  14.166 -1.7847 -0.4275  1.7760
  174DOPC   C2921237   5.432   3.000  14.320 -0.5614  0.1552  0.4590
  174DOPC   H9R21238   5.536   2.965  14.324  0.1022  1.6064 -2.1872
  174DOPC  C21021239   5.377   3.046  14.432 -0.5171  0.0046  0.0742
  174DOPC  H10R21240   5.434   3.043  14.526 -2.3529 -0.4906  1.2503
  174DOPC  C21121241   5.237   3.091  14.451 -0.7527 -0.4103 -0.2854
  174DOPC  H11R21242   5.183   3.033  14.530  1.9876 -2.1783  0.4355
  174DOPC  H11S21243   5.184   3.080  14.354  0.4802  1.3566 -1.2180
  174DOPC  C21221244   5.237   3.244  14.490 -0.5116  0.7355 -0.0160
  174DOPC  H12R21245   5.138   3.295  14.494 -0.3310  1.0040  1.8877
  174DOPC  H12S21246   5.293   3.307  14.417 -1.7849  3.7268  1.4302
  174DOPC  C21321247   5.303   3.272  14.629  0.8597  0.2966 -0.5948
  174DOPC  H13R21248   5.408   3.236  14.626  1.3631  1.7819 -2.4505
  174DOPC  H13S21249   5.253   3.217  14.712 -0.3630  3.1474  0.6650
  174DOPC  C21421250   5.306   3.420  14.667  0.3002  0.3756  0.0058
  174DOPC  H14R21251   5.205   3.463  14.650 -0.3611 -0.9142  0.5130
  174DOPC  H14S21252   5.376   3.480  14.604  2.9376 -0.5015  1.8965
  174DOPC  C21521253   5.352   3.448  14.815 -0.3692  0.2005  0.4094
  174DOPC  H15R21254   5.457   3.411  14.823 -0.0248  0.2848 -2.4370
  174DOPC  H15S21255   5.292   3.382  14.881  0.8373 -0.7958  0.5481
  174DOPC  C21621256   5.359   3.591  14.856  0.5209  0.2799 -0.0426
  174DOPC  H16R21257   5.368   3.606  14.966  0.9835 -1.0990  0.1304
  174DOPC  H16S21258   5.260   3.635  14.833  0.2294 -0.2553  0.1617
  174DOPC  C21721259   5.474   3.669  14.797 -0.0058 -0.6653  0.4127
  174DOPC  H17R21260   5.459   3.684  14.687 -1.0924  0.6047  0.7016
  174DOPC  H17S21261   5.574   3.622  14.806  0.3231 -0.1095 -0.2656
  174DOPC  C21821262   5.482   3.809  14.855 -0.5296  0.0452 -0.2641
  174DOPC  H18R21263   5.573   3.852  14.807 -0.4717  0.9753  0.6461
  174DOPC  H18S21264   5.502   3.807  14.964 -0.2690  1.9884 -0.2348
  174DOPC  H18T21265   5.385   3.864  14.851 -1.7855 -2.0436 -0.0190
  174DOPC   C3321266   5.089   3.492  13.860  0.0494  0.0452  0.2731
  174DOPC   H3X21267   5.154   3.403  13.844  2.8264  2.4392 -3.6792
  174DOPC   H3Y21268   4.984   3.458  13.847 -0.3982  1.5628 -0.3918
  174DOPC   C3421269   5.087   3.548  13.998  0.2464 -0.1234 -0.1206
  174DOPC   H4X21270   5.019   3.636  13.993  2.1164  1.3214 -2.2194
  174DOPC   H4Y21271   5.188   3.587  14.020  1.7867 -1.5261 -3.9298
  174DOPC   C3521272   5.040   3.450  14.106  0.7546  0.2013  0.3943
  174DOPC   H5X21273   5.116   3.369  14.100  1.8726  1.2418 -0.1521
  174DOPC   H5Y21274   4.943   3.414  14.068  0.7201  2.3783 -1.8093
  174DOPC   C3621275   5.047   3.500  14.253  0.2980 -0.7359 -0.0867
  174DOPC   H6X21276   5.047   3.413  14.322  1.6296 -0.4118  0.3610
  174DOPC   H6Y21277   5.150   3.541  14.262  0.0197  0.1955 -1.0549
  174DOPC   C3721278   4.937   3.605  14.283  0.2358  0.7526 -0.0697
  174DOPC   H7X21279   4.966   3.696  14.227 -2.7216  0.7991 -1.7534
  174DOPC   H7Y21280   4.844   3.551  14.254  0.8130 -2.2805  3.0402
  174DOPC   C3821281   4.907   3.637  14.428  0.3872 -0.3214  0.8566
  174DOPC   H8X21282   4.880   3.546  14.485  0.3962 -1.7600 -1.3262
  174DOPC   H8Y21283   4.813   3.696  14.433 -0.6624 -1.4720 -2.4491
  174DOPC   C3921284   5.023   3.717  14.486  0.2218 -0.3059  0.7620
  174DOPC   H9X21285   5.080   3.785  14.420 -0.5418  0.3247  0.7394
  174DOPC  C31021286   5.056   3.720  14.618 -0.3333 -1.0972 -0.3214
  174DOPC  H10X21287   5.127   3.796  14.652 -1.2795 -0.7575  0.9759
  174DOPC  C31121288   4.981   3.643  14.730  0.9095  0.4323  0.7142
  174DOPC  H11X21289   5.044   3.568  14.782 -0.7263  0.0806  2.2928
  174DOPC  H11Y21290   4.892   3.588  14.694  1.0378 -1.2013  2.7150
  174DOPC  C31221291   4.912   3.734  14.833 -0.5383 -0.0106 -0.6917
  174DOPC  H12X21292   4.849   3.814  14.789  1.9479  0.8220 -2.9438
  174DOPC  H12Y21293   4.994   3.776  14.895 -1.2630 -1.2074  1.2026
  174DOPC  C31321294   4.825   3.665  14.940 -0.9576 -0.0997  0.3771
  174DOPC  H13X21295   4.805   3.744  15.015 -1.3914 -0.4125  0.5997
  174DOPC  H13Y21296   4.727   3.627  14.904 -1.5773  1.7194  0.0331
  174DOPC  C31421297   4.898   3.544  15.010 -0.3616 -0.1906 -0.3022
  174DOPC  H14X21298   4.821   3.509  15.082 -1.3924 -0.2228 -1.3951
  174DOPC  H14Y21299   4.916   3.475  14.924  1.1947  1.1543 -1.1156
  174DOPC  C31521300   5.039   3.566  15.071  0.7157  0.4121 -0.5121
  174DOPC  H15X21301   5.093   3.650  15.022  0.0813  1.4251  0.4829
  174DOPC  H15Y21302   5.096   3.475  15.043  2.2199  1.0544  0.3573
  174DOPC  C31621303   5.045   3.566  15.225 -0.2444 -0.0169  0.3882
  174DOPC  H16X21304   5.035   3.663  15.277  0.7998 -0.7426  2.0543
  174DOPC  H16Y21305   4.955   3.509  15.256  1.3865 -0.6597  4.6537
  174DOPC  C31721306   5.167   3.486  15.283 -0.0935 -0.0660 -0.0726
  174DOPC  H17X21307   5.186   3.395  15.222 -3.2667 -1.2401  0.5199
  174DOPC  H17Y21308   5.261   3.545  15.278 -0.7870  1.2437  1.5394
  174DOPC  C31821309   5.149   3.447  15.433  0.1831 -0.4377  0.4864
  174DOPC  H18X21310   5.130   3.542  15.487 -2.4420 -0.6230  0.0430
  174DOPC  H18Y21311   5.056   3.387  15.446  1.0915 -2.7619 -2.4698
  174DOPC  H18Z21312   5.240   3.395  15.470  1.3179  0.4462 -0.9547
  175DOPC     N21313   3.066   6.480  12.533  0.2639  0.6037  0.6477
  175DOPC   C1221314   3.094   6.624  12.575 -0.3113 -0.0706  0.3115
  175DOPC  H12A21315   3.008   6.688  12.558  0.8287  1.6548  0.7882
  175DOPC  H12B21316   3.173   6.661  12.511  0.4533  0.7604  1.6707
  175DOPC   C1321317   3.187   6.391  12.541  0.7106 -0.4183  0.8152
  175DOPC  H13A21318   3.273   6.424  12.484  0.8690 -1.1806  0.5960
  175DOPC  H13B21319   3.211   6.373  12.645 -0.7565  0.1655  1.2902
  175DOPC  H13C21320   3.164   6.290  12.511  1.2943 -0.9332  2.0103
  175DOPC   C1421321   3.010   6.479  12.393 -0.3436  0.0702 -0.1819
  175DOPC  H14A21322   3.083   6.528  12.330 -1.9516  0.6623 -1.6475
  175DOPC  H14B21323   3.011   6.376  12.361 -0.0050 -1.3062  3.6632
  175DOPC  H14C21324   2.910   6.521  12.392  0.2085  1.6280  2.0519
  175DOPC   C1521325   2.962   6.424  12.629  0.4092 -0.5087  0.5779
  175DOPC  H15A21326   2.993   6.434  12.732  1.1055 -1.0555  0.4270
  175DOPC  H15B21327   2.944   6.319  12.614  0.7587 -0.7335  1.6443
  175DOPC  H15C21328   2.870   6.479  12.615  0.8979  0.0255 -0.6884
  175DOPC   C1121329   3.142   6.642  12.723 -0.1559 -0.1115  0.7348
  175DOPC  H11A21330   3.222   6.566  12.740  0.3196  0.1686 -0.1990
  175DOPC  H11B21331   3.192   6.741  12.712 -0.4401 -0.2731 -4.6490
  175DOPC     P21332   2.917   6.751  12.816 -0.1012  0.1572  0.0738
  175DOPC   O1321333   2.823   6.728  12.705  0.1999 -0.3960  0.5869
  175DOPC   O1421334   2.986   6.886  12.819  0.0340 -0.8827  0.0639
  175DOPC   O1221335   3.028   6.636  12.819  0.4717  0.7571  0.0235
  175DOPC   O1121336   2.843   6.731  12.953 -0.5658 -0.8405 -0.1455
  175DOPC    C121337   2.780   6.603  12.976 -0.1608  0.0113 -0.1114
  175DOPC    HA21338   2.846   6.522  12.938  0.2524  0.6790 -0.8477
  175DOPC    HB21339   2.684   6.591  12.919 -0.8864 -0.7871  1.2282
  175DOPC    C221340   2.739   6.582  13.127  0.0383 -0.7580  0.3397
  175DOPC    HS21341   2.693   6.481  13.134  0.5349 -1.2183 -2.2485
  175DOPC   O2121342   2.643   6.681  13.174 -0.0173  0.2393 -0.0124
  175DOPC   C2121343   2.519   6.667  13.143  0.5166 -0.2662 -0.0565
  175DOPC   O2221344   2.470   6.579  13.076  0.1189  0.4147 -0.0235
  175DOPC   C2221345   2.436   6.775  13.224  0.3920 -0.5945 -0.1373
  175DOPC   H2R21346   2.484   6.867  13.184 -2.0843  0.5633 -0.6790
  175DOPC   H2S21347   2.465   6.765  13.330  0.5963 -0.1414 -0.1453
  175DOPC    C321348   2.861   6.595  13.219 -0.1779  0.3346 -0.0215
  175DOPC    HX21349   2.922   6.686  13.201  0.1057 -0.1135 -1.4726
  175DOPC    HY21350   2.926   6.514  13.180  0.7215  1.2047 -0.3855
  175DOPC   O3121351   2.824   6.570  13.357 -0.0088  0.0532 -0.2789
  175DOPC   C3121352   2.804   6.442  13.389  0.1685 -0.0280 -0.0661
  175DOPC   O3221353   2.809   6.344  13.312  0.2269  0.3498 -0.2864
  175DOPC   C3221354   2.784   6.437  13.539  0.6596 -0.2838 -0.7927
  175DOPC   H2X21355   2.788   6.334  13.579  2.1644  0.4069  1.0119
  175DOPC   H2Y21356   2.870   6.494  13.581 -2.1783  2.8302  1.2897
  175DOPC   C2321357   2.286   6.756  13.213 -0.3449  0.2450 -0.4023
  175DOPC   H3R21358   2.275   6.651  13.247  2.3239  0.6206  1.9951
  175DOPC   H3S21359   2.255   6.761  13.106  1.8723 -2.3105 -1.2792
  175DOPC   C2421360   2.197   6.855  13.294 -0.3203 -0.4604  0.3100
  175DOPC   H4R21361   2.090   6.832  13.279 -0.9159  1.2858  1.5782
  175DOPC   H4S21362   2.205   6.956  13.248 -1.1210  0.8323  2.8263
  175DOPC   C2521363   2.240   6.865  13.444  0.5000  0.3872  0.7312
  175DOPC   H5R21364   2.343   6.903  13.462  0.6349  1.0639 -1.2086
  175DOPC   H5S21365   2.243   6.763  13.488 -0.3825  0.9617  2.1971
  175DOPC   C2621366   2.133   6.956  13.521 -0.2385 -0.1806  0.5999
  175DOPC   H6R21367   2.146   7.059  13.482 -1.3714  0.1982  1.1747
  175DOPC   H6S21368   2.150   6.972  13.630 -1.2579  2.0464  0.4803
  175DOPC   C2721369   1.987   6.914  13.501  0.5390  1.0571  0.3205
  175DOPC   H7R21370   1.948   6.924  13.398 -0.7598 -1.1637  0.5291
  175DOPC   H7S21371   1.928   6.987  13.561  0.9542 -0.4522  2.6866
  175DOPC   C2821372   1.958   6.775  13.562  0.4436  0.2145 -0.3472
  175DOPC   H8R21373   2.029   6.693  13.539 -0.4023 -0.2379 -1.4432
  175DOPC   H8S21374   1.854   6.751  13.529  0.2565  0.5025  0.0291
  175DOPC   C2921375   1.968   6.793  13.714  0.5171 -0.0245 -0.3546
  175DOPC   H9R21376   2.074   6.791  13.745  1.4807 -1.2054 -3.4054
  175DOPC  C21021377   1.867   6.783  13.802 -0.0199 -0.2498 -0.0650
  175DOPC  H10R21378   1.903   6.780  13.906 -0.6997  0.6201  0.2070
  175DOPC  C21121379   1.718   6.769  13.780 -0.4718 -0.6483 -0.0310
  175DOPC  H11R21380   1.678   6.678  13.829 -0.7246 -0.2333  0.5464
  175DOPC  H11S21381   1.689   6.771  13.673  0.4005  3.4813 -0.3377
  175DOPC  C21221382   1.633   6.892  13.842  0.1128 -0.1508 -0.4365
  175DOPC  H12R21383   1.529   6.882  13.806 -0.5490  0.3192  1.2263
  175DOPC  H12S21384   1.682   6.982  13.798  1.2584 -0.7469 -0.4315
  175DOPC  C21321385   1.630   6.900  13.996  0.2374  0.6476  0.5500
  175DOPC  H13R21386   1.722   6.935  14.047  0.6173 -1.1654  1.1501
  175DOPC  H13S21387   1.635   6.796  14.035  1.3308  1.1899  1.9565
  175DOPC  C21421388   1.504   6.965  14.051 -0.9696  0.9254 -0.3729
  175DOPC  H14R21389   1.417   6.903  14.020 -0.9394  0.4741  0.4220
  175DOPC  H14S21390   1.491   7.067  14.008  0.2424  0.7395 -1.2399
  175DOPC  C21521391   1.510   6.975  14.205  0.4942 -0.0713 -0.6776
  175DOPC  H15R21392   1.607   7.014  14.244  0.8317 -1.0496 -0.4847
  175DOPC  H15S21393   1.510   6.877  14.259  1.8651  0.5340  0.5129
  175DOPC  C21621394   1.390   7.062  14.256  0.0382 -0.6653  0.4523
  175DOPC  H16R21395   1.293   7.019  14.224 -0.1013  1.1893 -1.9434
  175DOPC  H16S21396   1.391   7.161  14.205 -2.9141 -0.4243  0.6744
  175DOPC  C21721397   1.386   7.092  14.403 -0.7927  0.5586  0.7296
  175DOPC  H17R21398   1.480   7.141  14.433  0.2791 -0.9463 -0.0364
  175DOPC  H17S21399   1.373   7.004  14.471  0.0689 -0.7598 -0.7565
  175DOPC  C21821400   1.270   7.192  14.430  0.2937  0.1570 -0.3380
  175DOPC  H18R21401   1.267   7.269  14.350 -1.1958  0.1159 -0.3402
  175DOPC  H18S21402   1.283   7.238  14.530 -2.3354 -0.0041  0.1356
  175DOPC  H18T21403   1.173   7.138  14.422  0.2517  0.3846 -1.5574
  175DOPC   C3321404   2.645   6.501  13.589 -0.0384 -0.2209  0.9867
  175DOPC   H3X21405   2.571   6.422  13.614 -1.8424 -0.1226 -3.2894
  175DOPC   H3Y21406   2.594   6.551  13.504 -0.8575  0.0193  1.6079
  175DOPC   C3421407   2.657   6.607  13.701 -0.5144  0.7393 -0.2469
  175DOPC   H4X21408   2.710   6.696  13.660  0.5827 -0.3935 -1.3980
  175DOPC   H4Y21409   2.713   6.559  13.784  0.3700  3.4280  0.8229
  175DOPC   C3521410   2.512   6.632  13.750 -0.0993 -0.4589 -0.2704
  175DOPC   H5X21411   2.460   6.538  13.779 -0.4169 -0.5379 -1.0439
  175DOPC   H5Y21412   2.451   6.678  13.669 -1.2197  0.2321  0.9310
  175DOPC   C3621413   2.496   6.729  13.872 -0.1137  0.0782 -0.5449
  175DOPC   H6X21414   2.508   6.829  13.823  0.1611  0.7833  0.9218
  175DOPC   H6Y21415   2.392   6.713  13.908 -0.1845  2.9375  0.8267
  175DOPC   C3721416   2.599   6.701  13.982 -0.2099 -0.5522 -0.0027
  175DOPC   H7X21417   2.613   6.602  14.029 -1.2578  0.2834  2.2116
  175DOPC   H7Y21418   2.696   6.725  13.933 -0.5934  0.9920 -0.0595
  175DOPC   C3821419   2.575   6.801  14.105  0.0082  0.2515 -0.6245
  175DOPC   H8X21420   2.487   6.766  14.162 -0.2294  0.4144 -0.8870
  175DOPC   H8Y21421   2.544   6.897  14.059  1.1673  0.6339 -0.6263
  175DOPC   C3921422   2.697   6.816  14.188 -0.4051  0.0575 -0.4627
  175DOPC   H9X21423   2.773   6.877  14.138  0.8710 -2.8513 -2.3450
  175DOPC  C31021424   2.722   6.792  14.320  0.2465  0.4712  0.9074
  175DOPC  H10X21425   2.829   6.809  14.340  1.2318 -0.0538 -3.1208
  175DOPC  C31121426   2.636   6.734  14.428  0.3848  0.6137 -0.0783
  175DOPC  H11X21427   2.672   6.632  14.452 -1.8248 -0.0772  0.5242
  175DOPC  H11Y21428   2.527   6.723  14.406  0.2975 -0.4432  0.7906
  175DOPC  C31221429   2.650   6.813  14.551  0.4159  0.1602 -0.2250
  175DOPC  H12X21430   2.622   6.920  14.537  1.8518  1.0198  2.5452
  175DOPC  H12Y21431   2.757   6.801  14.578  0.0934 -1.3710  0.4630
  175DOPC  C31321432   2.569   6.769  14.674  0.2969 -0.3674 -0.2141
  175DOPC  H13X21433   2.598   6.832  14.761  1.8138 -1.0200 -0.2022
  175DOPC  H13Y21434   2.461   6.777  14.652 -0.0842 -1.2799  1.1851
  175DOPC  C31421435   2.602   6.633  14.707 -0.5893  0.4878  0.5072
  175DOPC  H14X21436   2.560   6.561  14.633  2.3499 -1.4050  0.4955
  175DOPC  H14Y21437   2.711   6.613  14.709 -0.8709 -1.2514  0.1295
  175DOPC  C31521438   2.541   6.584  14.841 -0.3529 -0.3214  0.2689
  175DOPC  H15X21439   2.435   6.560  14.816  0.3200 -1.3759 -1.8108
  175DOPC  H15Y21440   2.537   6.668  14.914  0.5284 -0.1627  0.1465
  175DOPC  C31621441   2.604   6.459  14.888 -0.6698 -0.2719 -0.5990
  175DOPC  H16X21442   2.571   6.376  14.822 -1.6852  0.8877 -1.5999
  175DOPC  H16Y21443   2.714   6.473  14.890 -0.5798 -1.0156 -0.2321
  175DOPC  C31721444   2.562   6.410  15.029  0.1523 -0.6600 -0.6405
  175DOPC  H17X21445   2.459   6.368  15.022 -0.1004 -0.0543 -0.6477
  175DOPC  H17Y21446   2.640   6.343  15.070 -1.5790 -2.5059 -0.2239
  175DOPC  C31821447   2.553   6.532  15.130  0.2584  0.2386  0.5999
  175DOPC  H18X21448   2.460   6.590  15.115  0.4418  1.0303  2.3330
  175DOPC  H18Y21449   2.551   6.498  15.235  2.0646  0.0789  0.6245
  175DOPC  H18Z21450   2.639   6.601  15.116  3.1854 -3.0434  0.7891
  176DOPC     N21451   3.076   2.482  12.827 -0.0640 -0.6861  0.0806
  176DOPC   C1221452   3.068   2.371  12.930 -0.3986  0.1088 -0.5290
  176DOPC  H12A21453   3.061   2.273  12.885 -1.6259 -1.2732  2.3934
  176DOPC  H12B21454   2.969   2.391  12.969  0.1578  2.5538 -0.1607
  176DOPC   C1321455   2.971   2.459  12.729 -0.5452  0.1030 -0.4533
  176DOPC  H13A21456   2.984   2.369  12.671 -1.4414 -0.4597  0.1951
  176DOPC  H13B21457   2.871   2.458  12.768  0.2380 -0.8033  1.7019
  176DOPC  H13C21458   2.966   2.541  12.659 -1.2734 -0.4510 -1.0651
  176DOPC   C1421459   3.210   2.482  12.755  0.3654 -0.3445 -0.0824
  176DOPC  H14A21460   3.217   2.563  12.684 -2.3153  2.3223  2.4387
  176DOPC  H14B21461   3.296   2.484  12.821  1.4244  0.0035 -1.4365
  176DOPC  H14C21462   3.215   2.403  12.681 -0.3636  1.3422 -2.0063
  176DOPC   C1521463   3.043   2.609  12.898 -0.6366  0.4261 -0.0962
  176DOPC  H15A21464   2.955   2.608  12.960  0.5055  1.5858  1.6278
  176DOPC  H15B21465   3.026   2.688  12.826 -0.5674  1.1097  0.6264
  176DOPC  H15C21466   3.115   2.636  12.974  1.5594 -3.3067 -0.6267
  176DOPC   C1121467   3.175   2.360  13.042  0.7192 -0.4790  0.5737
  176DOPC  H11A21468   3.191   2.462  13.084  2.9032 -0.6456  0.2579
  176DOPC  H11B21469   3.146   2.303  13.133  0.6039 -0.7968  0.3375
  176DOPC     P21470   3.328   2.177  12.953  0.1150  0.0999  0.3195
  176DOPC   O1321471   3.462   2.160  12.897 -0.5905  0.3168  0.3470
  176DOPC   O1421472   3.223   2.140  12.855  0.2944  0.7039  0.4471
  176DOPC   O1221473   3.302   2.321  12.995 -0.3461  0.2807 -0.0190
  176DOPC   O1121474   3.305   2.100  13.097 -0.3317  0.1855 -0.4349
  176DOPC    C121475   3.418   2.099  13.190  0.0859 -0.1246  0.4220
  176DOPC    HA21476   3.489   2.183  13.176 -2.0435  1.4865 -1.5409
  176DOPC    HB21477   3.472   2.002  13.186  2.6205  1.2238 -0.3945
  176DOPC    C221478   3.369   2.108  13.334  0.2901 -0.3866 -0.2080
  176DOPC    HS21479   3.310   2.015  13.339  1.1766 -0.9438  0.2621
  176DOPC   O2121480   3.299   2.226  13.350  0.2176 -1.0157 -0.2236
  176DOPC   C2121481   3.187   2.211  13.423 -0.1587  0.0745 -0.2182
  176DOPC   O2221482   3.151   2.104  13.472 -0.0977 -0.5071  0.4735
  176DOPC   C2221483   3.130   2.350  13.458  0.5167 -0.2358  0.6935
  176DOPC   H2R21484   3.119   2.404  13.362 -1.8545 -1.1890  0.3466
  176DOPC   H2S21485   3.201   2.404  13.524  0.6034 -2.2040  2.3317
  176DOPC    C321486   3.492   2.102  13.443  0.1898  0.9338  0.1467
  176DOPC    HX21487   3.566   2.183  13.427  2.1890 -0.9601 -0.8181
  176DOPC    HY21488   3.540   2.003  13.427 -1.2005  0.2242  0.2551
  176DOPC   O3121489   3.449   2.119  13.574  0.1380 -0.3895 -0.1102
  176DOPC   C3121490   3.382   2.022  13.634  1.1250  0.8732 -0.4726
  176DOPC   O3221491   3.358   1.914  13.579 -0.0159 -0.8232  0.4825
  176DOPC   C3221492   3.316   2.067  13.766  0.3267  0.5998 -0.3903
  176DOPC   H2X21493   3.321   2.176  13.785 -1.5071  0.6373  0.0443
  176DOPC   H2Y21494   3.211   2.036  13.748  0.6502 -0.3390 -0.7434
  176DOPC   C2321495   2.992   2.349  13.529 -0.3346  0.0569 -0.7566
  176DOPC   H3R21496   2.926   2.311  13.449 -0.1714 -3.1956  0.5189
  176DOPC   H3S21497   2.971   2.457  13.545  0.4774  0.2070 -0.6436
  176DOPC   C2421498   2.983   2.281  13.658 -0.6896  0.1452 -0.4496
  176DOPC   H4R21499   3.014   2.174  13.654  0.3345  0.3324  1.3921
  176DOPC   H4S21500   2.877   2.278  13.693 -0.0478 -1.1215  1.6014
  176DOPC   C2521501   3.067   2.355  13.762  0.1623 -0.2736 -0.4436
  176DOPC   H5R21502   3.027   2.458  13.771  1.7835  0.5778 -2.3352
  176DOPC   H5S21503   3.174   2.366  13.734 -0.2269  0.6785 -1.6053
  176DOPC   C2621504   3.058   2.282  13.899 -0.6133  0.3317  0.6836
  176DOPC   H6R21505   3.075   2.173  13.884 -1.3572  0.0394  1.8142
  176DOPC   H6S21506   2.956   2.281  13.943 -1.2099  0.9622 -0.6202
  176DOPC   C2721507   3.175   2.338  13.989  0.3660  0.4859  0.1284
  176DOPC   H7R21508   3.192   2.446  13.968 -2.3714  1.6312  2.9883
  176DOPC   H7S21509   3.273   2.302  13.952 -0.0639  0.5806 -1.1538
  176DOPC   C2821510   3.157   2.304  14.137 -0.0853  0.1396 -0.2508
  176DOPC   H8R21511   3.202   2.205  14.158  2.6938  1.6694  1.8403
  176DOPC   H8S21512   3.051   2.309  14.167  0.9321  3.6325  3.7506
  176DOPC   C2921513   3.222   2.406  14.228  0.3180 -0.4944 -0.6387
  176DOPC   H9R21514   3.266   2.487  14.168 -1.9161  0.9066 -0.4726
  176DOPC  C21021515   3.218   2.420  14.364  0.1570 -0.2068  0.5434
  176DOPC  H10R21516   3.285   2.492  14.415  0.9860  0.0163 -0.8113
  176DOPC  C21121517   3.144   2.319  14.453  0.5093 -0.3206 -0.1177
  176DOPC  H11R21518   3.119   2.219  14.411 -0.9683  0.5193 -1.3229
  176DOPC  H11S21519   3.042   2.350  14.482  1.0603  1.4453  0.0632
  176DOPC  C21221520   3.227   2.281  14.578  0.2214  0.5021 -0.5782
  176DOPC  H12R21521   3.219   2.357  14.658 -0.5767 -0.6184  0.4488
  176DOPC  H12S21522   3.334   2.261  14.557  0.0000 -0.9212 -0.4962
  176DOPC  C21321523   3.164   2.156  14.644  0.8022  0.4281  0.1863
  176DOPC  H13R21524   3.239   2.078  14.669  1.9338  1.6778  0.7582
  176DOPC  H13S21525   3.100   2.100  14.571  0.8853 -3.0372  2.4967
  176DOPC  C21421526   3.081   2.184  14.774  1.4592  0.0579  0.0843
  176DOPC  H14R21527   2.977   2.203  14.738  1.1033 -1.5267  0.1839
  176DOPC  H14S21528   3.118   2.275  14.825  2.9528 -0.0823 -0.6947
  176DOPC  C21521529   3.087   2.075  14.884 -0.2415 -0.7334  0.8210
  176DOPC  H15R21530   3.192   2.065  14.918  0.5373  1.6655 -0.6303
  176DOPC  H15S21531   3.061   1.977  14.839 -1.7027 -0.4342  0.9701
  176DOPC  C21621532   2.993   2.087  15.001  0.8706  0.4883  0.9443
  176DOPC  H16R21533   2.892   2.072  14.957  1.1202  2.4521 -0.4236
  176DOPC  H16S21534   3.001   2.193  15.033  1.4258  1.1851 -1.2645
  176DOPC  C21721535   3.020   1.988  15.111  0.5718  0.5632  0.0939
  176DOPC  H17R21536   3.123   2.010  15.145  0.2935  2.4060 -0.1532
  176DOPC  H17S21537   3.016   1.891  15.057 -0.6431  1.1231 -0.8723
  176DOPC  C21821538   2.918   1.975  15.224 -0.0516  0.0054  0.5511
  176DOPC  H18R21539   2.936   1.873  15.264  0.1489  0.9438  3.0050
  176DOPC  H18S21540   2.815   1.964  15.183  0.7457 -1.4036 -1.2697
  176DOPC  H18T21541   2.929   2.060  15.294  1.8538  0.4242 -0.1980
  176DOPC   C3321542   3.373   2.006  13.892 -0.1755 -0.4308  0.1976
  176DOPC   H3X21543   3.320   2.037  13.984  0.9584  0.2163  0.6607
  176DOPC   H3Y21544   3.477   2.044  13.903 -0.9221  1.7343  0.2027
  176DOPC   C3421545   3.372   1.851  13.911 -0.1763 -0.1275  0.5481
  176DOPC   H4X21546   3.433   1.807  13.829  2.4541  0.7716  1.9078
  176DOPC   H4Y21547   3.265   1.822  13.903 -0.3319  0.8169 -1.7775
  176DOPC   C3521548   3.420   1.794  14.045 -0.5521  0.1760  0.2345
  176DOPC   H5X21549   3.357   1.831  14.129  0.7246 -1.1190  1.8213
  176DOPC   H5Y21550   3.530   1.808  14.057 -0.1576 -3.0666  1.3756
  176DOPC   C3621551   3.402   1.634  14.040 -0.0505 -0.6268  0.8305
  176DOPC   H6X21552   3.454   1.605  14.133  0.7734 -2.3250 -0.1107
  176DOPC   H6Y21553   3.296   1.602  14.047 -0.3070 -0.6803 -2.0106
  176DOPC   C3721554   3.465   1.566  13.917 -0.0620  0.5462  0.3115
  176DOPC   H7X21555   3.385   1.558  13.840 -0.7526 -0.7390  1.1379
  176DOPC   H7Y21556   3.547   1.624  13.870 -1.0471  0.9293 -0.9957
  176DOPC   C3821557   3.514   1.421  13.950  0.0466  0.3650  0.1177
  176DOPC   H8X21558   3.419   1.370  13.977 -1.0087  1.4515 -1.3369
  176DOPC   H8Y21559   3.587   1.427  14.034 -1.0567  0.0773  1.1266
  176DOPC   C3921560   3.571   1.357  13.828  0.1591  0.3222 -0.4624
  176DOPC   H9X21561   3.497   1.351  13.747  0.3139  1.9045 -0.7514
  176DOPC  C31021562   3.699   1.321  13.807  0.2610  0.0690  0.8036
  176DOPC  H10X21563   3.721   1.265  13.715 -3.4052  1.2520 -0.9630
  176DOPC  C31121564   3.820   1.325  13.906  0.0523 -0.4540 -0.0488
  176DOPC  H11X21565   3.894   1.244  13.890  0.4175  0.1061 -1.2505
  176DOPC  H11Y21566   3.780   1.316  14.010 -0.0078  1.6088  0.1402
  176DOPC  C31221567   3.888   1.458  13.883  0.6399  0.5260  0.1055
  176DOPC  H12X21568   3.823   1.537  13.840 -2.2626 -1.2642  0.9261
  176DOPC  H12Y21569   3.968   1.436  13.810  1.8500  0.8928  1.2835
  176DOPC  C31321570   3.961   1.494  14.012  0.3786 -0.3584  0.5194
  176DOPC  H13X21571   4.007   1.404  14.060  0.1391 -0.9694 -0.3844
  176DOPC  H13Y21572   4.049   1.561  14.005 -1.7993  2.8712  1.7010
  176DOPC  C31421573   3.865   1.567  14.104 -0.3983  0.0858 -0.2054
  176DOPC  H14X21574   3.787   1.611  14.040 -1.0580 -1.1283 -0.2601
  176DOPC  H14Y21575   3.814   1.494  14.170 -1.1123 -1.3987 -2.2937
  176DOPC  C31521576   3.931   1.671  14.210  0.6192  0.3480  0.0731
  176DOPC  H15X21577   3.969   1.763  14.160  3.7471 -0.7212  0.2686
  176DOPC  H15Y21578   4.015   1.610  14.249  0.4210 -0.6028 -0.9249
  176DOPC  C31621579   3.835   1.700  14.325  0.7177 -0.3786  0.1498
  176DOPC  H16X21580   3.800   1.600  14.358  1.5466 -0.8837 -0.4751
  176DOPC  H16Y21581   3.888   1.745  14.412 -2.0964 -1.3237  2.5233
  176DOPC  C31721582   3.722   1.791  14.294  0.0093  0.0205 -0.3406
  176DOPC  H17X21583   3.764   1.884  14.251 -0.4643 -0.0765 -1.0232
  176DOPC  H17Y21584   3.660   1.748  14.213 -1.7266 -0.8576  1.3555
  176DOPC  C31821585   3.620   1.829  14.411  0.0513  0.2608 -0.1473
  176DOPC  H18X21586   3.671   1.901  14.479 -1.9219 -1.7787  3.8276
  176DOPC  H18Y21587   3.529   1.885  14.382  0.4203 -0.3670 -2.7778
  176DOPC  H18Z21588   3.583   1.743  14.471  2.4789  0.8739  2.4194
  177DOPC     N21589   4.885   7.132  12.837 -0.1738 -0.5580  0.2954
  177DOPC   C1221590   4.822   7.274  12.841  0.5166 -0.8278 -0.2058
  177DOPC  H12A21591   4.887   7.337  12.782  1.0953  0.3632  1.6429
  177DOPC  H12B21592   4.827   7.306  12.944  0.6666 -0.1178 -0.4294
  177DOPC   C1321593   4.900   7.095  12.691  1.3117 -0.0890 -0.1148
  177DOPC  H13A21594   4.805   7.064  12.650  0.8555  1.6647 -0.4702
  177DOPC  H13B21595   4.941   7.177  12.634 -0.0374  0.7495  0.0531
  177DOPC  H13C21596   4.953   7.002  12.686  2.1764  0.2209  2.0885
  177DOPC   C1421597   4.797   7.032  12.894  0.2281 -0.5203  0.0784
  177DOPC  H14A21598   4.800   7.037  13.002 -2.2753 -0.9333  0.2196
  177DOPC  H14B21599   4.696   7.050  12.862  0.6670 -0.8615 -1.6057
  177DOPC  H14C21600   4.831   6.932  12.872  2.2250  0.0611  0.3407
  177DOPC   C1521601   5.029   7.127  12.898 -0.5568 -0.4149  0.4923
  177DOPC  H15A21602   5.046   7.177  12.992 -1.1825 -0.3631  0.5841
  177DOPC  H15B21603   5.087   7.186  12.829 -0.6367 -1.3178 -0.3636
  177DOPC  H15C21604   5.070   7.027  12.892  1.3824  0.4356 -2.4492
  177DOPC   C1121605   4.676   7.285  12.786  0.0179 -0.4334 -0.4929
  177DOPC  H11A21606   4.658   7.392  12.760  2.4553 -0.2667 -1.7348
  177DOPC  H11B21607   4.685   7.222  12.696  1.1718 -2.1025  0.7403
  177DOPC     P21608   4.543   7.295  13.002  0.0268 -0.2470 -0.0263
  177DOPC   O1321609   4.434   7.384  12.971  0.0255  0.2237 -0.0826
  177DOPC   O1421610   4.659   7.357  13.067 -0.6338  0.0425 -0.1834
  177DOPC   O1221611   4.585   7.221  12.871 -0.0906  0.5248 -0.1644
  177DOPC   O1121612   4.492   7.179  13.085 -0.1192 -0.0688  0.3809
  177DOPC    C121613   4.402   7.080  13.042  0.3749 -0.0129  0.2611
  177DOPC    HA21614   4.445   7.015  12.964 -0.3906 -1.2324  0.8217
  177DOPC    HB21615   4.303   7.121  13.013  0.5120 -1.9979 -3.6485
  177DOPC    C221616   4.380   6.968  13.156  0.2433 -0.4333  0.1448
  177DOPC    HS21617   4.306   6.896  13.116 -1.3788  1.5978 -0.6630
  177DOPC   O2121618   4.341   7.035  13.273 -0.5449 -0.8637 -0.8381
  177DOPC   C2121619   4.274   6.959  13.365 -0.1435  0.1858 -0.6533
  177DOPC   O2221620   4.219   6.851  13.344 -0.5909  0.4207  0.0992
  177DOPC   C2221621   4.314   7.019  13.498  0.2641  0.5057  0.0272
  177DOPC   H2R21622   4.338   7.127  13.484 -1.3255  1.0637  1.2496
  177DOPC   H2S21623   4.401   6.957  13.530 -1.5963 -1.3914  1.6825
  177DOPC    C321624   4.509   6.893  13.189 -0.0546 -0.0808 -0.1104
  177DOPC    HX21625   4.587   6.971  13.200 -1.6746  1.4852  0.7602
  177DOPC    HY21626   4.544   6.838  13.098  0.6282  0.5605 -0.2457
  177DOPC   O3121627   4.499   6.807  13.315  0.1569 -0.9869  0.1026
  177DOPC   C3121628   4.618   6.748  13.346 -0.1311 -1.2739 -0.6975
  177DOPC   O3221629   4.722   6.765  13.287 -0.4570  0.1882  0.3244
  177DOPC   C3221630   4.596   6.660  13.473  0.1705 -0.4352  0.1793
  177DOPC   H2X21631   4.545   6.722  13.550  1.2731  2.2442 -1.0797
  177DOPC   H2Y21632   4.511   6.593  13.450  0.8010 -0.8193 -1.1074
  177DOPC   C2321633   4.198   7.003  13.599  0.3882 -0.0738  0.3075
  177DOPC   H3R21634   4.191   6.893  13.612 -1.4988 -0.1946 -1.2178
  177DOPC   H3S21635   4.101   7.034  13.554  0.7760 -0.9199 -1.1762
  177DOPC   C2421636   4.216   7.083  13.732  0.1720  0.2086 -0.0056
  177DOPC   H4R21637   4.121   7.070  13.788 -1.3125  0.7704 -2.2458
  177DOPC   H4S21638   4.230   7.191  13.709 -0.0149  0.4978  1.1915
  177DOPC   C2521639   4.342   7.029  13.806  0.5826 -0.0320  0.7073
  177DOPC   H5R21640   4.429   7.042  13.738 -1.0965 -2.0756 -1.9754
  177DOPC   H5S21641   4.339   6.924  13.844 -1.8484  0.9381  3.6632
  177DOPC   C2621642   4.371   7.112  13.927  0.2962  0.1942  0.0149
  177DOPC   H6R21643   4.455   7.065  13.984 -0.8686 -1.1745  0.6412
  177DOPC   H6S21644   4.281   7.134  13.989  0.1419  0.2735 -0.2397
  177DOPC   C2721645   4.445   7.247  13.896 -0.0150 -0.9183 -1.1377
  177DOPC   H7R21646   4.372   7.321  13.856 -0.2288 -0.9388 -0.7889
  177DOPC   H7S21647   4.513   7.220  13.812  0.6830 -0.6724 -0.6630
  177DOPC   C2821648   4.514   7.313  14.017  0.1885  0.2735  0.4962
  177DOPC   H8R21649   4.598   7.242  14.034  0.4228  0.5476  0.4903
  177DOPC   H8S21650   4.450   7.299  14.107 -0.1515  1.8426  0.5263
  177DOPC   C2921651   4.563   7.455  13.994 -0.0626  0.3935 -0.1863
  177DOPC   H9R21652   4.629   7.475  13.908 -0.6630  0.6300 -0.5971
  177DOPC  C21021653   4.531   7.563  14.074  0.4192  0.4844 -0.1708
  177DOPC  H10R21654   4.569   7.658  14.034 -0.4313  0.8128 -0.2322
  177DOPC  C21121655   4.431   7.561  14.191  0.4635  0.5067  0.2415
  177DOPC  H11R21656   4.356   7.480  14.174  1.0720  0.4281 -2.6138
  177DOPC  H11S21657   4.370   7.654  14.185 -2.6983 -1.4317 -0.9662
  177DOPC  C21221658   4.500   7.558  14.331  0.6731  0.2050 -0.2978
  177DOPC  H12R21659   4.418   7.548  14.406  0.7373  4.0282  0.5308
  177DOPC  H12S21660   4.546   7.656  14.357 -0.2615  0.4122  0.6797
  177DOPC  C21321661   4.612   7.454  14.356 -0.3943  0.1478  0.0377
  177DOPC  H13R21662   4.685   7.447  14.272 -1.5188 -1.5287 -0.8705
  177DOPC  H13S21663   4.568   7.353  14.372  1.7625 -0.7094  1.0881
  177DOPC  C21421664   4.698   7.484  14.482  0.3342 -0.4186  0.6350
  177DOPC  H14R21665   4.754   7.579  14.477  0.6871 -0.6558 -0.0109
  177DOPC  H14S21666   4.777   7.408  14.499  0.5718 -0.1621  0.6844
  177DOPC  C21521667   4.620   7.500  14.613  0.3606 -0.3226  0.5797
  177DOPC  H15R21668   4.544   7.420  14.616 -1.3980  1.2769  0.5223
  177DOPC  H15S21669   4.553   7.588  14.600  0.3736 -0.6052 -2.1322
  177DOPC  C21621670   4.711   7.508  14.732  0.3146  0.2515  0.2124
  177DOPC  H16R21671   4.795   7.576  14.708 -0.6624  1.1297 -0.8388
  177DOPC  H16S21672   4.763   7.412  14.751 -0.8226 -0.9136 -2.1162
  177DOPC  C21721673   4.635   7.557  14.859 -0.3288 -0.4818  0.3940
  177DOPC  H17R21674   4.553   7.484  14.876  0.4359 -1.5852 -0.4723
  177DOPC  H17S21675   4.603   7.663  14.847  1.3623 -0.0352 -0.5604
  177DOPC  C21821676   4.722   7.548  14.983 -0.3517  0.1801  0.1891
  177DOPC  H18R21677   4.791   7.462  14.974 -0.3685  0.2790 -1.0998
  177DOPC  H18S21678   4.658   7.540  15.072 -0.2323  0.6409  0.3225
  177DOPC  H18T21679   4.791   7.634  15.000 -0.0615  0.2174 -1.0565
  177DOPC   C3321680   4.715   6.579  13.520  0.9056 -0.0910 -0.0969
  177DOPC   H3X21681   4.802   6.644  13.544  1.3989 -0.1211 -1.6994
  177DOPC   H3Y21682   4.754   6.508  13.444 -1.4193 -0.9342 -0.5834
  177DOPC   C3421683   4.672   6.511  13.651 -0.4061  0.2184 -0.5567
  177DOPC   H4X21684   4.590   6.439  13.630  1.6572 -1.8590 -2.2671
  177DOPC   H4Y21685   4.640   6.592  13.719  2.1312  1.7839 -1.0973
  177DOPC   C3521686   4.783   6.433  13.716 -0.6322  0.0604 -0.6817
  177DOPC   H5X21687   4.878   6.474  13.674 -1.1973 -1.1772 -3.4263
  177DOPC   H5Y21688   4.785   6.327  13.682 -0.6073  0.0845 -0.7581
  177DOPC   C3621689   4.784   6.423  13.872  0.0645  0.1984 -0.0130
  177DOPC   H6X21690   4.825   6.520  13.906 -0.5866  0.4763 -0.0017
  177DOPC   H6Y21691   4.680   6.404  13.908 -0.1441  1.6617  0.2294
  177DOPC   C3721692   4.869   6.301  13.916 -0.0162  0.1210 -0.4247
  177DOPC   H7X21693   4.805   6.213  13.892 -1.6505  0.0140  3.5402
  177DOPC   H7Y21694   4.958   6.306  13.850  0.4178  0.8853  0.2075
  177DOPC   C3821695   4.909   6.290  14.061  0.4882  0.0816 -1.0597
  177DOPC   H8X21696   4.959   6.199  14.103 -0.4158  0.9118  2.0826
  177DOPC   H8Y21697   4.813   6.287  14.117  1.1581  0.5300  0.1585
  177DOPC   C3921698   4.984   6.411  14.108  0.8543  0.7109  0.0069
  177DOPC   H9X21699   4.929   6.483  14.170  1.5962  1.9847 -0.7511
  177DOPC  C31021700   5.115   6.426  14.075  0.6592 -0.0395 -0.2502
  177DOPC  H10X21701   5.165   6.517  14.109 -0.7262 -0.0091  1.9300
  177DOPC  C31121702   5.196   6.323  13.999  0.6667 -0.2480  0.9229
  177DOPC  H11X21703   5.196   6.351  13.891 -1.0754 -3.0374  0.0847
  177DOPC  H11Y21704   5.150   6.223  14.008 -1.6056  0.4861 -1.2218
  177DOPC  C31221705   5.346   6.329  14.046  0.1790  0.0863  0.6373
  177DOPC  H12X21706   5.375   6.436  14.042  0.7485 -0.1135 -1.0605
  177DOPC  H12Y21707   5.398   6.282  13.960 -1.1036  1.6520 -1.0574
  177DOPC  C31321708   5.371   6.268  14.181 -0.2960  0.4145 -0.4590
  177DOPC  H13X21709   5.311   6.176  14.195  0.5435  0.1891  2.3160
  177DOPC  H13Y21710   5.477   6.244  14.202 -0.1739  0.8228 -0.5941
  177DOPC  C31421711   5.326   6.351  14.311  0.4046 -0.0158  0.3051
  177DOPC  H14X21712   5.363   6.454  14.293  1.9503 -0.9062 -2.0676
  177DOPC  H14Y21713   5.215   6.353  14.315  0.2424  0.7552 -2.7722
  177DOPC  C31521714   5.366   6.292  14.447  0.8734  0.1181  0.0541
  177DOPC  H15X21715   5.343   6.186  14.424 -3.0185  0.8251  0.0069
  177DOPC  H15Y21716   5.301   6.326  14.530  1.5000  0.1623  0.5336
  177DOPC  C31621717   5.509   6.294  14.489  0.1171 -0.1976 -0.6019
  177DOPC  H16X21718   5.571   6.265  14.401 -0.5110  2.6451 -2.0823
  177DOPC  H16Y21719   5.525   6.397  14.525 -1.1456 -0.0254 -0.5022
  177DOPC  C31721720   5.527   6.191  14.612  0.0054 -0.1761  0.7859
  177DOPC  H17X21721   5.470   6.218  14.703  1.4104 -3.7661  2.9724
  177DOPC  H17Y21722   5.481   6.093  14.586  2.0357 -0.4982 -2.1653
  177DOPC  C31821723   5.677   6.177  14.650  0.4430  0.3738 -0.5788
  177DOPC  H18X21724   5.717   6.271  14.694 -1.8158  1.3223 -0.4075
  177DOPC  H18Y21725   5.691   6.098  14.727  0.8786  2.4504  1.6150
  177DOPC  H18Z21726   5.739   6.160  14.559  1.5710  2.2160 -0.2035
  178DOPC     N21727   2.084   5.992  12.838 -0.5054  0.4012  0.3055
  178DOPC   C1221728   2.222   6.022  12.888 -0.3918 -0.0493 -0.2245
  178DOPC  H12A21729   2.242   6.124  12.858  0.8259 -0.0890  0.3771
  178DOPC  H12B21730   2.291   5.959  12.835  1.2202  1.1381  0.3736
  178DOPC   C1321731   1.977   6.067  12.902  0.1720 -0.6399 -0.1570
  178DOPC  H13A21732   2.002   6.077  13.007  3.1194  1.6059 -0.9137
  178DOPC  H13B21733   1.973   6.171  12.872 -0.7578 -0.6311 -0.0206
  178DOPC  H13C21734   1.878   6.028  12.888  1.1863 -2.8307 -1.8227
  178DOPC   C1421735   2.047   5.847  12.843 -0.2335 -0.2064 -0.1827
  178DOPC  H14A21736   1.945   5.834  12.810 -0.0898  1.0033 -1.1939
  178DOPC  H14B21737   2.112   5.795  12.774 -0.0120  2.4371 -2.1525
  178DOPC  H14C21738   2.067   5.808  12.941  0.4383  0.6967  0.0632
  178DOPC   C1521739   2.068   6.035  12.692 -0.3774 -0.9482  0.4054
  178DOPC  H15A21740   1.964   6.052  12.668 -0.3590  1.7909  1.8216
  178DOPC  H15B21741   2.107   5.960  12.625 -0.8782 -0.6032 -0.2870
  178DOPC  H15C21742   2.126   6.124  12.674 -0.5142 -0.4689  2.1736
  178DOPC   C1121743   2.240   6.006  13.038  0.3932 -0.1754  0.0258
  178DOPC  H11A21744   2.342   6.043  13.066  1.2557 -2.6196  0.3510
  178DOPC  H11B21745   2.166   6.057  13.102  0.7424  2.2367 -1.3638
  178DOPC     P21746   2.347   5.766  13.069 -0.5412 -0.2240  0.1746
  178DOPC   O1321747   2.405   5.754  12.934 -0.1130 -0.5283  0.2772
  178DOPC   O1421748   2.298   5.635  13.113 -0.1622 -0.1799 -0.1216
  178DOPC   O1221749   2.223   5.866  13.072 -0.1150 -0.2794  0.7904
  178DOPC   O1121750   2.458   5.825  13.163 -0.6254  0.4724 -0.3921
  178DOPC    C121751   2.423   5.874  13.297 -0.1071  0.2642  0.0719
  178DOPC    HA21752   2.414   5.791  13.370 -0.2458  1.2788  1.2501
  178DOPC    HB21753   2.332   5.938  13.290 -0.8813 -0.8672 -0.4001
  178DOPC    C221754   2.534   5.965  13.349  0.2000  0.3708 -0.1177
  178DOPC    HS21755   2.621   5.897  13.346 -1.0524 -1.2567 -1.0750
  178DOPC   O2121756   2.493   6.015  13.481 -0.2882 -0.2949 -0.5741
  178DOPC   C2121757   2.596   6.042  13.565  0.1924  1.2416  0.1019
  178DOPC   O2221758   2.710   6.008  13.534 -0.7689 -0.7678  0.4155
  178DOPC   C2221759   2.552   6.111  13.688 -0.0317 -0.5240 -0.0218
  178DOPC   H2R21760   2.445   6.136  13.677  0.3383  0.7098 -1.1507
  178DOPC   H2S21761   2.608   6.207  13.685  1.9973 -1.6598 -0.4022
  178DOPC    C321762   2.559   6.088  13.263 -0.2143 -0.6661 -0.1571
  178DOPC    HX21763   2.579   6.035  13.168  0.1987 -1.8563  0.5710
  178DOPC    HY21764   2.655   6.125  13.304 -0.6332  0.2344  0.0595
  178DOPC   O3121765   2.445   6.174  13.242  0.2211  0.3574 -0.4103
  178DOPC   C3121766   2.426   6.265  13.335  0.2668  0.1306  0.2093
  178DOPC   O3221767   2.505   6.295  13.427 -0.2005  0.3342  0.1727
  178DOPC   C3221768   2.298   6.345  13.320  0.0730  0.9227  0.5123
  178DOPC   H2X21769   2.314   6.415  13.235  1.2211  1.7781  1.3848
  178DOPC   H2Y21770   2.219   6.271  13.295  0.0449 -0.3081  3.7988
  178DOPC   C2321771   2.589   6.038  13.821  0.3315 -1.0513  0.4135
  178DOPC   H3R21772   2.692   5.997  13.808 -0.2336 -1.5199 -4.0454
  178DOPC   H3S21773   2.529   5.944  13.823 -1.4477  0.0444  0.6655
  178DOPC   C2421774   2.573   6.107  13.959 -0.6616 -0.3937  0.3256
  178DOPC   H4R21775   2.607   6.041  14.042 -2.2430 -0.6060  0.8355
  178DOPC   H4S21776   2.470   6.142  13.984  0.7500  2.6088  2.6215
  178DOPC   C2521777   2.639   6.248  13.968  0.3266  0.3144 -0.2026
  178DOPC   H5R21778   2.567   6.320  13.924 -2.2267  0.1193  3.2670
  178DOPC   H5S21779   2.740   6.238  13.922  1.6951  0.8994  2.4616
  178DOPC   C2621780   2.647   6.295  14.118  0.0200 -0.8263 -0.1308
  178DOPC   H6R21781   2.711   6.386  14.118  0.8809 -1.4188 -0.4436
  178DOPC   H6S21782   2.701   6.223  14.183 -1.4918 -2.2503 -0.4138
  178DOPC   C2721783   2.508   6.341  14.176  0.1345  0.0979 -0.0935
  178DOPC   H7R21784   2.436   6.257  14.173  1.5367 -1.1771  0.4092
  178DOPC   H7S21785   2.464   6.426  14.120 -2.3203 -0.6021  0.6500
  178DOPC   C2821786   2.519   6.400  14.318 -0.5310  0.5979  0.0793
  178DOPC   H8R21787   2.582   6.491  14.315  1.0820 -0.3351  2.4369
  178DOPC   H8S21788   2.588   6.335  14.377 -0.1522  0.9687  0.0559
  178DOPC   C2921789   2.385   6.408  14.390 -0.2084  0.6327 -0.3969
  178DOPC   H9R21790   2.299   6.448  14.335  1.4784  3.7022 -1.0311
  178DOPC  C21021791   2.360   6.335  14.505  0.3518 -0.8132  0.1239
  178DOPC  H10R21792   2.254   6.332  14.536  0.5833  0.7996  1.2046
  178DOPC  C21121793   2.448   6.244  14.589 -0.0309  0.4643  0.3655
  178DOPC  H11R21794   2.407   6.234  14.692  0.4119  1.5568  0.6608
  178DOPC  H11S21795   2.542   6.295  14.620  0.2084 -0.2614  0.8730
  178DOPC  C21221796   2.459   6.102  14.530 -0.0609  0.6104  0.1043
  178DOPC  H12R21797   2.512   6.113  14.433 -3.0541  0.2689 -1.7031
  178DOPC  H12S21798   2.360   6.056  14.511  0.6336 -0.6967 -0.4275
  178DOPC  C21321799   2.524   6.006  14.619  0.4625  0.3785  0.4895
  178DOPC  H13R21800   2.460   5.999  14.709  0.5196 -0.1252  0.4943
  178DOPC  H13S21801   2.620   6.047  14.658 -0.0327 -0.9121  3.3516
  178DOPC  C21421802   2.541   5.866  14.555  0.1719  0.3015  0.3572
  178DOPC  H14R21803   2.440   5.851  14.513  0.5582 -3.1627  0.4456
  178DOPC  H14S21804   2.551   5.785  14.630 -0.4053 -1.4558 -1.3989
  178DOPC  C21521805   2.647   5.854  14.440  0.1595 -0.1850  0.0036
  178DOPC  H15R21806   2.621   5.921  14.355 -2.5538 -0.2167  0.7178
  178DOPC  H15S21807   2.646   5.751  14.400  0.6097 -0.8872  1.6961
  178DOPC  C21621808   2.801   5.856  14.478  0.7552 -0.0219  0.3604
  178DOPC  H16R21809   2.821   5.793  14.567 -0.0404  0.5425  0.9531
  178DOPC  H16S21810   2.825   5.960  14.510  0.9698  0.5909 -1.6816
  178DOPC  C21721811   2.893   5.822  14.363  0.1167 -0.0139 -0.4390
  178DOPC  H17R21812   2.866   5.874  14.269  0.2712  0.2618 -0.3334
  178DOPC  H17S21813   2.896   5.714  14.338  0.1529  0.0967 -0.9178
  178DOPC  C21821814   3.035   5.878  14.392 -0.3744 -0.0680 -0.1414
  178DOPC  H18R21815   3.089   5.835  14.479 -0.5955  0.7951  0.4286
  178DOPC  H18S21816   3.023   5.988  14.401  0.8793  0.1288 -0.6139
  178DOPC  H18T21817   3.103   5.862  14.305 -3.0102 -0.6104 -2.2411
  178DOPC   C3321818   2.254   6.439  13.433  0.3019  0.2602 -0.0897
  178DOPC   H3X21819   2.155   6.479  13.402  0.2929 -1.1818 -2.1116
  178DOPC   H3Y21820   2.331   6.518  13.439 -0.7259  1.2497  0.6498
  178DOPC   C3421821   2.229   6.368  13.563  0.2203 -0.1766 -0.4229
  178DOPC   H4X21822   2.315   6.304  13.591 -0.7589 -0.5299  1.9644
  178DOPC   H4Y21823   2.142   6.299  13.557  1.6895 -2.0724 -0.5880
  178DOPC   C3521824   2.189   6.468  13.670  0.2437 -0.2709  0.4537
  178DOPC   H5X21825   2.105   6.528  13.632  0.4635 -0.1366  0.1765
  178DOPC   H5Y21826   2.269   6.542  13.690  0.4549 -0.4297  0.1996
  178DOPC   C3621827   2.154   6.393  13.804  0.0166  0.3415  0.2419
  178DOPC   H6X21828   2.061   6.338  13.779  1.0468 -1.1935 -0.3751
  178DOPC   H6Y21829   2.232   6.321  13.836 -0.2357  0.0432  0.1865
  178DOPC   C3721830   2.136   6.497  13.917 -0.5435 -0.3630 -0.2888
  178DOPC   H7X21831   2.219   6.571  13.923 -0.1086 -0.8710 -0.0338
  178DOPC   H7Y21832   2.049   6.560  13.885  1.3525  1.5467 -2.0215
  178DOPC   C3821833   2.127   6.442  14.063 -0.7989 -0.0236 -0.7718
  178DOPC   H8X21834   2.114   6.526  14.135 -0.3941  0.4177 -1.2047
  178DOPC   H8Y21835   2.225   6.399  14.090 -1.7035 -0.3655  2.3486
  178DOPC   C3921836   2.019   6.341  14.061  0.0077  0.7287  0.1458
  178DOPC   H9X21837   1.925   6.383  14.023  0.5168  0.9726 -0.9181
  178DOPC  C31021838   2.023   6.214  14.109  0.0299 -0.1485  0.1322
  178DOPC  H10X21839   1.934   6.150  14.099  0.2386 -0.1478 -2.2229
  178DOPC  C31121840   2.137   6.146  14.177 -0.0535 -0.1214  0.1682
  178DOPC  H11X21841   2.108   6.127  14.282 -0.3477 -0.2545  0.0626
  178DOPC  H11Y21842   2.227   6.212  14.169 -1.2210  1.5298  0.1604
  178DOPC  C31221843   2.173   6.010  14.115  0.3098  0.2506 -0.1612
  178DOPC  H12X21844   2.197   6.021  14.007 -0.3134 -1.3672 -0.4971
  178DOPC  H12Y21845   2.093   5.933  14.116 -1.0108  1.5717 -0.7887
  178DOPC  C31321846   2.296   5.943  14.185  0.9779  0.0517  1.2247
  178DOPC  H13X21847   2.385   6.005  14.161 -0.4987  1.4052 -1.1553
  178DOPC  H13Y21848   2.290   5.936  14.296 -0.0024  0.9020  1.2488
  178DOPC  C31421849   2.328   5.793  14.138  0.4889 -0.5711 -0.0929
  178DOPC  H14X21850   2.248   5.750  14.074  1.6272 -1.4683 -0.9593
  178DOPC  H14Y21851   2.423   5.793  14.080  0.4537  1.4610 -0.2112
  178DOPC  C31521852   2.346   5.694  14.262  0.2558  0.0018 -0.0912
  178DOPC  H15X21853   2.423   5.719  14.338  1.2115 -3.4144  0.2151
  178DOPC  H15Y21854   2.375   5.598  14.215  0.0452 -0.2529  0.2974
  178DOPC  C31621855   2.217   5.674  14.342 -0.1258 -0.1672 -0.3413
  178DOPC  H16X21856   2.243   5.623  14.437  2.6760  2.1558  0.2548
  178DOPC  H16Y21857   2.171   5.769  14.376  1.5098  1.0255 -1.3435
  178DOPC  C31721858   2.119   5.591  14.266  0.0282  0.0951  0.4967
  178DOPC  H17X21859   2.102   5.636  14.166  3.6708 -1.7717 -1.1758
  178DOPC  H17Y21860   2.169   5.494  14.243 -0.3593 -0.3065  1.2999
  178DOPC  C31821861   1.984   5.557  14.333  0.2851  0.6910 -0.0542
  178DOPC  H18X21862   1.918   5.502  14.262  0.4537  0.7950 -0.2922
  178DOPC  H18Y21863   1.993   5.493  14.423  0.1459 -1.6566 -1.5882
  178DOPC  H18Z21864   1.944   5.657  14.359  2.6154  1.2733  1.5501
  179DOPC     N21865   4.488   6.002  12.675 -0.0044 -1.0517  0.1612
  179DOPC   C1221866   4.637   6.004  12.701 -0.3469 -0.0600  0.5090
  179DOPC  H12A21867   4.671   5.904  12.681  0.5653  0.1492  0.9306
  179DOPC  H12B21868   4.655   6.023  12.806 -0.6458  0.0152  0.5463
  179DOPC   C1321869   4.430   6.140  12.709  0.5833 -0.7494 -0.0586
  179DOPC  H13A21870   4.495   6.215  12.665 -1.1772  0.9097  0.0187
  179DOPC  H13B21871   4.326   6.150  12.682  0.9148 -0.8447 -1.4564
  179DOPC  H13C21872   4.433   6.142  12.817  1.0721 -1.1932 -0.0606
  179DOPC   C1421873   4.430   5.898  12.764 -0.4810  0.1796 -0.5178
  179DOPC  H14A21874   4.469   5.801  12.737 -1.0595  0.2928 -1.8486
  179DOPC  H14B21875   4.456   5.913  12.867  0.8281 -0.6807 -0.7059
  179DOPC  H14C21876   4.324   5.883  12.749 -0.8263 -0.4689  2.1645
  179DOPC   C1521877   4.448   5.982  12.534  0.1171  0.7024  0.7653
  179DOPC  H15A21878   4.497   5.891  12.502  1.0110  1.9074 -1.5429
  179DOPC  H15B21879   4.489   6.054  12.464  1.5665  0.0058  0.8627
  179DOPC  H15C21880   4.343   5.960  12.524  0.5401 -0.8431 -0.7909
  179DOPC   C1121881   4.727   6.101  12.617  0.4641 -0.2099  0.5375
  179DOPC  H11A21882   4.833   6.075  12.636  0.9563 -0.9404 -2.6797
  179DOPC  H11B21883   4.712   6.081  12.509  0.6369  2.9411 -0.1912
  179DOPC     P21884   4.724   6.308  12.781  0.1314  0.0122 -0.2477
  179DOPC   O1321885   4.603   6.383  12.811 -0.3870  0.4275  0.3105
  179DOPC   O1421886   4.850   6.386  12.772  0.4059 -0.1327 -0.0105
  179DOPC   O1221887   4.702   6.236  12.643 -0.0934 -0.1216  0.3540
  179DOPC   O1121888   4.739   6.186  12.885 -0.0493 -0.0215 -0.0748
  179DOPC    C121889   4.863   6.158  12.946  0.2544 -0.3046  0.8969
  179DOPC    HA21890   4.939   6.166  12.865 -0.7535  2.4033  0.0880
  179DOPC    HB21891   4.853   6.053  12.980 -1.6239 -0.0416  1.2818
  179DOPC    C221892   4.873   6.249  13.070 -0.1624 -0.0459  0.1433
  179DOPC    HS21893   4.860   6.353  13.034 -0.6899 -0.0687  0.2668
  179DOPC   O2121894   5.005   6.225  13.120 -0.0092  0.0523  0.1642
  179DOPC   C2121895   5.045   6.321  13.197 -0.1120 -0.2338 -0.3868
  179DOPC   O2221896   4.985   6.429  13.204 -0.4136  0.1878 -0.1316
  179DOPC   C2221897   5.176   6.284  13.268 -0.1288 -0.4804 -0.3979
  179DOPC   H2R21898   5.244   6.279  13.181 -2.0923  0.5423 -2.0738
  179DOPC   H2S21899   5.167   6.187  13.322  1.6319  0.7575  2.3625
  179DOPC    C321900   4.759   6.228  13.179  0.3393 -0.2902 -0.4045
  179DOPC    HX21901   4.669   6.255  13.119 -0.2835  2.4815  1.5887
  179DOPC    HY21902   4.773   6.301  13.262 -0.4221 -1.7887  1.1075
  179DOPC   O3121903   4.751   6.094  13.233 -0.0240 -0.0662 -0.1956
  179DOPC   C3121904   4.818   6.084  13.355 -0.3912 -0.0922  0.6569
  179DOPC   O3221905   4.901   6.165  13.384  0.1680  0.7907 -0.3259
  179DOPC   C3221906   4.777   5.964  13.438 -0.2671 -0.3212  0.0653
  179DOPC   H2X21907   4.713   5.896  13.377  0.8186 -2.0164  0.7245
  179DOPC   H2Y21908   4.867   5.902  13.460  0.3937  0.9189  0.9685
  179DOPC   C2321909   5.232   6.393  13.361  0.1612 -0.2488  0.0888
  179DOPC   H3R21910   5.212   6.491  13.313 -1.2419 -0.9463 -0.8410
  179DOPC   H3S21911   5.340   6.396  13.386  0.0502 -0.5451  0.6179
  179DOPC   C2421912   5.164   6.394  13.500 -0.3593  0.3059 -0.2081
  179DOPC   H4R21913   5.181   6.300  13.558 -0.4216  0.5248  0.1694
  179DOPC   H4S21914   5.060   6.392  13.462 -0.5566 -1.1623  0.3301
  179DOPC   C2521915   5.204   6.516  13.586  0.3387 -0.4409  0.4044
  179DOPC   H5R21916   5.123   6.548  13.655 -0.7378  2.6874 -2.0745
  179DOPC   H5S21917   5.210   6.607  13.523  1.7954  0.8997  2.3685
  179DOPC   C2621918   5.323   6.486  13.669 -0.0946  0.1514  0.2442
  179DOPC   H6R21919   5.405   6.459  13.601 -1.7757 -0.4605 -1.6275
  179DOPC   H6S21920   5.309   6.395  13.730  1.2421  0.0574  0.4366
  179DOPC   C2721921   5.368   6.600  13.761  0.3062  0.0935 -0.1527
  179DOPC   H7R21922   5.295   6.601  13.846  1.3882  1.5778  0.8041
  179DOPC   H7S21923   5.362   6.696  13.707 -0.5852  2.2193  3.4261
  179DOPC   C2821924   5.510   6.587  13.809  0.4030 -0.3688  0.1863
  179DOPC   H8R21925   5.581   6.629  13.735 -0.5406 -0.6568 -0.9124
  179DOPC   H8S21926   5.522   6.479  13.831 -0.5496 -0.3981  0.6133
  179DOPC   C2921927   5.519   6.680  13.931 -1.1165 -0.3044  0.1393
  179DOPC   H9R21928   5.471   6.778  13.921  0.9814  0.8809  1.2213
  179DOPC  C21021929   5.591   6.663  14.042 -0.8595  0.0040  0.6212
  179DOPC  H10R21930   5.594   6.745  14.115 -1.7058 -0.5972  1.3455
  179DOPC  C21121931   5.662   6.541  14.073 -0.3154  0.6491  0.4593
  179DOPC  H11R21932   5.656   6.456  14.001 -0.9144  1.1101 -0.0541
  179DOPC  H11S21933   5.645   6.504  14.176 -0.5673 -0.1118  0.1523
  179DOPC  C21221934   5.815   6.587  14.074 -0.9027  0.2180  0.5174
  179DOPC  H12R21935   5.834   6.685  14.123 -0.3487 -0.6808  2.1587
  179DOPC  H12S21936   5.842   6.599  13.967  0.9813 -2.3948  0.6095
  179DOPC  C21321937   5.915   6.483  14.129  0.1537  0.7082 -0.1025
  179DOPC  H13R21938   5.900   6.389  14.071 -0.2127  2.0886 -2.3981
  179DOPC  H13S21939   5.907   6.461  14.237 -1.8291  0.1788 -0.3183
  179DOPC  C21421940   6.067   6.507  14.079  0.1929 -0.6974 -0.2318
  179DOPC  H14R21941   6.064   6.523  13.969  0.8624 -0.5523 -0.2386
  179DOPC  H14S21942   6.127   6.418  14.109  1.1963 -0.0995 -0.4035
  179DOPC  C21521943   6.120   6.629  14.153  0.6442 -0.7029 -0.3164
  179DOPC  H15R21944   6.058   6.716  14.122 -0.7764 -0.9428  1.6581
  179DOPC  H15S21945   6.223   6.654  14.117  0.5131 -1.0064 -0.9255
  179DOPC  C21621946   6.133   6.634  14.303 -0.7608  0.2392 -0.8279
  179DOPC  H16R21947   6.186   6.548  14.350 -2.6886 -0.1332  0.8114
  179DOPC  H16S21948   6.028   6.620  14.339 -0.4143 -2.2022 -0.5845
  179DOPC  C21721949   6.188   6.766  14.355 -0.2012 -0.1273  0.1104
  179DOPC  H17R21950   6.293   6.792  14.328 -0.0014  0.5390  1.4683
  179DOPC  H17S21951   6.189   6.748  14.464  2.0590 -2.6618 -0.2076
  179DOPC  C21821952   6.090   6.881  14.337  0.3645  0.3409 -0.4353
  179DOPC  H18R21953   5.997   6.864  14.396  0.5870  2.9672  0.8407
  179DOPC  H18S21954   6.057   6.901  14.233 -1.6176  0.8105  0.2244
  179DOPC  H18T21955   6.129   6.978  14.375 -1.8004  1.7495 -1.5776
  179DOPC   C3321956   4.719   6.023  13.577 -0.3214 -0.0922  0.4204
  179DOPC   H3X21957   4.640   6.100  13.559 -2.5581 -2.3788 -0.0951
  179DOPC   H3Y21958   4.807   6.059  13.634 -1.6780  3.2869  0.6197
  179DOPC   C3421959   4.657   5.910  13.669 -0.5516 -0.0388  0.9294
  179DOPC   H4X21960   4.730   5.828  13.687 -0.7631 -0.5458 -0.4701
  179DOPC   H4Y21961   4.575   5.869  13.607 -0.4566  3.5152 -1.8914
  179DOPC   C3521962   4.599   5.970  13.800  0.0165  0.0069 -0.0081
  179DOPC   H5X21963   4.676   6.037  13.845 -0.4054  1.3229 -1.1737
  179DOPC   H5Y21964   4.573   5.890  13.873 -1.2264  0.1955 -0.2133
  179DOPC   C3621965   4.475   6.059  13.786  0.2047 -0.1605 -0.6074
  179DOPC   H6X21966   4.504   6.156  13.741 -1.9759  0.9441  0.2469
  179DOPC   H6Y21967   4.400   6.011  13.719  0.3779 -1.0105 -0.2106
  179DOPC   C3721968   4.410   6.070  13.925 -0.2476 -0.3076  0.7138
  179DOPC   H7X21969   4.317   6.127  13.906 -0.3112 -0.2550  1.1620
  179DOPC   H7Y21970   4.393   5.967  13.963  1.6639 -1.5587 -1.5655
  179DOPC   C3821971   4.505   6.152  14.014  0.4295  0.1117 -0.4437
  179DOPC   H8X21972   4.527   6.242  13.953  0.8795 -0.6468 -1.4404
  179DOPC   H8Y21973   4.597   6.092  14.032 -0.5324 -1.2802 -0.0003
  179DOPC   C3921974   4.422   6.180  14.143  0.1205 -1.1610  0.5140
  179DOPC   H9X21975   4.316   6.195  14.119 -0.2655 -2.5056  1.2993
  179DOPC  C31021976   4.460   6.196  14.271 -0.1694 -0.4882  0.1810
  179DOPC  H10X21977   4.388   6.230  14.347  0.5398 -0.8629  1.0388
  179DOPC  C31121978   4.597   6.172  14.328 -0.1230 -0.2586 -0.0137
  179DOPC  H11X21979   4.673   6.122  14.264 -1.5980 -0.5519 -1.6002
  179DOPC  H11Y21980   4.583   6.104  14.415  1.1827 -2.2560 -1.2618
  179DOPC  C31221981   4.668   6.299  14.372 -0.1274 -0.4902  0.4429
  179DOPC  H12X21982   4.611   6.368  14.438 -0.2278  0.0924 -0.2386
  179DOPC  H12Y21983   4.678   6.350  14.274 -1.3189  1.0840  1.1023
  179DOPC  C31321984   4.813   6.278  14.441  0.3987  0.0174  0.3015
  179DOPC  H13X21985   4.785   6.209  14.523 -3.5858  1.1850  0.1202
  179DOPC  H13Y21986   4.881   6.229  14.368  1.9420  0.7166  1.1990
  179DOPC  C31421987   4.872   6.412  14.492  0.2809 -0.3545 -0.4226
  179DOPC  H14X21988   4.895   6.482  14.409  1.0153  1.4162  1.1881
  179DOPC  H14Y21989   4.796   6.463  14.555 -0.0906 -1.0561 -0.2869
  179DOPC  C31521990   5.003   6.387  14.562 -0.3859 -0.2538  0.4616
  179DOPC  H15X21991   5.069   6.476  14.547 -1.9149  1.0534  1.1170
  179DOPC  H15Y21992   5.048   6.297  14.516 -0.0566 -0.2388  0.7549
  179DOPC  C31621993   4.982   6.381  14.713 -0.3203 -0.2814 -0.9188
  179DOPC  H16X21994   4.925   6.470  14.747  2.0452  0.4458  1.4435
  179DOPC  H16Y21995   4.915   6.294  14.733 -2.3154  1.3923  0.0421
  179DOPC  C31721996   5.120   6.380  14.789  0.6849 -1.0981 -0.5856
  179DOPC  H17X21997   5.187   6.301  14.748  1.1517 -1.0001 -0.0262
  179DOPC  H17Y21998   5.175   6.471  14.754 -1.3353 -0.2935 -1.8567
  179DOPC  C31821999   5.110   6.378  14.944  0.0987  0.6800  0.1581
  179DOPC  H18X22000   5.063   6.284  14.980  0.9543  0.1482 -0.0730
  179DOPC  H18Y22001   5.208   6.376  14.997 -0.1420  1.2913  0.6474
  179DOPC  H18Z22002   5.046   6.458  14.987 -0.5835  1.1239 -1.5952
  180DOPC     N22003   6.134   4.882  12.749  0.3122  0.2249  0.6447
  180DOPC   C1222004   6.099   4.778  12.854  0.2462 -0.1677  0.4178
  180DOPC  H12A22005   6.049   4.695  12.806 -0.8464  0.9667 -0.4923
  180DOPC  H12B22006   6.031   4.824  12.924 -0.4139 -2.3069  1.2662
  180DOPC   C1322007   6.009   4.918  12.669  0.2234  0.2672  0.3774
  180DOPC  H13A22008   5.983   4.830  12.611  2.7002 -0.0718 -0.3339
  180DOPC  H13B22009   5.925   4.940  12.734 -0.7774 -0.7158 -0.5349
  180DOPC  H13C22010   6.024   4.994  12.594 -2.7862 -0.4525 -1.1158
  180DOPC   C1422011   6.240   4.830  12.655  0.2044 -0.0450 -0.5042
  180DOPC  H14A22012   6.221   4.733  12.611  0.6678 -0.0644 -0.6662
  180DOPC  H14B22013   6.255   4.890  12.567 -1.8613  0.0231 -0.8749
  180DOPC  H14C22014   6.334   4.825  12.708  0.5231 -0.0109 -1.0612
  180DOPC   C1522015   6.174   5.011  12.811 -0.0333 -0.4446  0.2473
  180DOPC  H15A22016   6.095   5.071  12.854  0.8708  2.2599 -1.5630
  180DOPC  H15B22017   6.219   5.069  12.731  0.6444 -2.4584 -0.9039
  180DOPC  H15C22018   6.251   4.996  12.885  2.2392  1.6549 -1.5291
  180DOPC   C1122019   6.219   4.712  12.938  0.0388  0.5093  0.3699
  180DOPC  H11A22020   6.272   4.795  12.992 -0.2636  0.6096  0.5150
  180DOPC  H11B22021   6.161   4.644  13.003 -0.5496  1.7228  1.1593
  180DOPC     P22022   6.346   4.494  12.847  0.0989  0.2257 -0.1792
  180DOPC   O1322023   6.434   4.461  12.732 -0.1846  0.6470 -0.1585
  180DOPC   O1422024   6.228   4.407  12.874  0.1648 -0.3982  0.2022
  180DOPC   O1222025   6.311   4.648  12.853  0.7386  0.8092  0.3904
  180DOPC   O1122026   6.440   4.472  12.972  0.1420  0.1970  0.4142
  180DOPC    C122027   6.392   4.435  13.102  0.3613 -0.3840 -0.5525
  180DOPC    HA22028   6.304   4.370  13.081  1.1648 -0.5174 -4.1106
  180DOPC    HB22029   6.351   4.528  13.146  1.7138  1.1355 -2.3529
  180DOPC    C222030   6.504   4.368  13.186 -0.0896  0.6090 -0.1271
  180DOPC    HS22031   6.458   4.340  13.284  1.3749  1.3708  0.8128
  180DOPC   O2122032   6.613   4.466  13.208  0.0497  0.3493 -0.7057
  180DOPC   C2122033   6.577   4.567  13.279  0.6231  0.1954 -0.0000
  180DOPC   O2222034   6.463   4.578  13.322 -0.0762 -0.8025 -0.1021
  180DOPC   C2222035   6.692   4.670  13.292 -0.0868  0.8134 -0.3129
  180DOPC   H2R22036   6.666   4.766  13.340 -0.3755  0.2125  0.7527
  180DOPC   H2S22037   6.749   4.689  13.198  1.4461  0.7549  0.5775
  180DOPC    C322038   6.560   4.238  13.136 -0.3277 -0.0701  0.1624
  180DOPC    HX22039   6.625   4.255  13.048 -0.9188  0.3638 -0.2019
  180DOPC    HY22040   6.472   4.179  13.103  0.3511 -0.4554 -0.9875
  180DOPC   O3122041   6.635   4.169  13.233 -0.3751 -0.1719  0.4777
  180DOPC   C3122042   6.766   4.180  13.227 -0.5230  0.0474  0.0793
  180DOPC   O3222043   6.829   4.263  13.164 -0.0366  0.3599  0.4909
  180DOPC   C3222044   6.829   4.072  13.312 -0.0009  0.0335 -0.2996
  180DOPC   H2X22045   6.752   4.001  13.348  0.3783  1.5620  4.1894
  180DOPC   H2Y22046   6.912   4.014  13.265  0.0995  1.4726 -1.9636
  180DOPC   C2322047   6.792   4.608  13.401  0.2674 -0.4659  0.1092
  180DOPC   H3R22048   6.885   4.669  13.399 -0.0859  0.1495  1.4737
  180DOPC   H3S22049   6.829   4.507  13.374 -0.0157 -0.2054 -1.3993
  180DOPC   C2422050   6.739   4.598  13.543  0.1130  0.7532  0.0068
  180DOPC   H4R22051   6.646   4.539  13.534 -0.2902  1.7630 -3.7970
  180DOPC   H4S22052   6.730   4.701  13.584  1.6339  1.0105 -0.2375
  180DOPC   C2522053   6.828   4.522  13.650 -0.3069 -0.4454 -0.2605
  180DOPC   H5R22054   6.932   4.561  13.658 -0.6350  0.3210  0.4712
  180DOPC   H5S22055   6.837   4.415  13.622 -0.8394 -0.2604 -1.1559
  180DOPC   C2622056   6.763   4.516  13.781  0.2513 -0.8062  0.1584
  180DOPC   H6R22057   6.657   4.487  13.768 -0.8801  2.5120  1.0670
  180DOPC   H6S22058   6.751   4.614  13.831  0.6474 -1.6972  2.0959
  180DOPC   C2722059   6.838   4.424  13.877  0.0231 -0.5777 -0.2761
  180DOPC   H7R22060   6.933   4.473  13.906 -0.0771  0.3245 -1.4233
  180DOPC   H7S22061   6.866   4.331  13.823 -2.5188 -0.4125 -2.0472
  180DOPC   C2822062   6.763   4.396  14.009  0.3466  0.2600 -0.4304
  180DOPC   H8R22063   6.809   4.306  14.054  1.5358 -0.3951 -2.8101
  180DOPC   H8S22064   6.664   4.366  13.969  0.1514  0.1555  0.1233
  180DOPC   C2922065   6.741   4.519  14.099  0.4275  0.0566  0.3752
  180DOPC   H9R22066   6.651   4.576  14.071 -0.9873 -0.9382  2.5854
  180DOPC  C21022067   6.831   4.564  14.192  0.0149 -0.2558  0.0016
  180DOPC  H10R22068   6.805   4.644  14.263  1.7605  1.6914 -1.4178
  180DOPC  C21122069   6.964   4.494  14.220 -0.0858  0.1225  0.3361
  180DOPC  H11R22070   7.041   4.562  14.179 -0.1111  0.9011  1.5275
  180DOPC  H11S22071   6.982   4.395  14.173 -0.6239  0.0818  0.2124
  180DOPC  C21222072   6.986   4.458  14.365  0.0627  0.0504  0.2171
  180DOPC  H12R22073   7.063   4.379  14.382 -0.1705 -0.4306 -0.8560
  180DOPC  H12S22074   6.900   4.402  14.407 -1.2064  2.3408  0.8457
  180DOPC  C21322075   7.027   4.572  14.451 -0.0894 -0.6772 -0.1869
  180DOPC  H13R22076   6.944   4.645  14.462  0.7259 -0.1179  3.3345
  180DOPC  H13S22077   7.114   4.627  14.408  0.5169 -1.1642  0.4166
  180DOPC  C21422078   7.053   4.536  14.599  0.2163 -0.2664 -0.0250
  180DOPC  H14R22079   7.107   4.440  14.611 -1.7641 -1.4205  0.1120
  180DOPC  H14S22080   6.952   4.508  14.636  0.3382 -0.7044 -0.0129
  180DOPC  C21522081   7.127   4.651  14.679  0.1667 -0.4619  0.5490
  180DOPC  H15R22082   7.062   4.742  14.684 -1.1622 -1.3383 -0.1769
  180DOPC  H15S22083   7.219   4.684  14.626 -0.0808 -0.3628  0.1749
  180DOPC  C21622084   7.163   4.613  14.829 -0.3179 -0.4541  0.4757
  180DOPC  H16R22085   7.254   4.549  14.819  0.2424  0.2191  1.1682
  180DOPC  H16S22086   7.078   4.567  14.884 -0.4316 -1.3971 -0.4415
  180DOPC  C21722087   7.209   4.740  14.892  0.2537 -0.1833 -0.5924
  180DOPC  H17R22088   7.128   4.812  14.917 -0.8190 -2.4258  3.0958
  180DOPC  H17S22089   7.270   4.799  14.821  0.0030  0.4198 -0.3200
  180DOPC  C21822090   7.291   4.717  15.019  0.3266  0.1369 -0.6584
  180DOPC  H18R22091   7.238   4.636  15.074 -1.8672  2.0264  0.1882
  180DOPC  H18S22092   7.294   4.807  15.084  0.6493 -1.0990  1.1159
  180DOPC  H18T22093   7.396   4.688  14.995  0.2119  0.5514 -1.7222
  180DOPC   C3322094   6.891   4.138  13.436 -0.0271 -0.6046 -0.0620
  180DOPC   H3X22095   6.812   4.197  13.487  0.9666  1.6944 -1.0470
  180DOPC   H3Y22096   6.973   4.211  13.421 -1.0011  1.4751  3.5448
  180DOPC   C3422097   6.946   4.033  13.523  0.6200  0.5148  0.7114
  180DOPC   H4X22098   7.032   3.983  13.473  0.7990 -0.8235  2.2463
  180DOPC   H4Y22099   6.869   3.953  13.537 -0.9073  1.9373  0.7038
  180DOPC   C3522100   6.986   4.093  13.658 -0.5054  0.0444  0.4809
  180DOPC   H5X22101   6.894   4.140  13.700  0.3601  1.5117  0.8058
  180DOPC   H5Y22102   7.064   4.169  13.637 -2.4161  2.3304  1.2261
  180DOPC   C3622103   7.047   3.992  13.761  0.2895 -0.5898  0.4064
  180DOPC   H6X22104   6.965   3.920  13.784  0.1890 -0.6630 -0.1630
  180DOPC   H6Y22105   7.124   3.934  13.706 -0.1396 -0.9074  0.1305
  180DOPC   C3722106   7.095   4.040  13.893  0.2801 -0.9410  0.1681
  180DOPC   H7X22107   7.138   4.141  13.876 -1.6600 -0.2723 -1.2032
  180DOPC   H7Y22108   7.001   4.062  13.948 -0.0548 -2.4843  0.2654
  180DOPC   C3822109   7.196   3.953  13.958 -0.8395 -0.1233  0.3498
  180DOPC   H8X22110   7.278   4.018  13.994  0.0606 -0.6730 -0.6510
  180DOPC   H8Y22111   7.246   3.882  13.889 -1.7491 -1.2675  0.8138
  180DOPC   C3922112   7.152   3.855  14.064 -0.6658 -0.3396  0.0064
  180DOPC   H9X22113   7.121   3.759  14.019 -0.4869 -0.7545  0.7464
  180DOPC  C31022114   7.138   3.878  14.194  1.1529 -0.5281 -0.3940
  180DOPC  H10X22115   7.091   3.800  14.256  2.5172 -1.1245 -0.0587
  180DOPC  C31122116   7.165   3.997  14.272  0.3417 -0.6637 -0.0350
  180DOPC  H11X22117   7.079   4.066  14.265  1.0120  0.1324 -0.6432
  180DOPC  H11Y22118   7.243   4.056  14.219 -0.5915 -0.2178 -0.9351
  180DOPC  C31222119   7.204   3.969  14.422  0.3593 -0.2385  0.5463
  180DOPC  H12X22120   7.299   3.912  14.425  0.3318 -0.3417 -0.2947
  180DOPC  H12Y22121   7.130   3.890  14.448  0.2676 -0.1910  0.4283
  180DOPC  C31322122   7.198   4.089  14.522 -0.9759  0.9005  0.0182
  180DOPC  H13X22123   7.286   4.156  14.512  1.2057 -1.7789 -0.2384
  180DOPC  H13Y22124   7.105   4.147  14.508 -0.6475  1.0089 -2.0299
  180DOPC  C31422125   7.205   4.046  14.673 -0.5681  0.1203 -0.7788
  180DOPC  H14X22126   7.122   3.979  14.703  0.5383 -0.2435  1.6626
  180DOPC  H14Y22127   7.306   4.002  14.683 -0.6105  0.2787  0.5242
  180DOPC  C31522128   7.196   4.170  14.767 -0.2673 -0.5754 -0.1468
  180DOPC  H15X22129   7.103   4.224  14.741 -0.7927 -2.6131 -3.0472
  180DOPC  H15Y22130   7.283   4.238  14.752 -0.2175 -0.6898 -0.3849
  180DOPC  C31622131   7.223   4.140  14.910  0.5630 -0.2511 -0.6890
  180DOPC  H16X22132   7.135   4.080  14.942  1.5891 -1.4213  0.0241
  180DOPC  H16Y22133   7.320   4.093  14.939  0.7932 -0.2940 -1.5106
  180DOPC  C31722134   7.228   4.268  15.006 -0.0926  0.6092 -0.0713
  180DOPC  H17X22135   7.313   4.330  14.972  1.7432 -1.6567  0.1545
  180DOPC  H17Y22136   7.127   4.313  14.989 -0.9897 -1.1980  0.1993
  180DOPC  C31822137   7.235   4.226  15.153  0.2043  0.2661  0.1248
  180DOPC  H18X22138   7.155   4.159  15.190  0.2304 -2.0527 -3.4893
  180DOPC  H18Y22139   7.331   4.172  15.165  0.1548  0.4713  1.6341
  180DOPC  H18Z22140   7.241   4.304  15.232  2.1859 -2.6449  3.1117
  181DOPC     N22141   0.803   2.707  12.867  0.5145  0.0801  0.1662
  181DOPC   C1222142   0.689   2.654  12.781  0.1188 -0.4635 -0.3293
  181DOPC  H12A22143   0.643   2.575  12.838 -0.6560 -2.4387 -3.4405
  181DOPC  H12B22144   0.730   2.609  12.691 -2.7136 -2.4220 -0.7601
  181DOPC   C1322145   0.903   2.607  12.897 -0.1519 -0.0199  0.0291
  181DOPC  H13A22146   0.998   2.653  12.922  0.5377 -0.6112 -1.3785
  181DOPC  H13B22147   0.863   2.546  12.976  0.5155  1.4737  1.5921
  181DOPC  H13C22148   0.926   2.552  12.807  1.8501 -0.8534  0.9925
  181DOPC   C1422149   0.748   2.760  12.993  1.1431 -0.3411  0.0482
  181DOPC  H14A22150   0.666   2.830  12.991  0.1412 -1.2826  2.8015
  181DOPC  H14B22151   0.700   2.681  13.049 -0.3792 -0.8902 -1.9034
  181DOPC  H14C22152   0.826   2.807  13.051 -0.2685  1.3622  0.6320
  181DOPC   C1522153   0.869   2.825  12.797 -0.2303  0.4487  0.4267
  181DOPC  H15A22154   0.792   2.901  12.790 -1.0735 -0.4803 -1.1792
  181DOPC  H15B22155   0.897   2.812  12.693  2.2589  1.7857  0.8600
  181DOPC  H15C22156   0.951   2.866  12.854  2.0463 -1.1171 -1.5288
  181DOPC   C1122157   0.566   2.751  12.740  0.7644  0.4836 -0.2115
  181DOPC  H11A22158   0.623   2.829  12.686  1.0064 -1.9237 -3.7710
  181DOPC  H11B22159   0.503   2.701  12.663  1.8695 -0.4830 -0.5103
  181DOPC     P22160   0.451   2.955  12.871 -0.1127  0.0843 -0.0031
  181DOPC   O1322161   0.318   2.952  12.931  0.1396  0.0240  0.4364
  181DOPC   O1422162   0.460   3.027  12.739 -0.3180 -0.6688  0.1584
  181DOPC   O1222163   0.497   2.800  12.862  0.1561 -0.1924 -0.3086
  181DOPC   O1122164   0.555   3.001  12.977 -0.0595 -0.2985  0.1716
  181DOPC    C122165   0.520   3.114  13.062  0.0629 -0.0140  0.1377
  181DOPC    HA22166   0.413   3.142  13.070  0.4538  1.0844  1.7916
  181DOPC    HB22167   0.547   3.211  13.014 -2.5205  1.3127  1.1512
  181DOPC    C222168   0.583   3.104  13.203 -0.7574 -0.0261 -0.4965
  181DOPC    HS22169   0.691   3.086  13.183 -1.0028 -1.1518 -0.8855
  181DOPC   O2122170   0.539   2.995  13.277  0.9223 -0.1146  0.4267
  181DOPC   C2122171   0.623   2.949  13.373  0.1736 -0.2856 -0.1848
  181DOPC   O2222172   0.742   2.963  13.370 -0.4930 -0.0595  0.2643
  181DOPC   C2222173   0.538   2.880  13.480  0.1330 -0.0717  0.4318
  181DOPC   H2R22174   0.527   2.775  13.444 -0.3639 -0.4995  1.7601
  181DOPC   H2S22175   0.440   2.929  13.496  0.7038  0.8980  1.0952
  181DOPC    C322176   0.581   3.235  13.293  0.0446 -0.3745 -0.5857
  181DOPC    HX22177   0.479   3.241  13.337 -0.5053  0.3318 -1.8998
  181DOPC    HY22178   0.569   3.323  13.226 -0.8371  1.0199  1.3053
  181DOPC   O3122179   0.694   3.236  13.381 -0.0535 -0.8483  0.5832
  181DOPC   C3122180   0.796   3.317  13.339 -0.3638  0.5273 -0.6176
  181DOPC   O3222181   0.799   3.377  13.233 -0.6805 -0.6615 -0.3915
  181DOPC   C3222182   0.892   3.320  13.456 -0.1918  0.3589  0.2630
  181DOPC   H2X22183   0.834   3.324  13.550 -0.4312  1.3835  0.0901
  181DOPC   H2Y22184   0.954   3.228  13.460  2.0060  1.6221 -1.7579
  181DOPC   C2322185   0.612   2.882  13.612  0.7485 -0.6042  0.2043
  181DOPC   H3R22186   0.711   2.836  13.595  0.4407 -0.4495 -2.4288
  181DOPC   H3S22187   0.564   2.820  13.690  0.0972  0.1972  0.4614
  181DOPC   C2422188   0.632   3.027  13.662  0.5784  0.2302  0.5973
  181DOPC   H4R22189   0.532   3.077  13.665  0.8113  0.7421  0.0695
  181DOPC   H4S22190   0.704   3.072  13.590  1.3927  1.2232  1.9993
  181DOPC   C2522191   0.705   3.039  13.797  0.0318  0.3804 -0.0000
  181DOPC   H5R22192   0.787   2.964  13.800  0.4607  0.6702 -2.5606
  181DOPC   H5S22193   0.626   3.007  13.869  1.2157 -2.2408  0.2690
  181DOPC   C2622194   0.771   3.172  13.832 -0.1183  0.1602 -0.5469
  181DOPC   H6R22195   0.711   3.262  13.805 -1.3910 -0.3766  0.3817
  181DOPC   H6S22196   0.859   3.189  13.767  1.5031 -1.8992  0.9909
  181DOPC   C2722197   0.818   3.181  13.977  0.4351  0.0458 -0.1756
  181DOPC   H7R22198   0.889   3.101  14.008  0.1211  0.0483  0.5670
  181DOPC   H7S22199   0.728   3.165  14.040 -0.1955  2.9038 -0.2264
  181DOPC   C2822200   0.858   3.323  14.016  0.2761 -0.2698 -0.1923
  181DOPC   H8R22201   0.823   3.345  14.119  0.6171  1.0408 -0.3382
  181DOPC   H8S22202   0.788   3.384  13.956 -0.1031  0.6680  1.1806
  181DOPC   C2922203   1.002   3.365  13.998  0.6578 -0.3344  0.6158
  181DOPC   H9R22204   1.042   3.315  13.909  0.3829  0.6052 -0.0481
  181DOPC  C21022205   1.083   3.433  14.079 -0.2888  0.7214  0.7995
  181DOPC  H10R22206   1.182   3.448  14.033 -0.5307  1.7512  0.5967
  181DOPC  C21122207   1.054   3.484  14.219  0.6288  0.4647  0.2493
  181DOPC  H11R22208   1.120   3.434  14.293  0.4700  0.7391  0.5829
  181DOPC  H11S22209   0.948   3.471  14.249  0.5680  0.1512 -0.1013
  181DOPC  C21222210   1.093   3.638  14.243  0.3309  0.7773  0.3615
  181DOPC  H12R22211   1.027   3.698  14.177  1.2342  1.1515 -0.2221
  181DOPC  H12S22212   1.201   3.655  14.225  0.5752  0.6481  1.5639
  181DOPC  C21322213   1.061   3.684  14.383 -0.4207  0.3413 -0.7849
  181DOPC  H13R22214   1.126   3.631  14.456 -2.0771  1.2935  1.5030
  181DOPC  H13S22215   0.960   3.660  14.423 -1.5439  3.2494 -1.5944
  181DOPC  C21422216   1.069   3.836  14.412 -0.0487 -0.3064  0.6453
  181DOPC  H14R22217   0.976   3.877  14.368 -0.6578 -0.1905  1.9989
  181DOPC  H14S22218   1.141   3.886  14.343  0.3993 -2.2460 -0.3748
  181DOPC  C21522219   1.081   3.893  14.554  0.6129 -0.6972 -0.6057
  181DOPC  H15R22220   1.005   3.831  14.606  1.5728 -2.2401 -0.9538
  181DOPC  H15S22221   1.063   4.002  14.560 -0.1896 -0.8889  0.7058
  181DOPC  C21622222   1.218   3.855  14.617 -0.3884 -0.1359 -0.1011
  181DOPC  H16R22223   1.295   3.917  14.566 -2.5005  1.6412 -1.3134
  181DOPC  H16S22224   1.239   3.751  14.583 -2.9239 -0.9560  0.6160
  181DOPC  C21722225   1.239   3.873  14.768 -0.4688 -0.3533  0.6843
  181DOPC  H17R22226   1.150   3.834  14.822  0.1706 -4.8075 -1.0225
  181DOPC  H17S22227   1.228   3.983  14.779 -0.9532 -0.0703 -2.0253
  181DOPC  C21822228   1.368   3.802  14.821  0.5389  0.5870 -0.4718
  181DOPC  H18R22229   1.386   3.819  14.930  0.0980 -4.6981  0.6911
  181DOPC  H18S22230   1.459   3.846  14.775  1.4495 -0.2759  0.4338
  181DOPC  H18T22231   1.364   3.692  14.804 -2.9597  0.8289 -1.9325
  181DOPC   C3322232   0.981   3.443  13.465  0.1077 -0.7227  0.4009
  181DOPC   H3X22233   0.913   3.531  13.471 -0.2859 -0.6212 -3.3810
  181DOPC   H3Y22234   1.039   3.456  13.371 -1.6293 -0.6956 -0.6989
  181DOPC   C3422235   1.077   3.426  13.580 -0.1356  0.4983 -0.7572
  181DOPC   H4X22236   1.124   3.326  13.575  0.3909  0.7448 -0.8652
  181DOPC   H4Y22237   1.031   3.428  13.681  0.5296 -2.6413 -0.2913
  181DOPC   C3522238   1.190   3.536  13.577  0.4154  0.4078 -0.4241
  181DOPC   H5X22239   1.136   3.633  13.586 -0.8503 -0.0274 -2.6681
  181DOPC   H5Y22240   1.252   3.537  13.484  1.4635 -0.1204  0.2542
  181DOPC   C3622241   1.286   3.507  13.690  0.0070 -0.0314  0.0173
  181DOPC   H6X22242   1.233   3.502  13.787 -0.5770  1.0648 -0.2212
  181DOPC   H6Y22243   1.338   3.410  13.677 -1.2111 -0.6259 -0.5476
  181DOPC   C3722244   1.398   3.608  13.706  0.0678  0.6364 -0.2437
  181DOPC   H7X22245   1.457   3.624  13.613  1.1262  0.5646  0.3979
  181DOPC   H7Y22246   1.347   3.706  13.718  3.4969  2.3820  1.6952
  181DOPC   C3822247   1.491   3.589  13.831  0.3853 -0.1109  0.0718
  181DOPC   H8X22248   1.557   3.501  13.811  0.5233  0.0340 -0.1193
  181DOPC   H8Y22249   1.419   3.559  13.910 -0.5248 -0.5797 -0.9126
  181DOPC   C3922250   1.585   3.704  13.868  0.0393  0.2693 -0.6988
  181DOPC   H9X22251   1.647   3.738  13.784  1.5085 -0.1559  0.1737
  181DOPC  C31022252   1.566   3.789  13.966 -0.2513  0.1094 -0.0213
  181DOPC  H10X22253   1.656   3.838  14.008 -0.6902 -0.6475  1.9119
  181DOPC  C31122254   1.452   3.774  14.063  0.2946 -0.6299 -0.5657
  181DOPC  H11X22255   1.474   3.735  14.164 -1.1902  2.5874  1.1534
  181DOPC  H11Y22256   1.363   3.716  14.030 -0.9695  1.0559 -0.2800
  181DOPC  C31222257   1.375   3.907  14.099 -0.2930  0.0244  0.2511
  181DOPC  H12X22258   1.275   3.887  14.145  0.4723 -2.4043  1.0416
  181DOPC  H12Y22259   1.368   3.965  14.005  1.2244 -1.2058 -0.6619
  181DOPC  C31322260   1.461   4.001  14.200  0.3344 -0.6500 -0.3528
  181DOPC  H13X22261   1.558   4.022  14.150 -0.5373  1.2224 -1.3815
  181DOPC  H13Y22262   1.419   4.104  14.195  2.0564  0.1012 -0.0277
  181DOPC  C31422263   1.467   3.968  14.349  0.6776  0.4948  0.0241
  181DOPC  H14X22264   1.364   3.960  14.389  0.0050  0.8507 -1.5646
  181DOPC  H14Y22265   1.511   3.868  14.370  0.6846  0.7048  1.0369
  181DOPC  C31522266   1.550   4.077  14.417 -0.1464  0.1674 -0.6192
  181DOPC  H15X22267   1.533   4.172  14.362  1.5060  0.8462 -0.0087
  181DOPC  H15Y22268   1.657   4.059  14.397  0.4857  1.2374  1.4680
  181DOPC  C31622269   1.528   4.091  14.569 -0.4178 -0.1978  0.4911
  181DOPC  H16X22270   1.424   4.121  14.595 -0.3022  0.8334 -0.1743
  181DOPC  H16Y22271   1.558   3.995  14.615 -0.3600  0.8793  2.8544
  181DOPC  C31722272   1.613   4.198  14.634  0.4058 -0.2291  0.2338
  181DOPC  H17X22273   1.601   4.188  14.744 -0.7550  1.1252  0.2583
  181DOPC  H17Y22274   1.716   4.163  14.612 -0.1432 -1.6541 -0.2180
  181DOPC  C31822275   1.584   4.335  14.577 -0.2273  0.2291  0.4117
  181DOPC  H18X22276   1.475   4.354  14.585 -0.0910  0.5670  1.8050
  181DOPC  H18Y22277   1.652   4.411  14.622  3.5426 -2.6144  0.1030
  181DOPC  H18Z22278   1.609   4.338  14.469 -1.5213 -0.2957  0.0781
  182DOPC     N22279   2.254   1.107  12.757 -0.0259 -0.7315  0.4007
  182DOPC   C1222280   2.255   0.964  12.807 -0.1951  0.0972 -0.2984
  182DOPC  H12A22281   2.241   0.967  12.914  1.6843 -0.0799 -0.0229
  182DOPC  H12B22282   2.352   0.919  12.789  0.8641  2.9540 -2.4531
  182DOPC   C1322283   2.362   1.188  12.824  0.6357  0.3473 -0.2040
  182DOPC  H13A22284   2.458   1.155  12.787  0.9188 -0.1487  0.9368
  182DOPC  H13B22285   2.343   1.289  12.792 -1.4074  0.3969  0.9927
  182DOPC  H13C22286   2.360   1.193  12.932  1.8547  0.9354 -0.1899
  182DOPC   C1422287   2.126   1.178  12.796 -0.5633  0.6773  0.1673
  182DOPC  H14A22288   2.108   1.263  12.732 -0.7090 -0.0327 -0.7547
  182DOPC  H14B22289   2.054   1.100  12.774  0.8125 -0.1393 -1.6829
  182DOPC  H14C22290   2.116   1.206  12.900  1.7520 -0.8501  0.8687
  182DOPC   C1522291   2.270   1.114  12.609  0.1025 -0.0906  0.5996
  182DOPC  H15A22292   2.355   1.056  12.575 -0.2873 -1.4393  1.8400
  182DOPC  H15B22293   2.271   1.215  12.571  0.4016 -0.6113 -0.8723
  182DOPC  H15C22294   2.186   1.072  12.554 -0.0109 -0.1475  0.8144
  182DOPC   C1122295   2.154   0.863  12.740  0.3592 -0.7339  0.0912
  182DOPC  H11A22296   2.183   0.856  12.633  1.3138 -3.2643  0.4401
  182DOPC  H11B22297   2.171   0.764  12.789 -0.4501  0.5852  3.2747
  182DOPC     P22298   1.920   0.819  12.841 -0.2803 -0.4228 -0.2569
  182DOPC   O1322299   1.896   0.707  12.747 -0.0693  0.9484  0.1753
  182DOPC   O1422300   1.796   0.896  12.866  0.2856  0.0755 -0.1522
  182DOPC   O1222301   2.025   0.910  12.771 -0.3716  0.3637  0.1304
  182DOPC   O1122302   1.993   0.772  12.975  0.4496  0.3778 -0.5560
  182DOPC    C122303   1.912   0.728  13.087  0.6994 -0.0924  0.4083
  182DOPC    HA22304   1.962   0.646  13.143 -0.8771 -0.3840  1.4623
  182DOPC    HB22305   1.814   0.689  13.052  0.6670  1.9999 -2.1369
  182DOPC    C222306   1.874   0.843  13.178 -0.0620 -0.5796 -0.1065
  182DOPC    HS22307   1.827   0.920  13.114  1.4255  0.7158  0.2929
  182DOPC   O2122308   2.001   0.887  13.244  0.3383  0.1103  0.3151
  182DOPC   C2122309   1.998   1.007  13.304  0.8266  0.8300  0.4235
  182DOPC   O2222310   1.923   1.097  13.284  0.0982 -0.4816 -0.1411
  182DOPC   C2222311   2.116   1.027  13.395 -0.5754  0.0785 -1.3570
  182DOPC   H2R22312   2.197   1.039  13.319 -0.2424  0.1477 -0.9963
  182DOPC   H2S22313   2.137   0.942  13.463  0.3388  1.1405 -0.2671
  182DOPC    C322314   1.758   0.816  13.275 -0.9055 -0.2369 -0.1037
  182DOPC    HX22315   1.664   0.805  13.217 -0.5346 -0.8644 -0.5985
  182DOPC    HY22316   1.743   0.907  13.337  1.2185  1.5351 -2.0263
  182DOPC   O3122317   1.770   0.698  13.367  0.1538  0.0272 -0.0954
  182DOPC   C3122318   1.820   0.727  13.496 -0.0475 -0.0687  0.1289
  182DOPC   O3222319   1.867   0.835  13.533 -0.1780  0.6168 -0.5498
  182DOPC   C3222320   1.799   0.599  13.577  0.5210 -0.1356 -0.4234
  182DOPC   H2X22321   1.690   0.580  13.585  0.7526 -1.7501 -0.7028
  182DOPC   H2Y22322   1.851   0.518  13.522  2.4999  2.0708 -2.0185
  182DOPC   C2322323   2.113   1.152  13.486  0.4194 -0.0668  1.1299
  182DOPC   H3R22324   2.080   1.248  13.441  2.1539 -0.3558 -0.8783
  182DOPC   H3S22325   2.217   1.181  13.513  0.3018 -0.5270  2.1457
  182DOPC   C2422326   2.034   1.119  13.617  0.0565 -0.2364 -0.5736
  182DOPC   H4R22327   2.091   1.047  13.680 -1.0892  1.9515  3.3039
  182DOPC   H4S22328   1.930   1.080  13.610  0.1503 -0.8249  0.8398
  182DOPC   C2522329   2.022   1.248  13.707 -0.1654 -0.6297 -0.6563
  182DOPC   H5R22330   1.978   1.207  13.800  2.3433  0.5420  1.1686
  182DOPC   H5S22331   1.951   1.316  13.656 -0.1811 -0.2653 -0.1526
  182DOPC   C2622332   2.150   1.317  13.744  0.2253 -0.7800 -0.4415
  182DOPC   H6R22333   2.115   1.404  13.803 -1.4652 -0.2957 -2.0781
  182DOPC   H6S22334   2.195   1.357  13.650 -1.7272 -0.7672 -1.4357
  182DOPC   C2722335   2.254   1.243  13.821 -0.8277 -0.3754  0.0871
  182DOPC   H7R22336   2.337   1.317  13.821 -0.9287 -0.2626  0.1566
  182DOPC   H7S22337   2.300   1.152  13.776  0.6587 -1.6022  3.6714
  182DOPC   C2822338   2.222   1.202  13.969 -0.3681  0.7330 -0.0329
  182DOPC   H8R22339   2.130   1.139  13.973 -1.8103  2.7002 -0.5548
  182DOPC   H8S22340   2.194   1.292  14.028 -3.8692  0.1619 -0.5824
  182DOPC   C2922341   2.337   1.125  14.024 -0.0250 -0.0567 -0.4979
  182DOPC   H9R22342   2.390   1.069  13.947  0.3320 -1.2267  0.5708
  182DOPC  C21022343   2.404   1.137  14.143 -0.2220 -0.2640  0.1269
  182DOPC  H10R22344   2.484   1.065  14.167  0.2149 -0.3534 -1.5096
  182DOPC  C21122345   2.351   1.218  14.256 -0.4958 -0.6290 -0.2146
  182DOPC  H11R22346   2.293   1.309  14.230 -0.5806 -0.9829 -1.2831
  182DOPC  H11S22347   2.442   1.249  14.314 -2.1715 -2.1584  3.5543
  182DOPC  C21222348   2.277   1.131  14.360  0.3227  0.6239 -0.5322
  182DOPC  H12R22349   2.193   1.080  14.308  0.6774 -1.2809  0.6795
  182DOPC  H12S22350   2.228   1.204  14.429  1.9174 -1.4148  3.0431
  182DOPC  C21322351   2.365   1.032  14.445 -0.2137  0.5476  0.0907
  182DOPC  H13R22352   2.439   1.096  14.498  0.8110  1.0748 -1.9038
  182DOPC  H13S22353   2.420   0.949  14.396 -3.4490 -1.7431  0.0475
  182DOPC  C21422354   2.273   0.960  14.550 -0.6883  0.1320 -0.5041
  182DOPC  H14R22355   2.199   0.895  14.500 -2.3857  0.4518  1.4365
  182DOPC  H14S22356   2.205   1.041  14.587 -0.7000  0.7756 -1.8741
  182DOPC  C21522357   2.344   0.893  14.664 -0.2777  0.5731  0.4664
  182DOPC  H15R22358   2.431   0.951  14.703 -0.7158  0.5451  1.5344
  182DOPC  H15S22359   2.390   0.793  14.649  0.6792  0.7752  1.8312
  182DOPC  C21622360   2.246   0.886  14.779  0.6746 -0.0136  0.5927
  182DOPC  H16R22361   2.146   0.855  14.742 -0.1611  2.1009  0.9132
  182DOPC  H16S22362   2.226   0.986  14.823  1.0095  0.0387  0.6268
  182DOPC  C21722363   2.284   0.780  14.884 -0.0150 -0.0821 -0.1212
  182DOPC  H17R22364   2.373   0.820  14.937  0.0497 -0.4720  0.0708
  182DOPC  H17S22365   2.312   0.687  14.829  0.9943  0.9999 -1.5015
  182DOPC  C21822366   2.170   0.755  14.983 -0.2702  0.3372  0.6263
  182DOPC  H18R22367   2.073   0.731  14.934  0.4765 -0.8993 -0.2903
  182DOPC  H18S22368   2.156   0.839  15.054 -1.2398 -1.1546  2.2812
  182DOPC  H18T22369   2.194   0.663  15.041 -0.3172 -0.4663 -0.5947
  182DOPC   C3322370   1.862   0.608  13.719  0.5075  0.6104 -0.4072
  182DOPC   H3X22371   1.826   0.515  13.766  1.4796 -0.6629 -2.0748
  182DOPC   H3Y22372   1.827   0.697  13.777 -0.7323 -1.0490  1.5112
  182DOPC   C3422373   2.014   0.609  13.712  0.7050  0.0175  0.2562
  182DOPC   H4X22374   2.052   0.693  13.649 -0.4667  1.0637  0.8798
  182DOPC   H4Y22375   2.053   0.518  13.662  0.6768 -0.4104  0.9989
  182DOPC   C3522376   2.082   0.610  13.847 -0.4556 -0.2922 -0.4990
  182DOPC   H5X22377   2.071   0.515  13.902  1.7183 -0.0364  0.4700
  182DOPC   H5Y22378   2.030   0.685  13.911  0.0604 -0.5687  0.2638
  182DOPC   C3622379   2.238   0.640  13.823 -0.3695 -0.2377 -0.1860
  182DOPC   H6X22380   2.289   0.635  13.922  0.3193 -0.6971 -0.5546
  182DOPC   H6Y22381   2.282   0.548  13.779  0.3578  0.4478 -0.9292
  182DOPC   C3722382   2.273   0.760  13.731  0.2441  0.3282  0.2328
  182DOPC   H7X22383   2.235   0.742  13.628  2.6482  2.1076 -1.0602
  182DOPC   H7Y22384   2.218   0.845  13.776 -0.0389  0.2493  0.0420
  182DOPC   C3822385   2.430   0.787  13.722 -0.5897 -0.4547 -0.9325
  182DOPC   H8X22386   2.458   0.832  13.820 -0.4896 -1.5671 -0.4324
  182DOPC   H8Y22387   2.440   0.865  13.644 -0.7745 -0.2205 -0.7258
  182DOPC   C3922388   2.520   0.666  13.699 -0.5694 -0.0148  0.0236
  182DOPC   H9X22389   2.482   0.579  13.642 -0.2780  0.2991 -0.6616
  182DOPC  C31022390   2.645   0.648  13.742 -0.1879  0.4848  0.2042
  182DOPC  H10X22391   2.696   0.551  13.730 -0.5805 -0.0576  2.4663
  182DOPC  C31122392   2.743   0.750  13.799  0.2123 -0.3114  0.7689
  182DOPC  H11X22393   2.702   0.852  13.814 -1.0273 -0.8129  0.9269
  182DOPC  H11Y22394   2.829   0.752  13.728 -0.7096 -2.0843 -0.4702
  182DOPC  C31222395   2.790   0.712  13.939 -0.6904 -0.1554  0.4029
  182DOPC  H12X22396   2.843   0.616  13.923  0.8826  0.6556  0.6125
  182DOPC  H12Y22397   2.701   0.697  14.005 -0.6280  0.5354  0.6541
  182DOPC  C31322398   2.887   0.807  14.011  0.1006  0.0445  0.0404
  182DOPC  H13X22399   2.974   0.828  13.945  0.1659 -0.9102 -0.2028
  182DOPC  H13Y22400   2.846   0.909  14.026  0.5381  0.2347 -0.0563
  182DOPC  C31422401   2.949   0.733  14.137  0.0822 -0.1364  0.7096
  182DOPC  H14X22402   2.870   0.683  14.196 -0.8532  0.2542 -0.1868
  182DOPC  H14Y22403   3.010   0.652  14.092  0.6181  0.5706  0.1237
  182DOPC  C31522404   3.054   0.823  14.208  0.0335  0.4537 -0.5462
  182DOPC  H15X22405   2.998   0.899  14.267 -1.6201 -2.1192  1.4423
  182DOPC  H15Y22406   3.114   0.874  14.130  0.6656  0.4250 -0.0907
  182DOPC  C31622407   3.145   0.735  14.294  0.1512 -0.6468  0.7461
  182DOPC  H16X22408   3.095   0.680  14.378  0.0819 -1.3713  0.2434
  182DOPC  H16Y22409   3.176   0.645  14.237  0.5794 -2.3749  3.4669
  182DOPC  C31722410   3.256   0.813  14.365  0.2794 -0.2035  1.0305
  182DOPC  H17X22411   3.324   0.847  14.284 -0.3631  0.5191  0.7933
  182DOPC  H17Y22412   3.217   0.904  14.414  0.9749  0.0796  1.0751
  182DOPC  C31822413   3.339   0.734  14.469  0.6069  0.3987  0.1467
  182DOPC  H18X22414   3.420   0.793  14.518  0.0837  0.1010  1.4103
  182DOPC  H18Y22415   3.267   0.697  14.545  0.8897 -0.5487 -0.0270
  182DOPC  H18Z22416   3.371   0.640  14.419 -3.3323 -0.1718 -1.7291
  183DOPC     N22417   6.411   5.553  12.421 -0.5764  0.7471  0.2766
  183DOPC   C1222418   6.300   5.485  12.500 -0.0170 -0.8252 -0.4024
  183DOPC  H12A22419   6.324   5.381  12.519 -0.8932 -0.7651  1.2222
  183DOPC  H12B22420   6.206   5.483  12.446 -0.4620 -0.1446  0.3176
  183DOPC   C1322421   6.362   5.681  12.365 -0.3669  0.0746  0.2359
  183DOPC  H13A22422   6.290   5.659  12.287  2.2566 -0.7801 -2.0986
  183DOPC  H13B22423   6.313   5.750  12.432  0.1906  1.4650 -0.7368
  183DOPC  H13C22424   6.434   5.747  12.319 -0.9089  2.4018  2.4498
  183DOPC   C1422425   6.447   5.467  12.304  0.6361  0.1916  0.1935
  183DOPC  H14A22426   6.483   5.369  12.333 -0.8055 -0.7045 -0.9514
  183DOPC  H14B22427   6.354   5.454  12.250  0.7475  1.1245 -0.2381
  183DOPC  H14C22428   6.527   5.507  12.244  0.3468  0.6515  0.1105
  183DOPC   C1522429   6.532   5.591  12.498  0.8516 -0.5326  0.0026
  183DOPC  H15A22430   6.496   5.670  12.563 -0.6757 -1.2974  0.1236
  183DOPC  H15B22431   6.609   5.639  12.438 -0.2657  0.5103 -0.6374
  183DOPC  H15C22432   6.571   5.515  12.564  0.1190  2.0901  3.8126
  183DOPC   C1122433   6.268   5.548  12.640  0.0124  0.4022 -0.3843
  183DOPC  H11A22434   6.269   5.659  12.634  0.5435  0.3500 -1.6192
  183DOPC  H11B22435   6.172   5.514  12.684 -0.2395  0.2666 -1.0274
  183DOPC     P22436   6.376   5.369  12.787 -0.0794 -0.1371 -0.2514
  183DOPC   O1322437   6.522   5.334  12.792  0.7491 -0.0294  0.5524
  183DOPC   O1422438   6.288   5.279  12.710  0.3679 -0.1486  0.2904
  183DOPC   O1222439   6.369   5.514  12.733 -0.1859  0.5135  0.1642
  183DOPC   O1122440   6.325   5.386  12.935 -0.4079  0.1927  0.1074
  183DOPC    C122441   6.303   5.513  13.001 -0.5530  0.2744 -0.2267
  183DOPC    HA22442   6.218   5.568  12.955 -0.2983  0.3773 -0.5805
  183DOPC    HB22443   6.397   5.574  12.998  0.0569 -0.5057  1.5414
  183DOPC    C222444   6.274   5.491  13.154 -0.1190 -0.1297 -0.0121
  183DOPC    HS22445   6.259   5.596  13.188 -0.7785 -0.0147 -0.6418
  183DOPC   O2122446   6.382   5.417  13.216  0.3076 -0.2847  0.1124
  183DOPC   C2122447   6.471   5.488  13.279  0.5161 -0.7971 -0.1195
  183DOPC   O2222448   6.462   5.611  13.295  0.2456  0.3255  0.6463
  183DOPC   C2222449   6.574   5.395  13.340 -0.5885 -0.3657  0.2004
  183DOPC   H2R22450   6.670   5.388  13.283 -2.0264 -0.0323 -2.4359
  183DOPC   H2S22451   6.535   5.291  13.341  1.2017 -1.1563 -1.9833
  183DOPC    C322452   6.136   5.418  13.168  0.0774  0.9210  0.4604
  183DOPC    HX22453   6.116   5.328  13.105 -1.3858  1.1394  0.5796
  183DOPC    HY22454   6.066   5.487  13.116 -0.3166  0.1392 -0.0627
  183DOPC   O3122455   6.096   5.402  13.304 -0.2077  0.0235 -0.0286
  183DOPC   C3122456   6.082   5.277  13.344 -0.5654  0.0308  0.0752
  183DOPC   O3222457   6.103   5.178  13.275 -0.3904 -0.0568 -0.1008
  183DOPC   C3222458   6.056   5.267  13.491  0.1877  0.4093 -0.3637
  183DOPC   H2X22459   6.148   5.302  13.542 -0.3977 -0.5144  1.4221
  183DOPC   H2Y22460   5.979   5.345  13.511 -0.2370 -0.7480  3.2009
  183DOPC   C2322461   6.608   5.445  13.484  0.0838 -0.1833 -0.3794
  183DOPC   H3R22462   6.515   5.445  13.543  1.1250  1.8292  1.3865
  183DOPC   H3S22463   6.644   5.550  13.488  1.6370 -0.7260  1.5956
  183DOPC   C2422464   6.728   5.370  13.548  0.2485  0.4320  0.0144
  183DOPC   H4R22465   6.825   5.405  13.508 -1.0970  0.7473 -3.3755
  183DOPC   H4S22466   6.707   5.264  13.520 -1.6196  0.3902  1.4057
  183DOPC   C2522467   6.729   5.378  13.697 -0.4059 -0.3316 -0.0031
  183DOPC   H5R22468   6.661   5.300  13.737  0.9876 -1.3223  0.5003
  183DOPC   H5S22469   6.687   5.472  13.739  0.7208 -0.0613  0.5563
  183DOPC   C2622470   6.860   5.355  13.769 -0.2881 -0.6386 -0.5575
  183DOPC   H6R22471   6.934   5.431  13.737  0.0525 -0.4858  0.5662
  183DOPC   H6S22472   6.912   5.265  13.728  0.1740 -0.8767  0.5265
  183DOPC   C2722473   6.847   5.350  13.920 -0.2242 -0.4811 -0.7216
  183DOPC   H7R22474   6.790   5.260  13.951 -1.1746  0.3819  0.0983
  183DOPC   H7S22475   6.787   5.440  13.944  2.6592  1.2593  0.5146
  183DOPC   C2822476   6.987   5.361  13.984 -0.5941 -0.2828 -0.1563
  183DOPC   H8R22477   7.033   5.454  13.943 -4.1503  0.1332 -3.7942
  183DOPC   H8S22478   7.046   5.277  13.939 -0.4592  2.0513 -5.0438
  183DOPC   C2922479   6.982   5.347  14.134 -0.8063 -0.3461  0.1416
  183DOPC   H9R22480   6.899   5.292  14.181  1.0840 -2.9287  0.7097
  183DOPC  C21022481   7.065   5.409  14.216  0.0211 -0.4541 -0.6763
  183DOPC  H10R22482   7.073   5.374  14.320  1.4016  0.7122 -0.3507
  183DOPC  C21122483   7.184   5.501  14.196 -0.1598 -0.2445  1.1083
  183DOPC  H11R22484   7.204   5.568  14.282  0.8178  2.1245 -0.8282
  183DOPC  H11S22485   7.160   5.570  14.112 -1.1902 -0.8765  0.8677
  183DOPC  C21222486   7.311   5.415  14.177  0.3244  0.1837  0.2583
  183DOPC  H12R22487   7.329   5.350  14.265 -0.5226 -2.2107 -1.2580
  183DOPC  H12S22488   7.390   5.491  14.164  0.6494 -0.3038 -0.6923
  183DOPC  C21322489   7.312   5.322  14.057 -0.1481  0.4590  0.7632
  183DOPC  H13R22490   7.272   5.385  13.975  0.8961 -2.8542 -2.6147
  183DOPC  H13S22491   7.251   5.231  14.075  2.0003 -1.0872  0.6299
  183DOPC  C21422492   7.452   5.277  14.004  0.1621  0.0158 -0.5767
  183DOPC  H14R22493   7.523   5.361  13.987  0.8040 -0.6289 -1.1452
  183DOPC  H14S22494   7.428   5.233  13.905 -0.8024  0.3955 -0.5244
  183DOPC  C21522495   7.530   5.190  14.098 -0.2887  0.1933  0.4794
  183DOPC  H15R22496   7.534   5.231  14.201  0.1199 -0.3317  0.6793
  183DOPC  H15S22497   7.636   5.191  14.062  0.6769  0.9940  3.1158
  183DOPC  C21622498   7.480   5.048  14.108 -0.5363  0.0226  0.1912
  183DOPC  H16R22499   7.455   5.012  14.006 -0.6197 -2.2119  0.9401
  183DOPC  H16S22500   7.390   5.034  14.172 -0.3794 -0.0865  0.3902
  183DOPC  C21722501   7.579   4.951  14.181  0.0484  0.2938  0.3015
  183DOPC  H17R22502   7.619   5.003  14.271 -1.5025  0.7517  0.7455
  183DOPC  H17S22503   7.663   4.917  14.116 -0.4846 -1.7183  0.5902
  183DOPC  C21822504   7.503   4.830  14.235  0.3217 -0.0677 -0.2938
  183DOPC  H18R22505   7.564   4.762  14.299 -0.6664 -1.1699 -0.4768
  183DOPC  H18S22506   7.445   4.777  14.156 -0.7038  0.7625 -0.1109
  183DOPC  H18T22507   7.430   4.871  14.308 -0.3933 -1.0217 -0.4514
  183DOPC   C3322508   6.032   5.126  13.535  0.2916 -0.1167 -0.1466
  183DOPC   H3X22509   6.104   5.048  13.503 -1.3217 -0.6215 -2.8897
  183DOPC   H3Y22510   5.934   5.098  13.490 -0.6435  0.1830  1.6133
  183DOPC   C3422511   6.002   5.128  13.689 -0.1634  0.4913  0.0003
  183DOPC   H4X22512   5.949   5.032  13.703  1.6489 -0.7371 -1.1088
  183DOPC   H4Y22513   5.942   5.219  13.708  1.3492  1.9175 -1.5814
  183DOPC   C3522514   6.125   5.109  13.787 -0.4431  0.7294 -0.3338
  183DOPC   H5X22515   6.203   5.186  13.766 -0.3603  1.1520  1.3670
  183DOPC   H5Y22516   6.170   5.011  13.763  1.8729  1.8663 -1.0207
  183DOPC   C3622517   6.098   5.115  13.936  0.5558 -0.1467 -0.0824
  183DOPC   H6X22518   6.195   5.119  13.990 -0.2415  0.3369  1.3695
  183DOPC   H6Y22519   6.040   5.201  13.974 -0.5026 -0.6283 -0.5847
  183DOPC   C3722520   6.024   4.986  13.983  0.0572  0.0204  0.9872
  183DOPC   H7X22521   5.932   4.982  13.920  1.0515 -0.1799 -0.4902
  183DOPC   H7Y22522   6.091   4.902  13.955  0.1492  0.3090  0.3229
  183DOPC   C3822523   5.990   4.993  14.132 -0.1398 -0.1056  0.0327
  183DOPC   H8X22524   5.924   5.081  14.149 -0.8496 -0.7657  0.7272
  183DOPC   H8Y22525   6.088   5.005  14.183  0.1373 -1.2243 -0.2188
  183DOPC   C3922526   5.905   4.869  14.160 -0.6353  0.0370 -0.8211
  183DOPC   H9X22527   5.809   4.860  14.107 -2.0951  1.7846  1.3459
  183DOPC  C31022528   5.948   4.750  14.221  0.4415  0.3905  0.7343
  183DOPC  H10X22529   5.877   4.669  14.240 -0.4785  1.1906  0.8123
  183DOPC  C31122530   6.080   4.732  14.283 -0.1917 -0.9516  0.3581
  183DOPC  H11X22531   6.122   4.829  14.318  1.7184 -1.2686 -0.8979
  183DOPC  H11Y22532   6.152   4.674  14.221 -0.6102  0.3292 -1.3749
  183DOPC  C31222533   6.055   4.654  14.417  0.1387 -0.1297 -0.7248
  183DOPC  H12X22534   6.155   4.621  14.453  0.4671  3.0261  1.7513
  183DOPC  H12Y22535   6.005   4.555  14.415  0.8847 -0.4966 -1.4244
  183DOPC  C31322536   6.010   4.748  14.531  0.2270 -0.5495  0.3523
  183DOPC  H13X22537   6.093   4.811  14.570  1.1057  0.3197 -2.6328
  183DOPC  H13Y22538   5.931   4.820  14.502 -1.0743 -0.9883  2.5543
  183DOPC  C31422539   5.935   4.668  14.641  0.1020 -0.7904  0.0653
  183DOPC  H14X22540   5.862   4.598  14.594  0.0109 -1.8888  1.7742
  183DOPC  H14Y22541   6.012   4.609  14.694  1.1349  0.9012  0.5074
  183DOPC  C31522542   5.850   4.754  14.738 -0.4694 -0.5728  0.5974
  183DOPC  H15X22543   5.779   4.813  14.676 -0.1886 -0.0741  0.7484
  183DOPC  H15Y22544   5.921   4.829  14.779 -1.0119  0.0366  0.4244
  183DOPC  C31622545   5.789   4.683  14.853  0.2493  0.4262 -0.4048
  183DOPC  H16X22546   5.717   4.757  14.895 -0.5063  0.7156 -2.1014
  183DOPC  H16Y22547   5.730   4.598  14.813 -0.0306 -0.7206  2.2348
  183DOPC  C31722548   5.888   4.638  14.962  0.0126  0.5961  0.4834
  183DOPC  H17X22549   5.971   4.571  14.931  1.9652  3.0005  0.2091
  183DOPC  H17Y22550   5.946   4.721  15.008 -2.4536  0.5893  4.0062
  183DOPC  C31822551   5.828   4.567  15.085 -0.6492 -0.4867 -0.1606
  183DOPC  H18X22552   5.903   4.539  15.162  1.2246  0.8388 -1.4229
  183DOPC  H18Y22553   5.745   4.622  15.134 -0.5489 -0.8390  0.4216
  183DOPC  H18Z22554   5.780   4.470  15.058 -1.8142  0.6549 -2.4307
  184DOPC     N22555   3.871   1.673  12.688  0.1236  0.2761  0.7450
  184DOPC   C1222556   3.939   1.787  12.763  0.1953 -0.0529 -0.5794
  184DOPC  H12A22557   3.965   1.754  12.862 -0.5509 -1.0149 -0.6849
  184DOPC  H12B22558   3.871   1.871  12.763  0.2953  0.0276 -0.7899
  184DOPC   C1322559   3.946   1.545  12.699  0.0200  0.1772  0.3415
  184DOPC  H13A22560   3.926   1.494  12.792 -0.9819  0.3649  0.2401
  184DOPC  H13B22561   3.918   1.479  12.617 -0.8695  0.9886 -0.0172
  184DOPC  H13C22562   4.052   1.552  12.681 -0.1551  0.0225 -0.8971
  184DOPC   C1422563   3.858   1.710  12.545 -0.2230  0.4757 -0.1090
  184DOPC  H14A22564   3.787   1.788  12.526  0.3890  1.4335  1.3475
  184DOPC  H14B22565   3.955   1.732  12.502 -0.7781 -0.9295 -2.2608
  184DOPC  H14C22566   3.818   1.625  12.490 -1.7745  1.0083  0.1542
  184DOPC   C1522567   3.726   1.669  12.733  0.0554 -0.0147 -0.4733
  184DOPC  H15A22568   3.716   1.639  12.836 -1.0089 -1.3135 -0.9186
  184DOPC  H15B22569   3.678   1.596  12.669 -0.0217 -0.1873 -0.2203
  184DOPC  H15C22570   3.671   1.761  12.718  1.1361  0.9487  1.2339
  184DOPC   C1122571   4.068   1.839  12.695 -0.4825 -0.2338  0.4993
  184DOPC  H11A22572   4.047   1.868  12.590  1.0865 -1.0683 -0.0731
  184DOPC  H11B22573   4.106   1.926  12.753  1.9917 -0.9525  0.0598
  184DOPC     P22574   4.248   1.701  12.816 -0.0816  0.0211  0.0699
  184DOPC   O1322575   4.352   1.806  12.822 -0.4299  0.1284 -0.3101
  184DOPC   O1422576   4.298   1.562  12.808 -0.1165  0.0712 -0.3464
  184DOPC   O1222577   4.171   1.736  12.689 -0.4578 -0.0902  0.2089
  184DOPC   O1122578   4.145   1.724  12.929  0.2628 -0.2630 -0.0147
  184DOPC    C122579   4.151   1.815  13.037 -0.1388  0.4348  0.4203
  184DOPC    HA22580   4.049   1.857  13.047  0.6767  2.3970  0.9476
  184DOPC    HB22581   4.210   1.901  12.999  0.1790 -1.0012 -2.6161
  184DOPC    C222582   4.196   1.757  13.175 -0.4065  0.2814  0.5552
  184DOPC    HS22583   4.205   1.842  13.245  2.1274  0.5943 -0.0595
  184DOPC   O2122584   4.327   1.698  13.160  0.0832  0.2527  0.3882
  184DOPC   C2122585   4.429   1.771  13.131  0.0787  0.1825  0.3849
  184DOPC   O2222586   4.430   1.894  13.113  0.4858 -0.0498 -0.3699
  184DOPC   C2222587   4.552   1.683  13.116 -0.2046 -0.8287 -0.4057
  184DOPC   H2R22588   4.632   1.753  13.082 -1.7553  0.6575 -1.1154
  184DOPC   H2S22589   4.528   1.609  13.036  1.5667 -0.6851 -1.1355
  184DOPC    C322590   4.094   1.648  13.236 -0.2535  0.2557  0.5675
  184DOPC    HX22591   4.084   1.567  13.161  1.0261  1.7885 -1.3503
  184DOPC    HY22592   3.995   1.695  13.255 -0.9216 -0.2540 -1.4430
  184DOPC   O3122593   4.140   1.611  13.366  0.0051  0.3057 -0.2456
  184DOPC   C3122594   4.211   1.500  13.374  0.0745  0.1824  0.3992
  184DOPC   O3222595   4.240   1.427  13.281 -0.5690  0.2435 -0.0485
  184DOPC   C3222596   4.266   1.491  13.515 -0.3670  0.0077 -0.7176
  184DOPC   H2X22597   4.376   1.483  13.499 -0.5383 -1.1048 -1.4524
  184DOPC   H2Y22598   4.234   1.585  13.565  0.6813 -0.1087  0.1987
  184DOPC   C2322599   4.581   1.617  13.254 -0.2028 -0.2578 -0.2451
  184DOPC   H3R22600   4.664   1.544  13.244  0.5785  0.2671  1.8717
  184DOPC   H3S22601   4.485   1.579  13.295  0.1780  0.6676  1.6246
  184DOPC   C2422602   4.647   1.723  13.345  0.4874  0.1311  0.0505
  184DOPC   H4R22603   4.589   1.818  13.349  2.0971  1.1339  0.6565
  184DOPC   H4S22604   4.737   1.757  13.289  0.3749  0.3535  0.0026
  184DOPC   C2522605   4.690   1.661  13.478 -0.0487 -0.8738 -0.0821
  184DOPC   H5R22606   4.800   1.651  13.486  0.0140 -2.3245 -1.9033
  184DOPC   H5S22607   4.647   1.559  13.485 -0.1503 -0.9913 -1.8650
  184DOPC   C2622608   4.634   1.748  13.592 -0.1370 -0.4239  0.2980
  184DOPC   H6R22609   4.661   1.852  13.563 -0.5768 -1.3951 -4.4427
  184DOPC   H6S22610   4.693   1.716  13.680  1.0887 -0.0200 -0.3511
  184DOPC   C2722611   4.492   1.732  13.632  0.0023  0.1464  1.3197
  184DOPC   H7R22612   4.469   1.630  13.669 -0.7337  0.9798  3.2607
  184DOPC   H7S22613   4.433   1.756  13.541  0.9484 -0.5072  0.5022
  184DOPC   C2822614   4.454   1.831  13.737  0.1767 -0.8080 -0.8294
  184DOPC   H8R22615   4.449   1.934  13.695  1.6497  1.0113  3.0355
  184DOPC   H8S22616   4.541   1.842  13.805 -1.8599  0.2024  1.7674
  184DOPC   C2922617   4.338   1.793  13.815  0.0484 -0.4648 -0.1561
  184DOPC   H9R22618   4.238   1.800  13.770 -1.0981  0.0076  2.3065
  184DOPC  C21022619   4.342   1.767  13.950  0.0653 -0.0368 -0.1911
  184DOPC  H10R22620   4.249   1.757  14.008  0.9125  1.3591  1.5053
  184DOPC  C21122621   4.455   1.755  14.045  0.4747  0.6212  0.1104
  184DOPC  H11R22622   4.500   1.854  14.068  2.9218 -0.3875 -0.0113
  184DOPC  H11S22623   4.539   1.688  14.015 -1.8323 -3.0412  1.1815
  184DOPC  C21222624   4.428   1.686  14.181 -0.6785 -0.3784 -0.7854
  184DOPC  H12R22625   4.526   1.680  14.231  0.0292 -2.5474 -2.2798
  184DOPC  H12S22626   4.380   1.588  14.164 -0.0700 -0.7586 -0.3202
  184DOPC  C21322627   4.331   1.764  14.272 -0.1009 -0.1792 -0.0019
  184DOPC  H13R22628   4.226   1.759  14.236 -0.8573 -2.1388  2.1883
  184DOPC  H13S22629   4.379   1.863  14.256 -0.9199 -0.2080 -3.2952
  184DOPC  C21422630   4.330   1.726  14.421  0.0617  0.2588 -0.2658
  184DOPC  H14R22631   4.409   1.772  14.483  0.4764 -1.3018  0.4070
  184DOPC  H14S22632   4.348   1.617  14.408  1.9136  0.7749 -2.8974
  184DOPC  C21522633   4.200   1.752  14.500 -0.2875  0.5927 -0.5058
  184DOPC  H15R22634   4.127   1.669  14.490  0.7675 -0.4467  0.1725
  184DOPC  H15S22635   4.149   1.840  14.455  2.5384  3.1010  0.8457
  184DOPC  C21622636   4.222   1.783  14.651 -0.2018  1.0460  0.3580
  184DOPC  H16R22637   4.126   1.807  14.702 -0.9287 -1.0337  0.1102
  184DOPC  H16S22638   4.292   1.868  14.660  0.5286  0.5313 -0.2538
  184DOPC  C21722639   4.286   1.663  14.728  0.3251  0.1901  0.3405
  184DOPC  H17R22640   4.386   1.644  14.684 -0.9667 -0.9175 -2.3119
  184DOPC  H17S22641   4.237   1.565  14.709  2.1117 -0.5514 -0.6638
  184DOPC  C21822642   4.302   1.694  14.878  0.5506 -0.4823 -0.2643
  184DOPC  H18R22643   4.206   1.726  14.923  0.8386  0.3431 -0.2088
  184DOPC  H18S22644   4.371   1.781  14.882  0.0495 -0.0374 -0.9248
  184DOPC  H18T22645   4.335   1.604  14.933 -0.1027 -0.2177  0.5755
  184DOPC   C3322646   4.233   1.360  13.596  0.3595  0.1775  0.0476
  184DOPC   H3X22647   4.279   1.273  13.544 -0.8217  0.7092 -1.9541
  184DOPC   H3Y22648   4.123   1.353  13.594  0.1238  2.8001  0.5243
  184DOPC   C3422649   4.270   1.388  13.745  0.1583 -0.4108 -0.0196
  184DOPC   H4X22650   4.214   1.478  13.777  0.1017 -0.0103 -1.2098
  184DOPC   H4Y22651   4.377   1.417  13.755  0.5400 -0.6579 -2.6518
  184DOPC   C3522652   4.234   1.285  13.843 -0.9037  0.0118 -0.2487
  184DOPC   H5X22653   4.288   1.190  13.822  1.7773  1.0442  1.4663
  184DOPC   H5Y22654   4.125   1.270  13.829 -0.8947  0.3205 -0.6737
  184DOPC   C3622655   4.271   1.329  13.984  0.1956  0.3213 -0.2204
  184DOPC   H6X22656   4.380   1.346  13.998 -0.1043  0.7060  2.2105
  184DOPC   H6Y22657   4.220   1.420  14.020 -0.9670 -0.2854 -0.2830
  184DOPC   C3722658   4.211   1.212  14.072 -0.6209 -0.2100  0.1447
  184DOPC   H7X22659   4.102   1.200  14.049 -0.8511  1.9904 -0.0851
  184DOPC   H7Y22660   4.255   1.114  14.044 -1.5172 -0.2418 -1.2608
  184DOPC   C3822661   4.246   1.242  14.217 -0.0231 -0.1625 -1.0991
  184DOPC   H8X22662   4.208   1.344  14.240 -0.7109 -0.2812 -1.6777
  184DOPC   H8Y22663   4.357   1.246  14.219 -0.0693  1.6545 -0.5388
  184DOPC   C3922664   4.196   1.136  14.319 -0.0363 -0.5109  0.2035
  184DOPC   H9X22665   4.209   1.032  14.286  0.9106  0.2959 -2.1561
  184DOPC  C31022666   4.122   1.167  14.425 -0.3393 -0.4215  0.0513
  184DOPC  H10X22667   4.108   1.085  14.498 -1.0239  0.3964  0.8733
  184DOPC  C31122668   4.066   1.294  14.475  0.4188  0.3859 -0.0745
  184DOPC  H11X22669   4.098   1.387  14.424 -1.8739  2.1533  1.4585
  184DOPC  H11Y22670   4.108   1.300  14.578 -0.9890  0.2636  0.5392
  184DOPC  C31222671   3.912   1.309  14.490 -0.3740 -0.0537  0.2196
  184DOPC  H12X22672   3.884   1.411  14.523  1.8461  0.7433 -0.2595
  184DOPC  H12Y22673   3.878   1.236  14.567 -0.4529  0.0332  0.2678
  184DOPC  C31322674   3.838   1.284  14.354  0.6472 -0.4366 -0.1050
  184DOPC  H13X22675   3.892   1.347  14.280 -2.2892  1.0887 -1.1023
  184DOPC  H13Y22676   3.856   1.178  14.323 -0.9926 -0.7439 -0.0959
  184DOPC  C31422677   3.688   1.304  14.354 -0.0648 -0.0529 -0.1927
  184DOPC  H14X22678   3.668   1.413  14.351  0.8502  0.1087 -1.0068
  184DOPC  H14Y22679   3.656   1.262  14.256  0.3689 -1.0922  0.0965
  184DOPC  C31522680   3.612   1.240  14.473 -0.1055 -0.7026 -0.2537
  184DOPC  H15X22681   3.621   1.311  14.558 -0.9819  0.2647 -0.9341
  184DOPC  H15Y22682   3.670   1.151  14.504  1.3738  0.6024  0.9080
  184DOPC  C31622683   3.461   1.205  14.447 -0.0984  0.6091 -0.1312
  184DOPC  H16X22684   3.407   1.297  14.417 -2.6125 -0.2989  1.2512
  184DOPC  H16Y22685   3.445   1.140  14.359 -0.3414 -0.5680  0.7551
  184DOPC  C31722686   3.381   1.147  14.565 -0.4362  0.0216 -0.5527
  184DOPC  H17X22687   3.287   1.098  14.533 -0.2416 -1.1441  0.5487
  184DOPC  H17Y22688   3.443   1.066  14.611 -1.5124  0.7585  2.4218
  184DOPC  C31822689   3.355   1.253  14.676  0.6589  0.7630  0.8085
  184DOPC  H18X22690   3.446   1.276  14.735  0.0187  0.5796  1.8976
  184DOPC  H18Y22691   3.304   1.349  14.648  1.5454  1.7217  2.3696
  184DOPC  H18Z22692   3.286   1.207  14.750  0.0370  1.1247  0.4648
  185DOPC     N22693   5.045   6.291  12.393 -0.2195 -0.3588  0.2073
  185DOPC   C1222694   5.041   6.339  12.534  0.3134  0.1094 -1.2857
  185DOPC  H12A22695   4.939   6.331  12.569  0.5406 -1.3774 -0.8941
  185DOPC  H12B22696   5.058   6.445  12.544 -2.1227  0.4818 -0.3913
  185DOPC   C1322697   5.184   6.292  12.347 -0.5218 -0.1210  0.3455
  185DOPC  H13A22698   5.255   6.229  12.398 -0.3318  1.1137  1.6968
  185DOPC  H13B22699   5.184   6.260  12.244 -2.6351 -1.6169  0.7432
  185DOPC  H13C22700   5.238   6.384  12.363 -0.8961  0.2971 -0.6630
  185DOPC   C1422701   4.971   6.390  12.312 -0.1044 -0.5632 -0.4263
  185DOPC  H14A22702   5.041   6.472  12.300  1.2035 -1.4649  0.6685
  185DOPC  H14B22703   4.972   6.352  12.211  0.5189 -1.2654 -0.1699
  185DOPC  H14C22704   4.871   6.409  12.348 -0.5466  0.1641 -1.9565
  185DOPC   C1522705   4.974   6.160  12.382 -0.2918 -0.2681  0.2351
  185DOPC  H15A22706   4.952   6.125  12.282 -0.6450  1.0629 -0.1707
  185DOPC  H15B22707   4.874   6.168  12.422 -0.1504 -0.6334  0.6692
  185DOPC  H15C22708   5.020   6.086  12.445  0.5847 -0.8629 -1.0569
  185DOPC   C1122709   5.120   6.253  12.631  0.3650 -0.0065 -0.8157
  185DOPC  H11A22710   5.062   6.256  12.726  0.6734  0.7299 -0.6440
  185DOPC  H11B22711   5.121   6.145  12.606 -0.8182 -0.1311 -0.3567
  185DOPC     P22712   5.305   6.398  12.744 -0.0320 -0.6573 -0.5634
  185DOPC   O1322713   5.200   6.498  12.771 -0.0403  0.4695  0.0305
  185DOPC   O1422714   5.432   6.447  12.692 -0.0120  0.0149 -0.2130
  185DOPC   O1222715   5.247   6.295  12.642  0.1149  0.0224  0.2687
  185DOPC   O1122716   5.332   6.316  12.876  0.0504 -0.0863  0.4545
  185DOPC    C122717   5.438   6.221  12.898  0.1986  0.3137 -0.2703
  185DOPC    HA22718   5.427   6.197  13.006 -0.2265 -0.9547 -0.5858
  185DOPC    HB22719   5.539   6.260  12.875 -0.9671  1.1814 -4.9352
  185DOPC    C222720   5.406   6.075  12.842  0.2171 -0.1053  0.1392
  185DOPC    HS22721   5.390   6.085  12.733 -0.5626 -0.3266  0.2253
  185DOPC   O2122722   5.285   6.031  12.904 -0.0535 -0.3498  0.0952
  185DOPC   C2122723   5.213   5.945  12.834 -0.3954  0.0996 -0.2338
  185DOPC   O2222724   5.245   5.904  12.724  0.7822 -0.0950  0.1924
  185DOPC   C2222725   5.088   5.908  12.915  0.1435  0.7350  0.3034
  185DOPC   H2R22726   5.007   5.903  12.840  1.0758  0.6426 -0.7315
  185DOPC   H2S22727   5.077   5.992  12.987  1.2184  0.8003  0.4151
  185DOPC    C322728   5.524   5.977  12.857  0.6898 -0.8336  0.0046
  185DOPC    HX22729   5.602   6.015  12.787 -1.1751 -1.9424 -2.8671
  185DOPC    HY22730   5.495   5.875  12.826 -1.4087  0.1901 -1.6496
  185DOPC   O3122731   5.581   5.986  12.989  0.0519  0.4541 -0.2017
  185DOPC   C3122732   5.624   5.869  13.037 -0.8593 -0.3286 -0.4606
  185DOPC   O3222733   5.640   5.765  12.973  0.3068  0.0425  0.5050
  185DOPC   C3222734   5.665   5.885  13.185 -0.4394  0.0319  0.2138
  185DOPC   H2X22735   5.734   5.972  13.174 -0.4059 -0.2935 -2.9866
  185DOPC   H2Y22736   5.583   5.933  13.242 -0.2276  0.9070 -0.1990
  185DOPC   C2322737   5.103   5.773  12.981 -0.0519  0.1927 -0.1534
  185DOPC   H3R22738   5.114   5.693  12.905  0.2912 -0.5676  0.6838
  185DOPC   H3S22739   5.011   5.758  13.042  0.1656  2.0617  0.7170
  185DOPC   C2422740   5.221   5.754  13.072  0.0938 -0.0205 -0.5298
  185DOPC   H4R22741   5.217   5.837  13.146 -0.0575 -2.3163  2.2080
  185DOPC   H4S22742   5.321   5.759  13.024  0.1877 -1.1880 -0.4702
  185DOPC   C2522743   5.218   5.619  13.148  0.0531 -1.3119 -0.0193
  185DOPC   H5R22744   5.238   5.543  13.070  0.3654  0.7550 -2.0563
  185DOPC   H5S22745   5.121   5.600  13.199  0.9676 -1.5784  1.6870
  185DOPC   C2622746   5.332   5.621  13.251  1.0166 -0.0113  0.2234
  185DOPC   H6R22747   5.425   5.615  13.190 -0.3799 -0.6959 -1.9347
  185DOPC   H6S22748   5.320   5.523  13.303  0.9716 -0.3216 -0.3612
  185DOPC   C2722749   5.345   5.732  13.353  0.0264  0.2722  0.6052
  185DOPC   H7R22750   5.379   5.821  13.296 -2.0889  0.3046 -0.7042
  185DOPC   H7S22751   5.431   5.705  13.418 -0.7035  2.1295  2.4493
  185DOPC   C2822752   5.213   5.778  13.422  0.0493  0.2027  0.4483
  185DOPC   H8R22753   5.187   5.693  13.489  2.1570 -0.6961  0.1806
  185DOPC   H8S22754   5.133   5.786  13.345  1.9367  0.6208 -1.5595
  185DOPC   C2922755   5.235   5.908  13.491  0.1815 -0.3201  0.5948
  185DOPC   H9R22756   5.284   5.989  13.434 -0.0424 -1.1898 -0.8864
  185DOPC  C21022757   5.196   5.942  13.618  0.0939 -0.3144  0.7310
  185DOPC  H10R22758   5.215   6.044  13.654  1.2575  0.4355 -1.8363
  185DOPC  C21122759   5.113   5.854  13.708  0.4788  0.0965  0.2221
  185DOPC  H11R22760   5.051   5.779  13.654  1.5825 -0.6759 -0.0084
  185DOPC  H11S22761   5.046   5.918  13.768  0.6714 -0.1109  0.6649
  185DOPC  C21222762   5.190   5.778  13.822  0.2345 -0.5607  0.1826
  185DOPC  H12R22763   5.267   5.718  13.767 -0.3684 -1.2035  0.0283
  185DOPC  H12S22764   5.127   5.700  13.870  1.2649 -0.9766  0.9088
  185DOPC  C21322765   5.242   5.877  13.931  0.1522  0.3459 -0.2718
  185DOPC  H13R22766   5.159   5.904  13.999  1.6443 -1.7631  2.5884
  185DOPC  H13S22767   5.287   5.969  13.887  0.1808  0.3956 -0.1402
  185DOPC  C21422768   5.348   5.813  14.027 -0.0052 -0.4906 -0.3041
  185DOPC  H14R22769   5.428   5.775  13.960  2.0011  0.4358  1.4419
  185DOPC  H14S22770   5.307   5.718  14.069  1.7032 -1.1974 -0.1439
  185DOPC  C21522771   5.405   5.901  14.140  0.3811 -0.3708 -0.0122
  185DOPC  H15R22772   5.331   5.958  14.200 -1.1242  0.0846 -2.1749
  185DOPC  H15S22773   5.470   5.981  14.099 -1.3799  0.6966 -0.8438
  185DOPC  C21622774   5.486   5.819  14.242 -0.1543  0.0543  0.4857
  185DOPC  H16R22775   5.584   5.784  14.204 -0.8356 -2.8693  1.1827
  185DOPC  H16S22776   5.437   5.723  14.270 -1.0177  0.1819 -0.5277
  185DOPC  C21722777   5.513   5.898  14.368  0.0992  0.9637  0.3651
  185DOPC  H17R22778   5.409   5.911  14.406  0.1134 -1.4203  1.4075
  185DOPC  H17S22779   5.552   5.999  14.341 -0.5711  0.2106 -4.1336
  185DOPC  C21822780   5.599   5.826  14.463  0.4902  0.1247 -0.1208
  185DOPC  H18R22781   5.551   5.730  14.492 -0.6111  0.8272  0.4597
  185DOPC  H18S22782   5.609   5.896  14.548 -1.0557  0.7583 -0.4234
  185DOPC  H18T22783   5.701   5.806  14.424  0.4433  1.1912 -0.8222
  185DOPC   C3322784   5.744   5.764  13.241  0.1121  0.0738 -0.4613
  185DOPC   H3X22785   5.839   5.755  13.183 -0.2433  1.0034 -1.2085
  185DOPC   H3Y22786   5.689   5.669  13.220  2.9575 -1.4405 -1.6031
  185DOPC   C3422787   5.778   5.766  13.394  0.4513 -0.1129 -0.2084
  185DOPC   H4X22788   5.681   5.779  13.446  0.6693  1.6554 -0.1939
  185DOPC   H4Y22789   5.844   5.853  13.418 -0.6956  0.9720 -0.8813
  185DOPC   C3522790   5.845   5.633  13.441 -0.4794 -0.7858  0.4339
  185DOPC   H5X22791   5.945   5.644  13.394 -0.8288  0.1602 -0.1019
  185DOPC   H5Y22792   5.788   5.551  13.393 -0.7573 -0.6270  0.4932
  185DOPC   C3622793   5.850   5.622  13.595  0.3507  0.5737 -0.1576
  185DOPC   H6X22794   5.926   5.545  13.623  0.5859  1.3876  1.6264
  185DOPC   H6Y22795   5.894   5.720  13.625  0.2509  0.6248 -0.1781
  185DOPC   C3722796   5.718   5.597  13.665 -0.4504  0.4799  0.3171
  185DOPC   H7X22797   5.649   5.676  13.628  0.8508  2.4032  1.7834
  185DOPC   H7Y22798   5.674   5.497  13.643  0.3495 -0.0373  0.9921
  185DOPC   C3822799   5.732   5.598  13.821 -0.2788  1.2029  0.0659
  185DOPC   H8X22800   5.630   5.574  13.857  0.0909  2.1593  1.8491
  185DOPC   H8Y22801   5.758   5.699  13.859 -0.2343  0.9622  0.6908
  185DOPC   C3922802   5.835   5.488  13.860 -0.3369 -0.1997  0.3252
  185DOPC   H9X22803   5.812   5.385  13.829  2.2405 -0.5141 -0.7713
  185DOPC  C31022804   5.932   5.503  13.952 -0.2793 -0.3597  0.1062
  185DOPC  H10X22805   5.996   5.416  13.977 -0.0603  0.1023  1.2111
  185DOPC  C31122806   5.968   5.632  14.030  0.1412  0.2938  0.6979
  185DOPC  H11X22807   5.918   5.717  13.980 -0.7675 -1.2355 -1.1138
  185DOPC  H11Y22808   6.077   5.653  14.032  0.5263 -1.1582 -1.4732
  185DOPC  C31222809   5.909   5.648  14.173  0.3479  0.1685 -0.7260
  185DOPC  H12X22810   5.799   5.660  14.159  0.2238 -0.9643 -0.8266
  185DOPC  H12Y22811   5.940   5.745  14.217  0.0377  0.3769 -0.9627
  185DOPC  C31322812   5.952   5.528  14.264 -0.0061  0.8902 -0.3840
  185DOPC  H13X22813   6.030   5.472  14.208 -0.5208 -0.3803  0.1528
  185DOPC  H13Y22814   6.009   5.563  14.353  0.5224  0.7862 -0.6771
  185DOPC  C31422815   5.842   5.420  14.287 -0.0464 -0.3140 -0.3894
  185DOPC  H14X22816   5.759   5.477  14.336  0.9866 -0.8022  2.0651
  185DOPC  H14Y22817   5.804   5.392  14.187 -1.4308  0.2417 -0.0427
  185DOPC  C31522818   5.884   5.308  14.381 -0.4103  0.1224  0.6578
  185DOPC  H15X22819   5.910   5.360  14.476 -1.2731  2.7447 -0.4482
  185DOPC  H15Y22820   5.973   5.259  14.336  0.6210  0.2574  2.4781
  185DOPC  C31622821   5.774   5.204  14.402  0.3424  0.3803 -0.8066
  185DOPC  H16X22822   5.687   5.256  14.447  1.4288 -0.2243  2.2379
  185DOPC  H16Y22823   5.748   5.154  14.306 -1.1723  0.8627 -0.6702
  185DOPC  C31722824   5.835   5.096  14.503 -0.2180 -0.6597 -0.4240
  185DOPC  H17X22825   5.774   5.004  14.489 -1.0041  0.1748 -3.4095
  185DOPC  H17Y22826   5.941   5.075  14.479  0.0402  0.3249 -0.2050
  185DOPC  C31822827   5.820   5.138  14.648 -0.6296 -0.0782 -0.2496
  185DOPC  H18X22828   5.715   5.173  14.663 -0.9465 -1.7122  1.8868
  185DOPC  H18Y22829   5.838   5.056  14.721 -0.6774  0.0886 -0.0480
  185DOPC  H18Z22830   5.891   5.223  14.659 -0.1358  0.0472 -3.4483
  186DOPC     N22831   6.876   3.521  12.779 -0.0780 -0.0947  0.2941
  186DOPC   C1222832   6.841   3.488  12.924  0.5124  0.8614  0.2870
  186DOPC  H12A22833   6.759   3.419  12.915  1.0907  0.0892  0.8621
  186DOPC  H12B22834   6.812   3.580  12.974  2.2663  0.8331  1.4589
  186DOPC   C1322835   6.901   3.395  12.709  0.2420  0.0316 -0.3618
  186DOPC  H13A22836   6.909   3.414  12.603 -0.0996  0.7859 -0.2569
  186DOPC  H13B22837   6.989   3.343  12.744 -0.7709 -1.2237  0.4285
  186DOPC  H13C22838   6.813   3.333  12.722  1.2774 -1.5058 -0.3514
  186DOPC   C1422839   6.984   3.621  12.758  1.0022  0.8009 -0.4764
  186DOPC  H14A22840   6.991   3.648  12.654 -1.2826  0.2906 -0.8098
  186DOPC  H14B22841   6.967   3.708  12.821 -0.9207 -0.9602  1.5949
  186DOPC  H14C22842   7.076   3.571  12.787 -0.1929 -2.1808 -1.4980
  186DOPC   C1522843   6.753   3.577  12.727  0.2894 -0.1168  0.2465
  186DOPC  H15A22844   6.728   3.679  12.754 -0.0812 -0.6235  1.8954
  186DOPC  H15B22845   6.662   3.521  12.743 -0.2776  0.9628  0.9374
  186DOPC  H15C22846   6.762   3.576  12.619  2.1289 -1.6638  0.3695
  186DOPC   C1122847   6.942   3.409  13.002  0.0739  1.0083  0.3404
  186DOPC  H11A22848   6.887   3.377  13.093  0.0930 -1.0202 -0.3068
  186DOPC  H11B22849   6.969   3.316  12.947  1.7377  0.5438  1.8542
  186DOPC     P22850   7.183   3.406  13.085 -0.2675 -0.2064  0.3209
  186DOPC   O1322851   7.272   3.518  13.130 -0.3192  0.1481  0.1461
  186DOPC   O1422852   7.241   3.306  12.990 -0.0931 -0.3080 -0.9443
  186DOPC   O1222853   7.063   3.482  13.030  0.4064 -0.1794  0.3401
  186DOPC   O1122854   7.121   3.335  13.216 -0.1626  0.4907  0.3895
  186DOPC    C122855   7.107   3.408  13.337  0.6324 -0.3933  0.2289
  186DOPC    HA22856   7.022   3.363  13.392  1.3970 -5.0658 -1.9094
  186DOPC    HB22857   7.103   3.517  13.318 -2.5278 -0.4573 -0.0183
  186DOPC    C222858   7.235   3.389  13.419 -0.7036 -0.6299 -0.2820
  186DOPC    HS22859   7.325   3.423  13.363 -0.4876 -0.8271 -0.0563
  186DOPC   O2122860   7.263   3.253  13.471  0.3343  0.3620 -0.2262
  186DOPC   C2122861   7.356   3.184  13.397  0.5141  0.2459 -0.5453
  186DOPC   O2222862   7.399   3.212  13.287 -0.3044  0.1420 -0.2862
  186DOPC   C2222863   7.386   3.053  13.466  0.5386  0.4627 -0.2383
  186DOPC   H2R22864   7.490   3.023  13.438  2.1405  1.0540  4.2537
  186DOPC   H2S22865   7.318   2.970  13.436  2.2606 -0.9902 -0.3221
  186DOPC    C322866   7.232   3.488  13.542 -0.2590  0.2575  0.5337
  186DOPC    HX22867   7.159   3.447  13.616  1.1687 -0.7446  1.4404
  186DOPC    HY22868   7.190   3.583  13.503 -0.5257 -0.5417 -1.2534
  186DOPC   O3122869   7.368   3.487  13.598  0.5287 -0.3483  0.0827
  186DOPC   C3122870   7.382   3.529  13.719  0.8563  0.2627 -0.1415
  186DOPC   O3222871   7.282   3.563  13.784 -0.7166  0.1359 -0.0758
  186DOPC   C3222872   7.528   3.549  13.753 -0.3980  0.4054 -0.2173
  186DOPC   H2X22873   7.568   3.616  13.674 -1.4896  0.3425 -0.8497
  186DOPC   H2Y22874   7.533   3.601  13.851 -0.9515  0.1567 -0.0510
  186DOPC   C2322875   7.390   3.057  13.627 -0.4200  0.9438 -0.2338
  186DOPC   H3R22876   7.284   3.059  13.662 -0.4072 -2.1003  0.2517
  186DOPC   H3S22877   7.451   3.146  13.653 -0.8540  0.8730  1.0688
  186DOPC   C2422878   7.455   2.927  13.675  0.2351 -0.4210  0.2142
  186DOPC   H4R22879   7.564   2.932  13.650  0.0932  0.0489 -0.3377
  186DOPC   H4S22880   7.427   2.833  13.623  0.6583 -0.6136  0.3252
  186DOPC   C2522881   7.437   2.909  13.822 -0.0723 -0.2213 -0.5500
  186DOPC   H5R22882   7.329   2.897  13.848  0.5176  0.3743  2.5322
  186DOPC   H5S22883   7.465   3.003  13.874  0.0723 -0.8041  0.4781
  186DOPC   C2622884   7.508   2.789  13.880  0.8769  0.8756 -0.2863
  186DOPC   H6R22885   7.478   2.706  13.813  1.6239 -1.4105  2.0372
  186DOPC   H6S22886   7.463   2.772  13.980 -3.4753  3.0167 -1.6558
  186DOPC   C2722887   7.659   2.799  13.891 -0.2352  0.1109 -0.2665
  186DOPC   H7R22888   7.686   2.899  13.931  0.6171 -0.7239  1.3173
  186DOPC   H7S22889   7.695   2.806  13.786 -0.0257 -0.9540 -0.2717
  186DOPC   C2822890   7.730   2.683  13.962  0.0416  0.0865  1.7304
  186DOPC   H8R22891   7.710   2.589  13.906  0.6528  1.4580 -0.9435
  186DOPC   H8S22892   7.683   2.687  14.063  0.8149 -0.5034  2.1265
  186DOPC   C2922893   7.880   2.711  13.968 -0.0464  0.0067 -0.3151
  186DOPC   H9R22894   7.919   2.729  13.867  1.2611  0.4184  0.2533
  186DOPC  C21022895   7.961   2.705  14.078  0.2117  0.2365 -0.1030
  186DOPC  H10R22896   8.063   2.738  14.052 -0.7954  3.2840 -0.5906
  186DOPC  C21122897   7.940   2.671  14.222  0.4011 -0.7929  0.1840
  186DOPC  H11R22898   8.000   2.581  14.246  0.8905 -0.2031  1.2264
  186DOPC  H11S22899   7.832   2.645  14.233  0.6389 -2.4261 -0.9745
  186DOPC  C21222900   7.956   2.780  14.322  0.2859  0.2477 -0.6091
  186DOPC  H12R22901   7.935   2.875  14.267  0.8530  0.2478 -0.8420
  186DOPC  H12S22902   8.062   2.788  14.354  0.7712 -2.4962 -1.2362
  186DOPC  C21322903   7.864   2.766  14.449 -0.4595  0.9570 -0.3978
  186DOPC  H13R22904   7.756   2.765  14.423 -0.7140 -0.2734  0.5863
  186DOPC  H13S22905   7.890   2.853  14.512  0.7877 -0.5263  1.2452
  186DOPC  C21422906   7.889   2.644  14.538 -0.1400 -0.7595  0.2139
  186DOPC  H14R22907   7.996   2.618  14.547 -0.2416 -0.6426  2.5109
  186DOPC  H14S22908   7.839   2.555  14.496  0.3164 -1.4456  1.0889
  186DOPC  C21522909   7.835   2.667  14.683 -0.0650 -0.6042  0.6372
  186DOPC  H15R22910   7.727   2.691  14.685 -0.2280 -1.3106  0.6434
  186DOPC  H15S22911   7.886   2.760  14.715 -0.6701  0.8369 -2.1790
  186DOPC  C21622912   7.870   2.546  14.774  0.0253 -0.2085  0.0017
  186DOPC  H16R22913   7.971   2.507  14.749  0.3619  0.6267  0.0493
  186DOPC  H16S22914   7.801   2.465  14.742  0.3811  0.5471 -3.0259
  186DOPC  C21722915   7.855   2.579  14.916  0.5197 -0.0305 -0.1766
  186DOPC  H17R22916   7.750   2.605  14.940  0.7790  0.3880  0.5334
  186DOPC  H17S22917   7.921   2.667  14.931 -1.5498  2.1382 -2.8242
  186DOPC  C21822918   7.913   2.472  15.013 -0.3081  0.2429  0.6296
  186DOPC  H18R22919   8.024   2.472  15.007 -0.3632  0.8472 -1.0126
  186DOPC  H18S22920   7.869   2.372  14.995 -1.3347  0.8852 -0.6047
  186DOPC  H18T22921   7.873   2.494  15.115 -1.2033 -0.4198  0.4337
  186DOPC   C3322922   7.614   3.419  13.759 -0.0950 -0.5318  0.0124
  186DOPC   H3X22923   7.720   3.452  13.769 -0.8022  1.4063  2.0015
  186DOPC   H3Y22924   7.599   3.357  13.669 -0.2337  0.8441 -0.9392
  186DOPC   C3422925   7.591   3.327  13.884  0.1442 -0.1456 -0.1461
  186DOPC   H4X22926   7.650   3.234  13.879  0.3252  0.0361 -1.6075
  186DOPC   H4Y22927   7.485   3.300  13.867 -0.1807 -0.7552  2.3570
  186DOPC   C3522928   7.593   3.385  14.031 -0.3600 -0.7857 -0.4870
  186DOPC   H5X22929   7.540   3.481  14.045  0.3022 -0.2292 -1.6194
  186DOPC   H5Y22930   7.700   3.412  14.048 -0.5076 -1.4919  1.9577
  186DOPC   C3622931   7.558   3.290  14.146 -0.0802  0.0337 -0.2543
  186DOPC   H6X22932   7.581   3.350  14.237 -0.5016 -0.2310  0.0290
  186DOPC   H6Y22933   7.452   3.256  14.146  0.2750 -1.1781 -1.5401
  186DOPC   C3722934   7.637   3.152  14.158 -0.7883 -0.2698 -0.3559
  186DOPC   H7X22935   7.696   3.144  14.064  0.7018  2.8201  0.1767
  186DOPC   H7Y22936   7.717   3.164  14.234  0.3909  2.2312 -1.8556
  186DOPC   C3822937   7.551   3.034  14.196  0.6466 -0.3950  1.1040
  186DOPC   H8X22938   7.623   2.950  14.193  1.8057  0.5818  1.0751
  186DOPC   H8Y22939   7.480   3.013  14.112 -0.6426 -1.9808  2.5159
  186DOPC   C3922940   7.495   3.049  14.337 -0.4970 -0.6279  0.0704
  186DOPC   H9X22941   7.569   3.070  14.415 -0.0023  0.4229 -0.6558
  186DOPC  C31022942   7.370   3.039  14.381  0.0431  0.4690 -0.1133
  186DOPC  H10X22943   7.349   3.046  14.489  0.0920  0.5091 -0.1069
  186DOPC  C31122944   7.246   3.022  14.303 -0.6192 -0.7757  0.0489
  186DOPC  H11X22945   7.256   3.084  14.211  1.5863 -0.4964  0.4159
  186DOPC  H11Y22946   7.157   3.056  14.361 -0.0891 -1.7824  1.4967
  186DOPC  C31222947   7.218   2.877  14.269  0.4689 -0.2249  0.2697
  186DOPC  H12X22948   7.208   2.827  14.368  0.7824 -0.3875  0.2212
  186DOPC  H12Y22949   7.308   2.833  14.219  0.2583  0.8638 -1.1452
  186DOPC  C31322950   7.083   2.856  14.185 -0.0935 -0.2858 -0.2476
  186DOPC  H13X22951   7.054   2.750  14.199  2.4467 -0.7728  1.9454
  186DOPC  H13Y22952   7.002   2.920  14.227 -0.7783 -0.9302 -0.5677
  186DOPC  C31422953   7.107   2.894  14.038  0.4635 -0.1661 -0.5355
  186DOPC  H14X22954   7.097   3.004  14.031 -0.8520 -0.3169 -1.3193
  186DOPC  H14Y22955   7.207   2.855  14.008  0.3888  0.2693 -1.4030
  186DOPC  C31522956   7.011   2.816  13.942  0.1972 -0.3423  0.2847
  186DOPC  H15X22957   6.908   2.851  13.968  0.2706 -1.5013  2.3886
  186DOPC  H15Y22958   7.013   2.709  13.969  0.1042  0.0469  1.9376
  186DOPC  C31622959   7.052   2.834  13.795 -0.1373  0.5416 -0.1220
  186DOPC  H16X22960   7.071   2.941  13.773 -0.5858  0.5474 -0.4948
  186DOPC  H16Y22961   7.151   2.786  13.781 -0.5713 -0.1763 -0.8493
  186DOPC  C31722962   6.959   2.787  13.677 -0.3599 -0.5774  0.2635
  186DOPC  H17X22963   7.004   2.698  13.627  0.7445 -0.1041  0.4034
  186DOPC  H17Y22964   6.858   2.770  13.721 -0.3924  0.4177  0.6020
  186DOPC  C31822965   6.956   2.897  13.570  0.4446 -0.0754  0.1092
  186DOPC  H18X22966   7.058   2.927  13.539  1.6727 -2.3017  1.6649
  186DOPC  H18Y22967   6.904   2.872  13.475 -0.7224  2.7775 -0.1199
  186DOPC  H18Z22968   6.907   2.989  13.609  1.3111  0.6096 -0.3954
  187DOPC     N22969   6.541   2.287  12.653  0.3529  0.1570  0.3856
  187DOPC   C1222970   6.539   2.412  12.740  0.3412 -0.1833 -0.5724
  187DOPC  H12A22971   6.588   2.489  12.683  0.9509 -0.5674 -0.5762
  187DOPC  H12B22972   6.599   2.399  12.829  1.1528  0.2016 -1.0515
  187DOPC   C1322973   6.450   2.307  12.538  0.0597 -0.4157  0.0026
  187DOPC  H13A22974   6.469   2.232  12.462  1.1781  1.8372 -2.0920
  187DOPC  H13B22975   6.346   2.307  12.564 -0.6024 -2.6687 -2.2646
  187DOPC  H13C22976   6.465   2.406  12.499 -0.7195  0.6179  2.1458
  187DOPC   C1422977   6.499   2.165  12.727 -0.3074 -0.6007  0.3220
  187DOPC  H14A22978   6.570   2.130  12.800  1.1855 -0.3246 -0.9193
  187DOPC  H14B22979   6.397   2.172  12.760 -1.0947  1.0309 -2.1375
  187DOPC  H14C22980   6.493   2.089  12.650  0.8873  1.3642 -1.8451
  187DOPC   C1522981   6.679   2.274  12.597 -0.2061 -0.2884 -0.3299
  187DOPC  H15A22982   6.686   2.186  12.536  0.7101 -0.5941  0.2020
  187DOPC  H15B22983   6.756   2.259  12.672 -0.9561 -0.7093  0.3719
  187DOPC  H15C22984   6.709   2.360  12.538 -0.1534  0.2456  0.4499
  187DOPC   C1122985   6.399   2.465  12.792  0.5340  0.2634 -0.5652
  187DOPC  H11A22986   6.421   2.547  12.864 -2.0569  0.1941  0.4197
  187DOPC  H11B22987   6.340   2.520  12.716 -0.9836 -0.1927  0.2399
  187DOPC     P22988   6.217   2.410  12.968  0.2966  0.2946  0.0483
  187DOPC   O1322989   6.108   2.316  12.979  0.2548 -0.5540  0.2857
  187DOPC   O1422990   6.180   2.551  12.936  0.6555  0.0669 -0.4127
  187DOPC   O1222991   6.317   2.357  12.851 -0.1846 -0.6302 -0.2202
  187DOPC   O1122992   6.298   2.389  13.098 -0.4641 -0.1269  0.3384
  187DOPC    C122993   6.390   2.281  13.092 -1.1013  0.0911 -0.2271
  187DOPC    HA22994   6.485   2.320  13.051 -0.3625  0.5353  1.7673
  187DOPC    HB22995   6.355   2.189  13.041  0.9404 -0.4122 -0.8097
  187DOPC    C222996   6.411   2.225  13.240  0.4872 -0.4144  0.3361
  187DOPC    HS22997   6.479   2.137  13.232  1.5658  0.5163 -1.3853
  187DOPC   O2122998   6.280   2.189  13.295  0.0137  0.6573  0.0294
  187DOPC   C2122999   6.216   2.089  13.247  0.5261  0.6445  0.6594
  187DOPC   O2223000   6.268   1.993  13.192 -0.3929  0.2133 -0.5308
  187DOPC   C2223001   6.068   2.106  13.277 -0.0477  0.1384 -0.4559
  187DOPC   H2R23002   6.012   2.157  13.195 -0.3016  2.3637  1.0033
  187DOPC   H2S23003   6.064   2.164  13.371 -0.1338  1.1349 -1.0529
  187DOPC    C323004   6.468   2.343  13.322 -0.7875 -0.5208 -0.6167
  187DOPC    HX23005   6.407   2.436  13.321  2.8846  2.1515  0.8096
  187DOPC    HY23006   6.558   2.376  13.266 -0.8770  2.4254  0.7942
  187DOPC   O3123007   6.502   2.306  13.460  0.2013  0.3803 -0.3760
  187DOPC   C3123008   6.398   2.304  13.551 -0.4716 -0.4519  1.0134
  187DOPC   O3223009   6.297   2.364  13.530  0.1905 -0.3787  0.0809
  187DOPC   C3223010   6.425   2.205  13.667  0.0646 -0.8558  0.6694
  187DOPC   H2X23011   6.358   2.248  13.745  1.1140 -0.8886  1.6091
  187DOPC   H2Y23012   6.387   2.112  13.620 -0.3678  0.9618 -2.9891
  187DOPC   C2323013   5.989   1.973  13.298  0.1356 -0.0999  0.9315
  187DOPC   H3R23014   5.979   1.919  13.202  3.7307  0.0167  0.3559
  187DOPC   H3S23015   5.888   2.003  13.335 -0.7688 -2.8864  0.9300
  187DOPC   C2423016   6.053   1.876  13.398 -0.4396 -0.6835  0.3481
  187DOPC   H4R23017   6.147   1.838  13.352 -0.8064  0.9803 -1.9366
  187DOPC   H4S23018   5.991   1.785  13.417  1.8126 -1.9412  2.2697
  187DOPC   C2523019   6.086   1.946  13.528 -0.1867  0.1258 -0.6332
  187DOPC   H5R23020   5.996   2.002  13.562  0.7937  1.8076 -0.6956
  187DOPC   H5S23021   6.165   2.021  13.503 -2.4341  2.2804 -1.7036
  187DOPC   C2623022   6.137   1.855  13.634  0.1954  0.0866 -0.3650
  187DOPC   H6R23023   6.228   1.806  13.592  0.5240  0.3172  0.0755
  187DOPC   H6S23024   6.067   1.770  13.650  2.1126 -1.5406 -0.1707
  187DOPC   C2723025   6.178   1.925  13.767 -0.8296  0.3213  0.1845
  187DOPC   H7R23026   6.093   1.985  13.806 -1.1580  0.6295 -0.9766
  187DOPC   H7S23027   6.257   2.000  13.745 -1.0806  0.4603 -0.2537
  187DOPC   C2823028   6.232   1.824  13.873  0.3099  0.4554  0.0840
  187DOPC   H8R23029   6.280   1.891  13.948  0.3106 -1.4221  1.8287
  187DOPC   H8S23030   6.319   1.763  13.841  0.3353 -0.1663  1.2781
  187DOPC   C2923031   6.130   1.748  13.952  0.7464  0.1425 -0.0900
  187DOPC   H9R23032   6.086   1.660  13.903 -1.1276  0.6740  0.5533
  187DOPC  C21023033   6.074   1.783  14.070 -0.4762 -0.3310 -1.0389
  187DOPC  H10R23034   6.023   1.698  14.118  2.1355 -0.7530  1.2781
  187DOPC  C21123035   6.112   1.898  14.164  0.2873  0.8337  0.4959
  187DOPC  H11R23036   6.108   1.995  14.111 -0.8499  1.2113  1.2166
  187DOPC  H11S23037   6.208   1.888  14.219 -1.0867 -0.0762  2.8805
  187DOPC  C21223038   5.997   1.909  14.267  0.0144 -0.0127 -0.3812
  187DOPC  H12R23039   5.904   1.943  14.218  1.3785  2.5994 -1.3561
  187DOPC  H12S23040   6.015   1.995  14.335 -0.8718  0.6120 -0.9056
  187DOPC  C21323041   5.967   1.781  14.346 -0.3573 -0.4054  0.1221
  187DOPC  H13R23042   6.063   1.725  14.335  0.3660  0.6943  0.7369
  187DOPC  H13S23043   5.879   1.732  14.297 -1.5320  1.7066  0.0245
  187DOPC  C21423044   5.939   1.811  14.490 -0.3889  0.3954 -0.2580
  187DOPC  H14R23045   5.865   1.736  14.524  1.2108 -1.3425 -0.4793
  187DOPC  H14S23046   5.882   1.903  14.514  1.4685  1.3327  0.7845
  187DOPC  C21523047   6.063   1.810  14.576  0.5047 -0.1452  0.0522
  187DOPC  H15R23048   6.125   1.893  14.535 -0.9252  1.3219  0.7626
  187DOPC  H15S23049   6.118   1.717  14.549  1.8425  0.2847  1.1679
  187DOPC  C21623050   6.035   1.817  14.727 -0.0384  0.7426  0.2366
  187DOPC  H16R23051   5.973   1.724  14.725 -1.0729  1.3974 -2.4819
  187DOPC  H16S23052   5.975   1.907  14.751  0.0071  0.6860  0.5587
  187DOPC  C21723053   6.157   1.798  14.816  0.2346  0.3369  0.0754
  187DOPC  H17R23054   6.215   1.716  14.769 -0.2188  0.0462  0.0124
  187DOPC  H17S23055   6.117   1.773  14.917  0.4693  1.7999  0.5567
  187DOPC  C21823056   6.240   1.925  14.823 -0.1593 -0.4543  0.0402
  187DOPC  H18R23057   6.339   1.907  14.869 -0.2003 -1.3501 -0.2054
  187DOPC  H18S23058   6.190   2.009  14.876 -0.1691  1.7413 -3.1748
  187DOPC  H18T23059   6.262   1.956  14.718  0.8489  1.8265  0.8670
  187DOPC   C3323060   6.571   2.200  13.713  0.0614  0.2557 -0.7867
  187DOPC   H3X23061   6.613   2.301  13.730 -2.5691  1.6357 -1.9244
  187DOPC   H3Y23062   6.634   2.147  13.638  2.0272  1.8494 -0.3392
  187DOPC   C3423063   6.583   2.110  13.837 -0.5331 -0.9448 -0.4825
  187DOPC   H4X23064   6.689   2.099  13.866  0.3976  2.0920 -2.2125
  187DOPC   H4Y23065   6.549   2.007  13.813 -1.1650 -1.0460  0.7572
  187DOPC   C3523066   6.497   2.158  13.954 -0.2820  0.2528 -0.2183
  187DOPC   H5X23067   6.394   2.127  13.925  0.0619  0.0999 -1.3329
  187DOPC   H5Y23068   6.488   2.268  13.961 -1.4447  0.0802  1.4241
  187DOPC   C3623069   6.524   2.083  14.086 -0.3061 -0.5605 -0.5148
  187DOPC   H6X23070   6.517   1.975  14.060 -0.4296 -0.7322  0.2141
  187DOPC   H6Y23071   6.627   2.109  14.119 -0.0767 -0.9290 -0.9307
  187DOPC   C3723072   6.436   2.129  14.206 -0.0322 -0.4262 -0.1912
  187DOPC   H7X23073   6.449   2.237  14.226  0.5680  0.0241 -2.7809
  187DOPC   H7Y23074   6.333   2.108  14.170  0.4895 -0.1603 -1.9014
  187DOPC   C3823075   6.451   2.044  14.330 -0.5203 -0.4258 -0.9028
  187DOPC   H8X23076   6.556   2.067  14.361 -1.5562  2.9701  0.4628
  187DOPC   H8Y23077   6.451   1.936  14.301  0.3875 -0.1612 -1.9883
  187DOPC   C3923078   6.353   2.080  14.440 -0.1470  0.1910 -0.8047
  187DOPC   H9X23079   6.256   2.030  14.428  0.5223 -1.7206  1.1223
  187DOPC  C31023080   6.388   2.154  14.547  0.2727 -0.4035 -0.4541
  187DOPC  H10X23081   6.325   2.139  14.636 -0.8296  0.8870 -0.9769
  187DOPC  C31123082   6.516   2.223  14.583 -0.8234 -0.4200  0.3434
  187DOPC  H11X23083   6.573   2.258  14.494  0.4299 -0.5504  1.0713
  187DOPC  H11Y23084   6.584   2.153  14.635  2.4289  2.0493 -0.2534
  187DOPC  C31223085   6.500   2.355  14.659 -0.2174  0.1986 -0.1964
  187DOPC  H12X23086   6.585   2.363  14.730 -0.6239 -0.6155  0.4026
  187DOPC  H12Y23087   6.416   2.362  14.731  0.4130  0.9108  0.4860
  187DOPC  C31323088   6.502   2.477  14.564 -0.2617 -0.7488  0.4278
  187DOPC  H13X23089   6.609   2.490  14.541 -0.0260  1.0960  2.2447
  187DOPC  H13Y23090   6.448   2.473  14.467 -0.4392  0.4018  0.4653
  187DOPC  C31423091   6.467   2.608  14.635 -0.1837 -0.4344  0.2026
  187DOPC  H14X23092   6.543   2.624  14.715  0.8056 -0.4331 -0.7176
  187DOPC  H14Y23093   6.469   2.690  14.560  0.7007 -2.3020 -1.9490
  187DOPC  C31523094   6.333   2.593  14.693 -0.0149  0.2561 -0.0401
  187DOPC  H15X23095   6.328   2.535  14.787 -0.7842  0.7224  0.2140
  187DOPC  H15Y23096   6.257   2.556  14.621 -0.4160  2.4471 -0.8465
  187DOPC  C31623097   6.287   2.725  14.756 -0.3087 -0.1995  0.8889
  187DOPC  H16X23098   6.382   2.755  14.806  0.3135 -1.5783  0.5897
  187DOPC  H16Y23099   6.276   2.797  14.672  0.2690 -1.7839 -0.5983
  187DOPC  C31723100   6.181   2.707  14.858 -0.1701 -0.6386  0.4394
  187DOPC  H17X23101   6.098   2.649  14.812 -1.0123 -2.6262  4.0173
  187DOPC  H17Y23102   6.231   2.655  14.943 -1.0909 -0.5423  1.0557
  187DOPC  C31823103   6.131   2.843  14.909  0.4192  0.6743 -0.1733
  187DOPC  H18X23104   6.104   2.904  14.820  0.7905  0.4773 -0.4252
  187DOPC  H18Y23105   6.044   2.825  14.974 -0.5806  1.1885 -1.3342
  187DOPC  H18Z23106   6.221   2.882  14.962  0.6796  0.6262 -0.5702
  188DOPC     N23107   1.617   1.562  12.898  0.1913 -0.8126 -0.2441
  188DOPC   C1223108   1.658   1.574  13.049  0.5632 -0.3715  0.3463
  188DOPC  H12A23109   1.602   1.502  13.107 -1.4982 -0.5382 -1.7006
  188DOPC  H12B23110   1.623   1.668  13.088 -1.2759 -1.0510  0.4580
  188DOPC   C1323111   1.686   1.445  12.832  0.4470  0.2490 -0.3756
  188DOPC  H13A23112   1.794   1.450  12.831  0.5088  0.0714 -3.1852
  188DOPC  H13B23113   1.652   1.348  12.865 -3.4753  0.9039 -1.9899
  188DOPC  H13C23114   1.664   1.432  12.727 -1.0656 -1.5888  0.1092
  188DOPC   C1423115   1.651   1.683  12.821 -0.5258 -0.1587  0.3265
  188DOPC  H14A23116   1.757   1.707  12.827 -0.3007 -0.6682 -1.2613
  188DOPC  H14B23117   1.639   1.674  12.714  0.7862 -0.6299  0.2008
  188DOPC  H14C23118   1.593   1.770  12.849 -1.0259 -0.0196 -1.0798
  188DOPC   C1523119   1.472   1.545  12.892 -0.1020  0.2991 -0.2247
  188DOPC  H15A23120   1.452   1.451  12.942  2.1018  0.1055  0.3790
  188DOPC  H15B23121   1.445   1.523  12.790 -0.8610 -1.5297  0.3151
  188DOPC  H15C23122   1.421   1.618  12.952  4.8315  0.9816  3.8385
  188DOPC   C1123123   1.811   1.549  13.085 -0.0079 -0.3641 -0.4064
  188DOPC  H11A23124   1.835   1.567  13.192 -2.6338 -0.3461  0.2538
  188DOPC  H11B23125   1.829   1.440  13.074 -0.2009 -0.4425  0.0613
  188DOPC     P23126   2.045   1.570  12.948  0.0996 -0.0556 -0.2997
  188DOPC   O1323127   2.142   1.679  12.953 -0.8370 -0.2257  0.0248
  188DOPC   O1423128   2.036   1.506  12.816  0.0487  0.2423 -0.1733
  188DOPC   O1223129   1.900   1.625  12.996 -0.2804  0.1464 -0.3699
  188DOPC   O1123130   2.072   1.458  13.054  0.5444  0.0844 -0.7862
  188DOPC    C123131   2.205   1.419  13.084 -0.5945  0.4927  0.3786
  188DOPC    HA23132   2.276   1.483  13.028 -0.9941 -0.4156 -1.2505
  188DOPC    HB23133   2.225   1.318  13.042  2.4472  1.8620 -1.8826
  188DOPC    C223134   2.239   1.434  13.234 -0.2066 -0.0073  0.2833
  188DOPC    HS23135   2.200   1.349  13.294 -1.1354  0.0347 -0.2528
  188DOPC   O2123136   2.188   1.558  13.279  0.0919 -0.1693  0.6066
  188DOPC   C2123137   2.073   1.561  13.331 -0.0447 -0.6333  0.0532
  188DOPC   O2223138   2.009   1.457  13.357  0.2940  0.5099 -0.2927
  188DOPC   C2223139   2.029   1.709  13.362  0.0077 -0.5454  0.4617
  188DOPC   H2R23140   1.985   1.746  13.267  0.6598 -2.8674 -0.8303
  188DOPC   H2S23141   2.121   1.770  13.377  0.4149 -0.8500 -0.6399
  188DOPC    C323142   2.393   1.438  13.255  0.0868  0.4393 -0.1105
  188DOPC    HX23143   2.441   1.511  13.187  0.2685  0.1585 -0.2828
  188DOPC    HY23144   2.433   1.342  13.215 -0.5871  0.4848 -0.9249
  188DOPC   O3123145   2.434   1.445  13.392  0.1691  0.6888 -0.2985
  188DOPC   C3123146   2.453   1.569  13.441  0.3303  0.1759 -0.9592
  188DOPC   O3223147   2.457   1.672  13.369  0.4460  0.1484 -0.8880
  188DOPC   C3223148   2.490   1.563  13.595  0.5091  0.0251  0.0275
  188DOPC   H2X23149   2.462   1.464  13.637  1.5328 -0.2623  0.0754
  188DOPC   H2Y23150   2.601   1.565  13.600  0.4838  0.8026  0.3749
  188DOPC   C2323151   1.935   1.731  13.482  0.3406  0.4704  0.4390
  188DOPC   H3R23152   1.860   1.650  13.490  0.4131  0.5417  2.1036
  188DOPC   H3S23153   1.872   1.820  13.461 -0.1857  0.2652  1.1235
  188DOPC   C2423154   2.015   1.768  13.605  0.0230 -0.3969  0.3980
  188DOPC   H4R23155   2.069   1.864  13.588 -0.2175 -0.1165  1.1565
  188DOPC   H4S23156   2.098   1.695  13.611 -1.2642 -2.4762 -3.8601
  188DOPC   C2523157   1.934   1.776  13.740 -0.2262  0.1097  0.1422
  188DOPC   H5R23158   1.896   1.675  13.767 -0.3685  0.8655  3.1691
  188DOPC   H5S23159   1.837   1.827  13.721 -0.9342 -0.8914  0.9394
  188DOPC   C2623160   2.014   1.828  13.863 -0.1823  0.7562  0.3220
  188DOPC   H6R23161   2.037   1.932  13.834  1.0296 -0.1366 -2.2441
  188DOPC   H6S23162   2.112   1.776  13.855 -0.2693  0.4862  0.9197
  188DOPC   C2723163   1.951   1.804  14.001  0.1577 -0.5404 -0.0785
  188DOPC   H7R23164   1.917   1.699  14.010 -0.3593 -0.4990 -1.3218
  188DOPC   H7S23165   1.859   1.867  13.998  0.7677  0.3369 -1.6153
  188DOPC   C2823166   2.039   1.847  14.117  0.8844  0.0062 -0.1070
  188DOPC   H8R23167   1.970   1.889  14.194 -0.3196 -0.6477 -0.8000
  188DOPC   H8S23168   2.097   1.935  14.084  1.6830 -0.7300 -0.7107
  188DOPC   C2923169   2.127   1.729  14.157 -0.2780 -0.2630 -0.3501
  188DOPC   H9R23170   2.195   1.681  14.086 -0.5838 -0.2493 -0.6532
  188DOPC  C21023171   2.120   1.673  14.286 -0.3483  0.2093  0.4566
  188DOPC  H10R23172   2.165   1.573  14.298 -0.4966  0.1097  0.1951
  188DOPC  C21123173   2.026   1.713  14.395 -0.2879  0.0170 -0.2104
  188DOPC  H11R23174   1.946   1.637  14.400  1.7816 -2.3060 -0.7584
  188DOPC  H11S23175   1.988   1.815  14.371  0.7668  0.2498 -0.9429
  188DOPC  C21223176   2.101   1.723  14.527  0.9943  0.1368 -0.2920
  188DOPC  H12R23177   2.197   1.777  14.517  0.7898  0.4490 -0.6080
  188DOPC  H12S23178   2.127   1.619  14.558 -1.5999 -1.1328 -1.9135
  188DOPC  C21323179   2.007   1.775  14.642  0.5821  0.5345 -0.9438
  188DOPC  H13R23180   1.976   1.874  14.604 -0.6599  1.7530  2.7978
  188DOPC  H13S23181   2.067   1.794  14.733 -1.2906 -0.9023  0.6931
  188DOPC  C21423182   1.890   1.682  14.680  0.2511  0.1774 -0.3742
  188DOPC  H14R23183   1.931   1.581  14.702  0.3609  0.4662  0.8626
  188DOPC  H14S23184   1.827   1.676  14.589  1.3897  1.2398 -1.2574
  188DOPC  C21523185   1.805   1.739  14.793  0.8377  0.1910 -0.0109
  188DOPC  H15R23186   1.865   1.756  14.885 -0.1932 -1.2948  0.9818
  188DOPC  H15S23187   1.736   1.656  14.817 -0.0171  0.6023 -0.9760
  188DOPC  C21623188   1.729   1.866  14.746 -0.6464  0.4767  0.4338
  188DOPC  H16R23189   1.718   1.858  14.635  1.8926  0.3359  0.1446
  188DOPC  H16S23190   1.796   1.949  14.774 -0.9951  0.4807  1.2739
  188DOPC  C21723191   1.596   1.894  14.805  0.4365  0.4496 -0.3359
  188DOPC  H17R23192   1.614   1.897  14.915  1.0159  0.4087 -0.4251
  188DOPC  H17S23193   1.520   1.816  14.783  0.1094  0.6169  0.1882
  188DOPC  C21823194   1.541   2.028  14.766 -0.3654  0.1072 -0.1893
  188DOPC  H18R23195   1.508   2.037  14.660  1.3310  1.5804 -0.6369
  188DOPC  H18S23196   1.604   2.117  14.785  0.1296  0.6363 -3.7054
  188DOPC  H18T23197   1.450   2.040  14.829  0.3890  1.4571  0.6743
  188DOPC   C3323198   2.429   1.677  13.674 -0.4926 -0.0550 -0.0815
  188DOPC   H3X23199   2.330   1.710  13.636 -0.1780  0.6205 -0.3213
  188DOPC   H3Y23200   2.498   1.762  13.657 -0.6180  0.4530  1.7573
  188DOPC   C3423201   2.416   1.650  13.824  0.5008  0.8408 -0.5446
  188DOPC   H4X23202   2.331   1.580  13.835  1.0354 -0.0359 -1.7262
  188DOPC   H4Y23203   2.384   1.737  13.885 -0.5910 -0.4996  0.8757
  188DOPC   C3523204   2.543   1.576  13.884 -0.0599 -0.6870  0.4714
  188DOPC   H5X23205   2.630   1.643  13.867 -1.2416  0.4977 -1.2577
  188DOPC   H5Y23206   2.567   1.480  13.834  2.3639  0.1642 -0.1267
  188DOPC   C3623207   2.544   1.551  14.038 -0.2640 -0.6702 -0.2608
  188DOPC   H6X23208   2.527   1.648  14.089  4.1783 -0.0996  0.5768
  188DOPC   H6Y23209   2.472   1.485  14.091  0.8039  0.0330  2.2111
  188DOPC   C3723210   2.675   1.497  14.090 -0.0527  0.4519 -0.3426
  188DOPC   H7X23211   2.699   1.396  14.051 -0.6510  0.9986 -2.2394
  188DOPC   H7Y23212   2.753   1.569  14.057  2.9251 -1.7161  1.4421
  188DOPC   C3823213   2.690   1.481  14.245  0.3272 -0.0503  0.2269
  188DOPC   H8X23214   2.796   1.464  14.271  0.1104  0.6994  1.7186
  188DOPC   H8Y23215   2.619   1.405  14.284 -1.9748  1.9761  0.2646
  188DOPC   C3923216   2.652   1.616  14.300  0.4130 -0.2727 -0.2188
  188DOPC   H9X23217   2.707   1.695  14.247  0.3231  1.8724  2.5850
  188DOPC  C31023218   2.572   1.645  14.406 -0.3060 -0.5761 -0.4216
  188DOPC  H10X23219   2.552   1.751  14.426 -0.1044 -0.6307  0.0742
  188DOPC  C31123220   2.480   1.550  14.474  0.1025 -0.3222  0.8579
  188DOPC  H11X23221   2.469   1.465  14.404  1.0374  1.6285 -1.8288
  188DOPC  H11Y23222   2.380   1.594  14.492 -0.3170 -2.0210  3.2001
  188DOPC  C31223223   2.534   1.499  14.611  0.2339 -0.3603 -0.3332
  188DOPC  H12X23224   2.553   1.585  14.679  1.5074 -1.6838  1.0571
  188DOPC  H12Y23225   2.633   1.449  14.610  0.2835 -0.2659 -0.9489
  188DOPC  C31323226   2.439   1.401  14.684  0.8236  0.2582  0.4753
  188DOPC  H13X23227   2.335   1.432  14.708 -0.0255 -2.0109  0.0063
  188DOPC  H13Y23228   2.421   1.315  14.616  1.0315 -1.2367  2.2075
  188DOPC  C31423229   2.513   1.350  14.809  0.3924 -0.2539 -0.7298
  188DOPC  H14X23230   2.614   1.311  14.782 -0.6403 -2.4222 -1.7535
  188DOPC  H14Y23231   2.523   1.434  14.881 -0.0696 -1.6808  1.0898
  188DOPC  C31523232   2.434   1.240  14.880  0.2195  0.5067  0.0016
  188DOPC  H15X23233   2.372   1.177  14.813  0.3816  1.0243 -0.6458
  188DOPC  H15Y23234   2.361   1.276  14.955  0.4337 -0.0062  0.4591
  188DOPC  C31623235   2.531   1.149  14.944 -0.0308 -0.1991 -0.5578
  188DOPC  H16X23236   2.480   1.067  14.998 -0.6510  0.4492 -0.1523
  188DOPC  H16Y23237   2.583   1.090  14.864 -2.9928 -0.4078 -2.4625
  188DOPC  C31723238   2.617   1.203  15.051  0.9815 -0.1355  0.0553
  188DOPC  H17X23239   2.668   1.293  15.013  1.7484 -0.9008 -0.7518
  188DOPC  H17Y23240   2.550   1.240  15.132 -0.4512 -1.2999 -0.5383
  188DOPC  C31823241   2.715   1.108  15.113  0.6001 -0.2015 -0.1597
  188DOPC  H18X23242   2.788   1.162  15.176  0.3903 -2.0192  1.7384
  188DOPC  H18Y23243   2.666   1.022  15.164  0.3332  0.3270  0.4840
  188DOPC  H18Z23244   2.782   1.059  15.039 -0.7144 -1.9034 -0.2897
  189DOPC     N23245   3.700   0.466  12.686  0.2761 -0.4409 -0.3968
  189DOPC   C1223246   3.696   0.596  12.765  0.2894  0.2269  0.1119
  189DOPC  H12A23247   3.593   0.618  12.789 -0.4006 -2.3674 -0.1983
  189DOPC  H12B23248   3.727   0.677  12.700 -0.7403 -0.5796 -1.4550
  189DOPC   C1323249   3.616   0.474  12.558 -0.0571  0.3291 -0.3012
  189DOPC  H13A23250   3.521   0.519  12.579 -0.0430 -0.1308  0.8110
  189DOPC  H13B23251   3.664   0.544  12.491  2.9011 -1.5803 -0.4117
  189DOPC  H13C23252   3.596   0.380  12.509  1.2781  0.7905 -1.8290
  189DOPC   C1423253   3.643   0.362  12.780  0.0983  0.0047  0.0387
  189DOPC  H14A23254   3.537   0.368  12.796  0.3290  1.5592  1.2224
  189DOPC  H14B23255   3.671   0.261  12.752  1.9662  0.8047 -1.1949
  189DOPC  H14C23256   3.686   0.365  12.880  0.8159 -3.6391 -0.0015
  189DOPC   C1523257   3.845   0.432  12.651  0.9242  0.1770 -0.3484
  189DOPC  H15A23258   3.912   0.442  12.736 -0.7598 -2.7683  1.5285
  189DOPC  H15B23259   3.883   0.495  12.572  1.6649  1.0153  0.6455
  189DOPC  H15C23260   3.853   0.331  12.613  0.0680 -1.3309  3.0897
  189DOPC   C1123261   3.784   0.607  12.886 -0.8533  0.2834 -0.1449
  189DOPC  H11A23262   3.889   0.595  12.851 -0.1589  0.5351  1.7037
  189DOPC  H11B23263   3.781   0.714  12.917 -0.1091  0.6364 -1.2151
  189DOPC     P23264   3.650   0.568  13.109  0.2810 -0.3306  0.0226
  189DOPC   O1323265   3.622   0.460  13.201  0.0199  0.8160  0.2757
  189DOPC   O1423266   3.528   0.638  13.052 -0.0008  0.3908 -0.5708
  189DOPC   O1223267   3.744   0.519  12.988  0.1108 -0.1650 -0.0718
  189DOPC   O1123268   3.727   0.674  13.190 -0.5893 -0.0354 -0.4770
  189DOPC    C123269   3.864   0.675  13.208  0.0481  0.0851  0.5551
  189DOPC    HA23270   3.881   0.781  13.237 -0.9486  0.3315  0.2833
  189DOPC    HB23271   3.923   0.640  13.120  0.0723 -1.3569  1.1156
  189DOPC    C223272   3.909   0.615  13.347  0.1801  0.2404  0.5994
  189DOPC    HS23273   3.944   0.512  13.323 -0.4551 -0.1140  1.1590
  189DOPC   O2123274   3.793   0.618  13.434 -0.2577 -0.1427 -0.0963
  189DOPC   C2123275   3.779   0.511  13.515  0.1717 -0.5917  0.4605
  189DOPC   O2223276   3.848   0.410  13.511 -0.5576  0.1634  0.0708
  189DOPC   C2223277   3.668   0.534  13.615 -0.3137  0.3116  0.0651
  189DOPC   H2R23278   3.575   0.554  13.559 -0.0973  0.0591 -0.3930
  189DOPC   H2S23279   3.689   0.630  13.667 -0.3206  0.0523  0.5561
  189DOPC    C323280   4.027   0.702  13.409  0.4409  0.6688  0.5617
  189DOPC    HX23281   3.986   0.804  13.421 -1.7868 -0.1470  0.4080
  189DOPC    HY23282   4.115   0.706  13.342 -1.3092  0.8850 -1.8547
  189DOPC   O3123283   4.059   0.651  13.543  0.1664  0.1950  0.1483
  189DOPC   C3123284   4.130   0.539  13.546 -0.0227  0.1361 -0.2230
  189DOPC   O3223285   4.176   0.486  13.444 -0.2675  0.4189 -0.3133
  189DOPC   C3223286   4.147   0.485  13.695 -0.0391  0.3213  0.0466
  189DOPC   H2X23287   4.157   0.575  13.760 -1.8806  1.1287 -0.7249
  189DOPC   H2Y23288   4.050   0.439  13.722  0.0227 -0.4320 -0.9375
  189DOPC   C2323289   3.642   0.413  13.705 -0.1578 -0.3920 -0.6209
  189DOPC   H3R23290   3.570   0.449  13.782  1.3948  0.5280  0.4609
  189DOPC   H3S23291   3.737   0.369  13.741  0.6833  1.8233  0.0518
  189DOPC   C2423292   3.572   0.296  13.628  0.3272  0.5153  0.1011
  189DOPC   H4R23293   3.641   0.245  13.557 -0.3485 -1.4132  0.7425
  189DOPC   H4S23294   3.490   0.342  13.568  1.2865 -0.2126 -1.8695
  189DOPC   C2523295   3.535   0.180  13.720  0.1577  0.0680  0.7032
  189DOPC   H5R23296   3.466   0.219  13.798 -2.0164 -2.4783  0.2001
  189DOPC   H5S23297   3.617   0.131  13.776 -0.0496  0.5623  1.4524
  189DOPC   C2623298   3.442   0.071  13.659  0.2011 -0.0654  0.3103
  189DOPC   H6R23299   3.498   0.022  13.577  0.8380 -0.1932  0.8170
  189DOPC   H6S23300   3.364   0.129  13.604  1.8432  0.2319 -1.8333
  189DOPC   C2723301   3.379  -0.023  13.771 -0.0277  0.3937 -0.1056
  189DOPC   H7R23302   3.298   0.035  13.821 -1.4265 -1.0512 -0.6367
  189DOPC   H7S23303   3.447  -0.051  13.854 -0.0094 -1.7985 -0.8094
  189DOPC   C2823304   3.328  -0.160  13.718 -0.0101 -0.4270 -0.3613
  189DOPC   H8R23305   3.416  -0.211  13.674 -0.4668 -0.6372 -1.0557
  189DOPC   H8S23306   3.258  -0.144  13.633 -2.1696 -0.5587  1.3079
  189DOPC   C2923307   3.249  -0.227  13.826 -0.7768  0.2321 -0.4271
  189DOPC   H9R23308   3.173  -0.167  13.878 -0.0476  1.4922 -0.7955
  189DOPC  C21023309   3.269  -0.350  13.881  0.1113  0.4539 -0.3112
  189DOPC  H10R23310   3.196  -0.385  13.955 -0.2169  0.1694 -0.7647
  189DOPC  C21123311   3.373  -0.448  13.827  0.1037  0.8245  0.1101
  189DOPC  H11R23312   3.414  -0.438  13.724  3.0055  0.0316  1.0927
  189DOPC  H11S23313   3.320  -0.545  13.825  0.9138  0.3589  0.7265
  189DOPC  C21223314   3.481  -0.478  13.932 -0.1814  0.0201  0.0935
  189DOPC  H12R23315   3.544  -0.389  13.953  1.5391 -1.7047  2.8436
  189DOPC  H12S23316   3.548  -0.554  13.888  0.1706  1.0597 -1.2528
  189DOPC  C21323317   3.438  -0.534  14.076 -0.1331 -0.3690 -0.1527
  189DOPC  H13R23318   3.383  -0.453  14.129  0.5070 -1.0451  1.6066
  189DOPC  H13S23319   3.534  -0.554  14.128 -0.6370 -1.9090  0.2462
  189DOPC  C21423320   3.354  -0.663  14.082  0.1937 -0.6806 -0.4356
  189DOPC  H14R23321   3.401  -0.742  14.019 -1.0305 -2.3899  0.7150
  189DOPC  H14S23322   3.254  -0.622  14.058  0.2807 -0.2138 -0.0147
  189DOPC  C21523323   3.353  -0.715  14.222  0.1727 -0.2492 -0.3183
  189DOPC  H15R23324   3.289  -0.643  14.278  0.1221 -0.0450 -0.6304
  189DOPC  H15S23325   3.453  -0.716  14.271  0.6530 -0.3055 -1.2804
  189DOPC  C21623326   3.278  -0.853  14.229  0.7256 -0.4929 -0.2890
  189DOPC  H16R23327   3.324  -0.918  14.152  2.2223  1.0413 -0.7516
  189DOPC  H16S23328   3.173  -0.829  14.199  0.4357  0.9086  1.6583
  189DOPC  C21723329   3.276  -0.922  14.364 -0.9624  0.1310  0.1837
  189DOPC  H17R23330   3.198  -1.000  14.369 -1.4016  0.6065  1.1250
  189DOPC  H17S23331   3.236  -0.839  14.427  2.0097  2.4542 -0.7073
  189DOPC  C21823332   3.422  -0.955  14.414  0.0271  0.3233  0.3757
  189DOPC  H18R23333   3.473  -0.856  14.421 -2.2542  1.5815  0.1847
  189DOPC  H18S23334   3.488  -1.015  14.348  0.6092  0.5969  0.7050
  189DOPC  H18T23335   3.415  -0.993  14.518  1.2177 -0.7128  0.1010
  189DOPC   C3323336   4.268   0.390  13.704  0.0096 -0.1643  0.0793
  189DOPC   H3X23337   4.364   0.445  13.693 -0.5941  1.8975  3.6471
  189DOPC   H3Y23338   4.257   0.314  13.623  0.0759  0.7027 -0.7706
  189DOPC   C3423339   4.285   0.308  13.835 -0.0972 -0.3398 -0.0922
  189DOPC   H4X23340   4.263   0.374  13.922  3.0235 -0.0493  0.6081
  189DOPC   H4Y23341   4.391   0.276  13.841  0.5605  1.5914 -0.7651
  189DOPC   C3523342   4.198   0.186  13.851  0.3121  0.0129  0.3340
  189DOPC   H5X23343   4.095   0.219  13.828  0.6431  0.0623 -1.2471
  189DOPC   H5Y23344   4.211   0.134  13.948  2.3016 -0.6344 -0.2277
  189DOPC   C3623345   4.233   0.063  13.763  1.1804 -0.2878  0.2631
  189DOPC   H6X23346   4.245   0.105  13.660 -2.4623 -1.7064 -0.8846
  189DOPC   H6Y23347   4.333   0.030  13.799  0.9478 -0.8991  0.3597
  189DOPC   C3723348   4.135  -0.052  13.761 -0.1586  0.6776 -0.9565
  189DOPC   H7X23349   4.043  -0.026  13.705 -0.8219 -1.9655 -1.2182
  189DOPC   H7Y23350   4.182  -0.137  13.707  0.2169  0.6999 -0.6706
  189DOPC   C3823351   4.095  -0.099  13.910 -0.9914 -0.0963  0.0686
  189DOPC   H8X23352   4.033  -0.019  13.955  0.3118  0.5559  0.7603
  189DOPC   H8Y23353   4.190  -0.099  13.968 -1.2485 -0.3696  0.4912
  189DOPC   C3923354   4.033  -0.242  13.912 -0.1171 -0.2147 -0.1328
  189DOPC   H9X23355   4.072  -0.314  13.838  1.7215  0.8516 -0.2731
  189DOPC  C31023356   3.914  -0.262  13.968  0.3513 -0.3643 -1.0785
  189DOPC  H10X23357   3.869  -0.362  13.958 -1.7227 -0.1200  3.4350
  189DOPC  C31123358   3.844  -0.170  14.060  0.9076  0.1285  0.1012
  189DOPC  H11X23359   3.916  -0.108  14.116  0.6706 -0.2016  0.7808
  189DOPC  H11Y23360   3.788  -0.236  14.131  1.9231 -2.6458 -1.4976
  189DOPC  C31223361   3.742  -0.076  13.991 -0.0516  0.0738 -0.7522
  189DOPC  H12X23362   3.645  -0.124  13.965 -0.1897 -0.9678  1.4499
  189DOPC  H12Y23363   3.780  -0.053  13.889  3.3014 -2.7614 -0.3562
  189DOPC  C31323364   3.724   0.058  14.064 -0.3072  0.2324  0.6203
  189DOPC  H13X23365   3.645   0.110  14.005 -0.1683  0.6559  0.8039
  189DOPC  H13Y23366   3.682   0.056  14.166 -0.2918  0.4208  0.6310
  189DOPC  C31423367   3.848   0.154  14.063  0.9139 -0.4412  0.0677
  189DOPC  H14X23368   3.925   0.100  14.123 -2.3861 -3.2319  2.1423
  189DOPC  H14Y23369   3.887   0.166  13.960 -1.4601 -1.3913 -0.9965
  189DOPC  C31523370   3.819   0.296  14.121  0.0112  0.2321 -0.3842
  189DOPC  H15X23371   3.735   0.338  14.061  0.4633 -2.9961 -3.6361
  189DOPC  H15Y23372   3.915   0.351  14.114 -0.0096  0.5690  1.5499
  189DOPC  C31623373   3.778   0.302  14.267  0.1364 -0.1665  0.3217
  189DOPC  H16X23374   3.684   0.247  14.286 -0.0171 -0.9298 -2.3957
  189DOPC  H16Y23375   3.864   0.254  14.319  1.3267  1.5365  0.0454
  189DOPC  C31723376   3.762   0.445  14.323  0.4326 -0.1202  0.5469
  189DOPC  H17X23377   3.864   0.490  14.328  0.0467  0.8953 -0.3753
  189DOPC  H17Y23378   3.699   0.507  14.256  0.5711  1.0437  1.4426
  189DOPC  C31823379   3.704   0.447  14.461  0.1068  0.1527 -0.0400
  189DOPC  H18X23380   3.605   0.396  14.466  0.2996 -0.1075  1.9195
  189DOPC  H18Y23381   3.769   0.400  14.538 -3.5610 -1.0636  2.6528
  189DOPC  H18Z23382   3.703   0.554  14.492  1.2695  0.2317 -0.2213
  190DOPC     N23383   2.206   7.423  12.454  0.3554  0.1510 -0.6274
  190DOPC   C1223384   2.193   7.415  12.612  0.1407 -0.2256  0.1650
  190DOPC  H12A23385   2.203   7.315  12.649  3.0282  0.8339  2.7360
  190DOPC  H12B23386   2.091   7.445  12.628 -0.0366  0.0229 -1.2306
  190DOPC   C1323387   2.346   7.380  12.413  0.9922  0.0209 -0.5088
  190DOPC  H13A23388   2.344   7.389  12.305  4.0798  0.2710 -0.6352
  190DOPC  H13B23389   2.416   7.453  12.449 -1.2894  1.6565  0.8384
  190DOPC  H13C23390   2.368   7.282  12.453 -0.2387 -0.5695 -1.2108
  190DOPC   C1423391   2.169   7.558  12.413 -0.5501  0.2079 -0.4526
  190DOPC  H14A23392   2.064   7.580  12.426 -0.0782  2.4242  0.0454
  190DOPC  H14B23393   2.234   7.621  12.472 -0.2090 -1.0237  0.5218
  190DOPC  H14C23394   2.186   7.577  12.308  0.9359  0.2605 -0.2215
  190DOPC   C1523395   2.101   7.334  12.388 -0.8534  0.0540  0.5503
  190DOPC  H15A23396   2.115   7.232  12.420  1.6785  1.2983  4.0414
  190DOPC  H15B23397   2.107   7.347  12.281 -0.3590 -0.4438  0.5131
  190DOPC  H15C23398   2.003   7.364  12.421 -1.3674 -2.1287  1.1911
  190DOPC   C1123399   2.285   7.505  12.703 -0.2688  0.1574  0.8893
  190DOPC  H11A23400   2.286   7.465  12.807 -1.0071 -2.7755 -0.1254
  190DOPC  H11B23401   2.384   7.483  12.658 -1.0689  1.7638 -1.9307
  190DOPC     P23402   2.306   7.749  12.785 -0.6337 -0.7753  0.0103
  190DOPC   O1323403   2.251   7.888  12.782  0.1984 -0.2034  0.1835
  190DOPC   O1423404   2.453   7.736  12.763 -0.0875  0.5014  0.0245
  190DOPC   O1223405   2.240   7.644  12.686  0.3501  1.2440  0.0379
  190DOPC   O1123406   2.270   7.688  12.922  0.5199  0.0182  0.8174
  190DOPC    C123407   2.138   7.641  12.956  0.8643  0.2397 -0.0983
  190DOPC    HA23408   2.132   7.552  13.022 -0.8237  0.7180  0.4584
  190DOPC    HB23409   2.079   7.612  12.867  0.0124 -1.1488  0.8896
  190DOPC    C223410   2.063   7.757  13.028  0.3995 -0.0588 -0.6679
  190DOPC    HS23411   2.052   7.834  12.949 -3.3468  0.1943 -0.0598
  190DOPC   O2123412   2.130   7.792  13.149  0.4679 -0.0839 -0.1358
  190DOPC   C2123413   2.098   7.917  13.181  0.4226 -0.3503  0.0488
  190DOPC   O2223414   2.020   7.987  13.121  0.2695  0.4086 -0.0825
  190DOPC   C2223415   2.194   7.965  13.288  0.5680 -0.2715 -0.6087
  190DOPC   H2R23416   2.152   8.066  13.307 -2.2891 -1.5894  0.7127
  190DOPC   H2S23417   2.295   7.965  13.241  0.0465 -1.1806 -1.7894
  190DOPC    C323418   1.915   7.711  13.064  0.0029  0.7188  0.5054
  190DOPC    HX23419   1.878   7.688  12.963  1.3371  1.8412 -0.2882
  190DOPC    HY23420   1.856   7.801  13.093  0.0911  0.8077  0.4123
  190DOPC   O3123421   1.910   7.594  13.147 -0.1663 -0.3172  0.7765
  190DOPC   C3123422   1.921   7.614  13.281  0.3244  0.6645  0.0912
  190DOPC   O3223423   1.915   7.722  13.338 -0.0055 -0.4166  0.0926
  190DOPC   C3223424   1.921   7.480  13.351  0.7730 -0.4803  0.5499
  190DOPC   H2X23425   1.818   7.440  13.338 -0.6683  2.9017  0.7132
  190DOPC   H2Y23426   1.997   7.421  13.296 -0.8156 -1.9194 -0.2057
  190DOPC   C2323427   2.176   7.891  13.424  0.0662  0.2847  0.1173
  190DOPC   H3R23428   2.192   7.783  13.405 -1.1011  0.0180  0.5541
  190DOPC   H3S23429   2.073   7.893  13.465  0.0963  1.3003  0.1848
  190DOPC   C2423430   2.275   7.944  13.527 -0.7920  0.0608 -0.2307
  190DOPC   H4R23431   2.281   8.054  13.509 -2.3330  0.2152  0.0562
  190DOPC   H4S23432   2.378   7.902  13.522  0.8042  3.2741  1.9086
  190DOPC   C2523433   2.230   7.935  13.673  0.3115 -0.7166  0.0048
  190DOPC   H5R23434   2.123   7.965  13.680  0.3450 -0.7015  0.4985
  190DOPC   H5S23435   2.276   8.009  13.742 -1.3365 -0.2532  0.6742
  190DOPC   C2623436   2.236   7.801  13.744  0.2370  0.8758 -0.0606
  190DOPC   H6R23437   2.340   7.763  13.748  0.4621  1.3825 -0.8502
  190DOPC   H6S23438   2.185   7.729  13.675  0.2994 -0.3186  1.0958
  190DOPC   C2723439   2.185   7.798  13.886  0.1927  0.7327  0.4279
  190DOPC   H7R23440   2.254   7.855  13.951 -0.9277  0.4342  1.9599
  190DOPC   H7S23441   2.194   7.689  13.909  2.7055  0.5408 -1.0536
  190DOPC   C2823442   2.034   7.828  13.886  0.2356 -0.6749 -1.0401
  190DOPC   H8R23443   1.989   7.774  13.800 -2.3647 -0.4546  0.0963
  190DOPC   H8S23444   2.013   7.936  13.870  0.4174 -0.4060  0.4100
  190DOPC   C2923445   1.979   7.783  14.023  0.6944  0.9369  0.3138
  190DOPC   H9R23446   1.962   7.676  14.040 -0.0964  1.3529  2.5792
  190DOPC  C21023447   1.964   7.869  14.127  0.4155 -0.6273  0.3356
  190DOPC  H10R23448   1.901   7.836  14.211 -0.1464  3.0870  1.5532
  190DOPC  C21123449   1.971   8.018  14.122  0.2304 -0.6214 -0.3625
  190DOPC  H11R23450   1.907   8.055  14.204  0.5649  0.7565 -0.7018
  190DOPC  H11S23451   1.939   8.054  14.022  0.4711  1.5133  0.2803
  190DOPC  C21223452   2.111   8.080  14.146  0.1323 -0.4030  0.2486
  190DOPC  H12R23453   2.100   8.190  14.157 -1.8437 -0.4236 -1.1016
  190DOPC  H12S23454   2.181   8.053  14.064  0.9366 -0.5258  0.9614
  190DOPC  C21323455   2.173   8.036  14.281 -0.3109 -0.1459  0.1596
  190DOPC  H13R23456   2.200   7.928  14.273  3.8491  0.7386  0.0280
  190DOPC  H13S23457   2.101   8.056  14.364 -1.2029  2.0195 -1.0517
  190DOPC  C21423458   2.310   8.110  14.305  0.3439  0.1492 -0.4486
  190DOPC  H14R23459   2.369   8.121  14.211 -0.0796  1.7977 -0.5563
  190DOPC  H14S23460   2.378   8.056  14.373  0.1705 -0.5651 -0.8295
  190DOPC  C21523461   2.311   8.248  14.372  0.7862  0.0396  0.3057
  190DOPC  H15R23462   2.266   8.254  14.473  0.7535  0.5189  0.2681
  190DOPC  H15S23463   2.255   8.319  14.307  1.4058 -0.2575 -0.5711
  190DOPC  C21623464   2.457   8.309  14.379  0.7538  0.3008 -1.0714
  190DOPC  H16R23465   2.506   8.223  14.428 -2.2511  0.4689  2.6824
  190DOPC  H16S23466   2.459   8.396  14.448  0.9279  0.5771 -1.4180
  190DOPC  C21723467   2.512   8.339  14.242  0.0188 -0.2015 -0.3514
  190DOPC  H17R23468   2.558   8.249  14.197  1.7524  0.6272 -0.3557
  190DOPC  H17S23469   2.607   8.393  14.266 -0.4443 -0.7288  3.1911
  190DOPC  C21823470   2.430   8.424  14.142  0.1694 -0.2616 -0.5885
  190DOPC  H18R23471   2.478   8.431  14.042  2.0012  0.8693  0.3329
  190DOPC  H18S23472   2.409   8.531  14.166  0.8443  0.1281 -1.6569
  190DOPC  H18T23473   2.331   8.379  14.117 -1.5576  2.4782  0.7400
  190DOPC   C3323474   1.958   7.478  13.498 -0.2735  0.2687 -0.1001
  190DOPC   H3X23475   1.870   7.514  13.556  0.0242  0.9647 -0.0639
  190DOPC   H3Y23476   2.046   7.545  13.501  1.5525 -1.9723 -1.2356
  190DOPC   C3423477   1.994   7.334  13.562  0.2412  0.1471  0.1403
  190DOPC   H4X23478   2.081   7.294  13.506  1.5643  0.5225  1.8450
  190DOPC   H4Y23479   1.908   7.265  13.552 -0.6864  1.2453  0.3364
  190DOPC   C3523480   2.049   7.348  13.710  0.0650 -0.1501 -0.1427
  190DOPC   H5X23481   2.151   7.391  13.708 -0.0771  0.1740 -0.3656
  190DOPC   H5Y23482   2.062   7.242  13.741 -0.1074  0.0168  0.5129
  190DOPC   C3623483   1.964   7.431  13.806 -0.2757  0.2803 -0.3162
  190DOPC   H6X23484   2.023   7.523  13.823  0.5325 -0.0316 -1.2763
  190DOPC   H6Y23485   1.860   7.448  13.770 -1.6031 -4.3907  0.6565
  190DOPC   C3723486   1.957   7.364  13.938 -0.5928  0.7134 -0.4471
  190DOPC   H7X23487   1.937   7.255  13.923  0.1461  0.3022  1.3790
  190DOPC   H7Y23488   2.056   7.365  13.987 -0.6578 -0.2540 -0.2714
  190DOPC   C3823489   1.847   7.413  14.037 -0.1309  0.1915 -0.0829
  190DOPC   H8X23490   1.758   7.349  14.020  0.6054 -0.3246 -2.4155
  190DOPC   H8Y23491   1.817   7.518  14.015 -1.8690 -0.1623  0.4113
  190DOPC   C3923492   1.884   7.404  14.183 -0.1390 -0.5265 -0.1264
  190DOPC   H9X23493   1.989   7.431  14.198 -0.0503 -0.5703 -0.6414
  190DOPC  C31023494   1.803   7.365  14.285 -0.9889  0.5584  0.6784
  190DOPC  H10X23495   1.845   7.382  14.386 -0.3121  1.6331  0.2350
  190DOPC  C31123496   1.656   7.339  14.262  0.6421 -0.1151 -0.8735
  190DOPC  H11X23497   1.620   7.314  14.364 -0.2235  0.1048 -1.1168
  190DOPC  H11Y23498   1.636   7.247  14.203 -0.9049 -1.0778  1.0398
  190DOPC  C31223499   1.567   7.460  14.219 -0.4921 -0.1816  0.2991
  190DOPC  H12X23500   1.459   7.434  14.222 -1.4046  3.0023 -0.1614
  190DOPC  H12Y23501   1.599   7.483  14.115 -0.8697  1.6761  0.5554
  190DOPC  C31323502   1.575   7.582  14.309 -0.3260  0.0712 -0.8040
  190DOPC  H13X23503   1.557   7.557  14.415 -4.2451 -0.1741 -1.3842
  190DOPC  H13Y23504   1.679   7.621  14.301  0.7113 -2.7811 -2.8700
  190DOPC  C31423505   1.485   7.706  14.267 -0.1469  0.2452 -0.8995
  190DOPC  H14X23506   1.531   7.750  14.176  0.0890  0.1570 -0.8256
  190DOPC  H14Y23507   1.384   7.662  14.255 -0.9029  1.9657 -1.0583
  190DOPC  C31523508   1.483   7.814  14.378  0.5415  0.5189 -0.5134
  190DOPC  H15X23509   1.584   7.859  14.383  0.3942  1.2076 -2.6008
  190DOPC  H15Y23510   1.459   7.769  14.477 -0.8002  2.8768  0.3043
  190DOPC  C31623511   1.378   7.922  14.364  0.2290  0.5377 -0.3098
  190DOPC  H16X23512   1.396   7.983  14.273  1.4002 -0.3376 -0.6897
  190DOPC  H16Y23513   1.277   7.875  14.361  0.7954 -0.6795 -1.3701
  190DOPC  C31723514   1.357   8.007  14.492  0.1117 -0.2237 -0.1244
  190DOPC  H17X23515   1.265   8.069  14.481  0.8332  1.4606  2.5175
  190DOPC  H17Y23516   1.343   7.936  14.576  4.1062 -0.1533  0.8009
  190DOPC  C31823517   1.464   8.105  14.528  0.2665 -0.1855 -0.2332
  190DOPC  H18X23518   1.489   8.179  14.449 -0.0414 -0.2586 -0.3966
  190DOPC  H18Y23519   1.442   8.151  14.627 -0.3786 -1.3510  0.1831
  190DOPC  H18Z23520   1.554   8.043  14.548 -0.3692 -0.7151  1.1222
  191DOPC     N23521   4.831   1.158  12.666  0.8627  0.0153 -1.0339
  191DOPC   C1223522   4.892   1.227  12.792  0.6090 -0.0057  0.1104
  191DOPC  H12A23523   4.812   1.276  12.847 -0.8248 -1.3404 -0.7047
  191DOPC  H12B23524   4.969   1.293  12.755  1.4470 -1.9655 -1.8109
  191DOPC   C1323525   4.758   1.034  12.707  1.0567 -0.4279 -0.3688
  191DOPC  H13A23526   4.821   0.969  12.767  1.1555  1.3134  1.4940
  191DOPC  H13B23527   4.674   1.064  12.768 -0.5424 -2.4884 -1.4212
  191DOPC  H13C23528   4.720   0.972  12.627  0.6294 -0.9692  0.2468
  191DOPC   C1423529   4.936   1.105  12.575  0.0604  0.0827  0.1839
  191DOPC  H14A23530   5.024   1.166  12.588  0.3885 -0.6663  1.6591
  191DOPC  H14B23531   4.965   1.008  12.613  0.4452  0.3241  0.5058
  191DOPC  H14C23532   4.896   1.092  12.475 -0.6640  0.9752  0.3541
  191DOPC   C1523533   4.742   1.256  12.597 -0.2443 -0.8657  0.0810
  191DOPC  H15A23534   4.665   1.290  12.664  0.2654  2.5875 -0.8773
  191DOPC  H15B23535   4.698   1.216  12.507  2.4942  0.4653 -1.9960
  191DOPC  H15C23536   4.794   1.346  12.571 -2.7819  0.7321  0.1713
  191DOPC   C1123537   4.967   1.132  12.895 -0.5379 -0.6914 -0.6064
  191DOPC  H11A23538   4.986   1.192  12.986  0.5478 -2.5211  0.4377
  191DOPC  H11B23539   4.911   1.044  12.933 -0.2679 -0.5806  0.0500
  191DOPC     P23540   5.217   1.171  12.821 -0.1260  0.2341  0.1224
  191DOPC   O1323541   5.197   1.305  12.882 -0.3606  0.0546  0.4581
  191DOPC   O1423542   5.244   1.164  12.677  0.6107 -0.1851 -0.2601
  191DOPC   O1223543   5.088   1.086  12.843  0.0407  0.1405 -0.4476
  191DOPC   O1123544   5.333   1.098  12.900  0.1896  0.2428 -0.1741
  191DOPC    C123545   5.305   0.974  12.959 -0.0964 -0.0553 -0.7016
  191DOPC    HA23546   5.403   0.922  12.959 -0.1067 -0.0892 -0.1698
  191DOPC    HB23547   5.226   0.908  12.918  0.9424 -1.9154  0.1690
  191DOPC    C223548   5.283   0.993  13.112 -0.1615 -0.5396 -0.5776
  191DOPC    HS23549   5.198   1.065  13.119 -0.1667 -0.1290 -3.6022
  191DOPC   O2123550   5.401   1.040  13.180  0.2205  0.0492 -0.1818
  191DOPC   C2123551   5.412   1.173  13.211 -0.1634  0.9901 -0.6854
  191DOPC   O2223552   5.318   1.248  13.201  0.2765 -0.1672 -0.1479
  191DOPC   C2223553   5.548   1.203  13.285 -0.4657  0.4336 -0.7458
  191DOPC   H2R23554   5.611   1.272  13.226 -0.1374 -0.5130 -1.5283
  191DOPC   H2S23555   5.610   1.110  13.286  1.5376  1.6817  1.3046
  191DOPC    C323556   5.240   0.860  13.189 -0.0211  0.1846 -0.2983
  191DOPC    HX23557   5.328   0.805  13.228 -0.4003  0.0800  0.4280
  191DOPC    HY23558   5.195   0.790  13.114  0.2347 -0.9523  0.5886
  191DOPC   O3123559   5.145   0.885  13.297 -0.1605 -0.0961  0.3492
  191DOPC   C3123560   5.198   0.891  13.422  0.3903  0.1427  0.1566
  191DOPC   O3223561   5.310   0.870  13.454 -0.4518 -0.1280  0.5268
  191DOPC   C3223562   5.082   0.923  13.515 -0.0091  0.4773  0.1683
  191DOPC   H2X23563   5.073   1.034  13.511  1.3799  0.6184  0.5315
  191DOPC   H2Y23564   4.990   0.870  13.483  0.6052 -0.0925 -0.6869
  191DOPC   C2323565   5.517   1.260  13.430  0.0261  0.2709  0.2685
  191DOPC   H3R23566   5.422   1.317  13.426  0.2262  0.5448 -1.2859
  191DOPC   H3S23567   5.590   1.340  13.455 -1.0617  1.7826 -1.1584
  191DOPC   C2423568   5.500   1.156  13.531  0.3034  0.1051 -0.7216
  191DOPC   H4R23569   5.594   1.097  13.520 -0.3234 -0.6985 -2.0028
  191DOPC   H4S23570   5.420   1.082  13.510  0.5739 -1.0697  1.9095
  191DOPC   C2523571   5.484   1.222  13.665 -0.0877 -0.0344  0.1136
  191DOPC   H5R23572   5.384   1.270  13.672 -0.6621 -1.0292 -0.8867
  191DOPC   H5S23573   5.559   1.302  13.680  0.0301 -0.2359  0.6109
  191DOPC   C2623574   5.512   1.136  13.784  0.1578  0.9130 -0.5901
  191DOPC   H6R23575   5.612   1.089  13.771  0.0049  0.4827 -0.2665
  191DOPC   H6S23576   5.445   1.048  13.769 -0.1817  1.2077 -0.8266
  191DOPC   C2723577   5.487   1.206  13.920 -0.1832  0.5429  0.1945
  191DOPC   H7R23578   5.525   1.310  13.907  2.8053 -0.6652 -2.1801
  191DOPC   H7S23579   5.534   1.153  14.005 -0.0094  0.5026  0.0736
  191DOPC   C2823580   5.343   1.230  13.965  0.4319  0.0778 -0.0402
  191DOPC   H8R23581   5.297   1.294  13.887 -0.4059 -0.5578 -0.0791
  191DOPC   H8S23582   5.346   1.293  14.057  0.8615  2.5389 -1.6458
  191DOPC   C2923583   5.290   1.093  13.993 -0.4449 -1.0831 -0.6724
  191DOPC   H9R23584   5.257   1.042  13.901 -0.1644 -1.9378 -0.3103
  191DOPC  C21023585   5.250   1.047  14.115  0.0084  0.2758  0.3242
  191DOPC  H10R23586   5.196   0.951  14.120 -2.4829  1.5259 -0.6399
  191DOPC  C21123587   5.267   1.110  14.251 -0.7874 -0.5040 -0.4733
  191DOPC  H11R23588   5.176   1.109  14.314 -0.4632  1.4499  0.1133
  191DOPC  H11S23589   5.300   1.215  14.236  0.5497 -0.6582  1.0378
  191DOPC  C21223590   5.376   1.044  14.338 -0.1809 -0.3015 -0.3803
  191DOPC  H12R23591   5.472   1.029  14.285  0.7981  0.9149  0.9671
  191DOPC  H12S23592   5.345   0.939  14.358 -0.7047  0.1147  1.1709
  191DOPC  C21323593   5.403   1.121  14.470 -0.0680 -0.1762  0.9932
  191DOPC  H13R23594   5.314   1.142  14.533 -0.3634  0.4628  0.3812
  191DOPC  H13S23595   5.454   1.218  14.448  2.0877 -1.5361 -0.3023
  191DOPC  C21423596   5.507   1.055  14.557 -0.0218  0.4121  0.4887
  191DOPC  H14R23597   5.595   1.124  14.560  0.9434 -0.6863 -1.0026
  191DOPC  H14S23598   5.548   0.961  14.514 -1.5355 -0.5762  1.1241
  191DOPC  C21523599   5.470   1.030  14.696 -0.2942 -0.7314 -0.1702
  191DOPC  H15R23600   5.383   0.961  14.690 -2.2476  1.7002 -1.8760
  191DOPC  H15S23601   5.436   1.119  14.753 -1.0118 -0.4140 -1.0769
  191DOPC  C21623602   5.575   0.962  14.786 -0.1951 -0.3730  0.3890
  191DOPC  H16R23603   5.650   1.036  14.820 -0.1078 -0.1642 -0.2344
  191DOPC  H16S23604   5.625   0.888  14.719  1.3678  0.8581  0.1374
  191DOPC  C21723605   5.503   0.887  14.902 -0.5512 -0.6471  1.0458
  191DOPC  H17R23606   5.439   0.814  14.849 -1.9074  2.6469 -2.2845
  191DOPC  H17S23607   5.430   0.959  14.945 -1.6406  0.3646 -2.2447
  191DOPC  C21823608   5.594   0.832  15.004  0.2738  0.3709  0.0410
  191DOPC  H18R23609   5.526   0.799  15.085  0.3994 -0.1440 -0.0653
  191DOPC  H18S23610   5.665   0.905  15.051  0.7073  0.4422 -0.7104
  191DOPC  H18T23611   5.650   0.746  14.963 -0.9613 -0.6613  0.4720
  191DOPC   C3323612   5.136   0.886  13.656  0.0158 -0.3127  0.4376
  191DOPC   H3X23613   5.211   0.962  13.686 -1.3165  1.4227 -0.4343
  191DOPC   H3Y23614   5.178   0.783  13.658 -2.3013 -1.3797 -0.9505
  191DOPC   C3423615   5.024   0.873  13.756  0.4539 -0.4268  0.1287
  191DOPC   H4X23616   4.930   0.875  13.697  1.0879  3.1214 -0.9619
  191DOPC   H4Y23617   5.019   0.969  13.812  2.3446 -0.9639  1.3272
  191DOPC   C3523618   5.042   0.757  13.855 -0.5282  0.0118  0.0535
  191DOPC   H5X23619   5.152   0.758  13.874 -0.3433 -2.2922 -0.5699
  191DOPC   H5Y23620   5.026   0.663  13.798  0.3489 -1.7397  2.5004
  191DOPC   C3623621   4.956   0.772  13.980 -0.0384 -0.0105  0.2581
  191DOPC   H6X23622   4.958   0.880  14.006 -1.1705 -0.1936  1.2000
  191DOPC   H6Y23623   4.851   0.746  13.953  0.6538 -2.0369 -0.7011
  191DOPC   C3723624   5.008   0.689  14.094 -0.0814 -0.1452 -0.2474
  191DOPC   H7X23625   5.027   0.585  14.061 -1.8768 -0.3373 -0.7603
  191DOPC   H7Y23626   5.104   0.735  14.128 -1.6048  2.1384  1.2431
  191DOPC   C3823627   4.912   0.683  14.216 -0.3652 -0.3079 -0.1660
  191DOPC   H8X23628   4.959   0.619  14.294  2.0728  2.2435  0.6367
  191DOPC   H8Y23629   4.811   0.644  14.195 -1.3779  0.9228  2.0455
  191DOPC   C3923630   4.905   0.824  14.262  0.5964 -0.2250  0.0836
  191DOPC   H9X23631   4.868   0.893  14.184  0.8523 -2.9798 -2.6849
  191DOPC  C31023632   4.937   0.878  14.381  0.8475 -0.3632 -0.8260
  191DOPC  H10X23633   4.919   0.986  14.389 -0.6205 -0.5921 -0.7489
  191DOPC  C31123634   4.996   0.807  14.501  0.1543  0.1919  0.5863
  191DOPC  H11X23635   4.983   0.698  14.486 -0.7253  0.2712  0.7539
  191DOPC  H11Y23636   4.938   0.839  14.590 -1.8846  1.8597 -1.2312
  191DOPC  C31223637   5.148   0.833  14.518 -0.1864 -0.1682  0.0889
  191DOPC  H12X23638   5.164   0.942  14.536  0.6383 -0.5700  2.0785
  191DOPC  H12Y23639   5.206   0.815  14.426  0.5219 -0.7400  0.6374
  191DOPC  C31323640   5.197   0.769  14.638 -0.6465  0.5944  0.4208
  191DOPC  H13X23641   5.307   0.783  14.649 -0.4019 -0.5867 -0.3222
  191DOPC  H13Y23642   5.160   0.804  14.737  1.0289 -1.5643  1.9253
  191DOPC  C31423643   5.183   0.614  14.623  0.0247 -0.5960  0.1875
  191DOPC  H14X23644   5.077   0.583  14.634 -0.4172  0.0899 -1.5988
  191DOPC  H14Y23645   5.213   0.587  14.519 -0.4189 -1.6186  0.3124
  191DOPC  C31523646   5.276   0.531  14.709  0.1282  0.0425 -0.0685
  191DOPC  H15X23647   5.383   0.555  14.698  0.5134 -0.9942  1.1481
  191DOPC  H15Y23648   5.276   0.423  14.683  3.5051 -0.3140  0.8949
  191DOPC  C31623649   5.236   0.543  14.858 -0.1743 -0.3287 -0.0134
  191DOPC  H16X23650   5.218   0.650  14.882  1.6980  0.0163  0.0100
  191DOPC  H16Y23651   5.142   0.488  14.880 -1.3573  1.6039 -0.0033
  191DOPC  C31723652   5.354   0.496  14.944 -0.9376  0.2446 -0.5940
  191DOPC  H17X23653   5.415   0.424  14.886  3.0976  3.6910 -1.0608
  191DOPC  H17Y23654   5.429   0.578  14.949  0.4619 -0.9668 -0.9735
  191DOPC  C31823655   5.335   0.455  15.086 -0.7467  0.4163 -0.1285
  191DOPC  H18X23656   5.312   0.348  15.103 -0.0300  0.3104  0.2232
  191DOPC  H18Y23657   5.433   0.468  15.137 -0.5376  1.2816 -0.7292
  191DOPC  H18Z23658   5.255   0.515  15.135  0.0331  0.9411  0.5381
  192DOPC     N23659   0.764   4.830  12.675  0.0496  1.2791 -0.6680
  192DOPC   C1223660   0.724   4.962  12.620  0.1136 -0.2321 -0.2210
  192DOPC  H12A23661   0.683   5.027  12.696  1.9247  1.7529 -0.8149
  192DOPC  H12B23662   0.646   4.944  12.548 -0.2915  0.1654  0.1110
  192DOPC   C1323663   0.665   4.783  12.773  0.1582 -0.1956  0.5225
  192DOPC  H13A23664   0.691   4.689  12.820  0.8673  0.7370  2.0936
  192DOPC  H13B23665   0.644   4.850  12.856 -0.2908  0.7788 -0.3650
  192DOPC  H13C23666   0.572   4.770  12.720 -0.5698 -1.5239  2.0533
  192DOPC   C1423667   0.909   4.843  12.743  0.1669  0.3832  0.1110
  192DOPC  H14A23668   0.899   4.915  12.823  0.2236 -0.6665  1.0830
  192DOPC  H14B23669   0.921   4.748  12.794 -1.2913 -1.2934 -2.4127
  192DOPC  H14C23670   0.990   4.863  12.675  2.1114  1.2015  2.5240
  192DOPC   C1523671   0.768   4.724  12.565  0.3185  0.4335  0.0911
  192DOPC  H15A23672   0.668   4.707  12.527  0.9404 -1.8287 -0.7040
  192DOPC  H15B23673   0.790   4.628  12.609  0.1408  0.5942  0.5399
  192DOPC  H15C23674   0.840   4.748  12.489 -1.0050  0.5442 -1.1828
  192DOPC   C1123675   0.830   5.037  12.540  0.3459  0.2872  0.5287
  192DOPC  H11A23676   0.901   4.959  12.503 -0.5918 -0.6461  0.6445
  192DOPC  H11B23677   0.785   5.081  12.448  1.4979  1.0290  0.2989
  192DOPC     P23678   1.035   5.181  12.605 -0.0729 -0.2669 -0.0723
  192DOPC   O1323679   1.068   5.244  12.473  0.5815  0.3414 -0.4440
  192DOPC   O1423680   1.112   5.059  12.633  0.0122  0.0315 -0.2789
  192DOPC   O1223681   0.883   5.148  12.619  0.6470  0.6320  0.1020
  192DOPC   O1123682   1.063   5.272  12.728  0.2515  0.7527  0.2783
  192DOPC    C123683   1.019   5.237  12.863 -0.4064  0.1599  0.1075
  192DOPC    HA23684   1.099   5.258  12.937  0.5849 -3.1441  0.1224
  192DOPC    HB23685   0.985   5.132  12.872 -0.0434 -0.0523 -0.8676
  192DOPC    C223686   0.888   5.311  12.893  0.5052 -0.7387 -0.5540
  192DOPC    HS23687   0.815   5.287  12.813 -0.0812  2.1911 -1.0136
  192DOPC   O2123688   0.916   5.452  12.917  0.1529  0.1145 -0.5575
  192DOPC   C2123689   0.849   5.539  12.857 -0.2575  0.3782  1.2164
  192DOPC   O2223690   0.749   5.513  12.791 -0.5407  0.1945  0.5492
  192DOPC   C2223691   0.901   5.683  12.868 -0.5714  0.6327 -0.1193
  192DOPC   H2R23692   0.832   5.733  12.796 -1.6570 -0.4946  0.1093
  192DOPC   H2S23693   1.005   5.687  12.830 -0.4962 -1.1295 -0.1660
  192DOPC    C323694   0.832   5.250  13.036  0.2681 -0.2920  0.8625
  192DOPC    HX23695   0.905   5.259  13.118 -0.1748  1.6416  1.1056
  192DOPC    HY23696   0.819   5.142  13.016 -0.2444  0.2408 -2.3169
  192DOPC   O3123697   0.711   5.317  13.084 -1.1051 -0.0409  0.1446
  192DOPC   C3123698   0.596   5.284  13.027 -0.1935  0.0991  0.0363
  192DOPC   O3223699   0.580   5.198  12.946 -0.8779  0.0246  0.2502
  192DOPC   C3223700   0.486   5.390  13.067 -0.1601  0.4994  0.6174
  192DOPC   H2X23701   0.485   5.419  13.174  0.6459 -0.4854  0.9095
  192DOPC   H2Y23702   0.492   5.475  12.995  0.4624 -1.0194 -1.2150
  192DOPC   C2323703   0.887   5.769  12.998  0.2707  0.0557  0.1127
  192DOPC   H3R23704   0.787   5.763  13.045  1.0629 -1.3323  1.7398
  192DOPC   H3S23705   0.930   5.870  12.983  1.8507 -0.3343  1.6359
  192DOPC   C2423706   0.992   5.716  13.105  0.1728 -0.3416  0.4582
  192DOPC   H4R23707   1.090   5.708  13.054  0.1428 -1.6335  0.5585
  192DOPC   H4S23708   0.961   5.612  13.129 -0.6771 -0.3776 -0.7239
  192DOPC   C2523709   0.990   5.798  13.236  0.1612  0.1421 -0.0148
  192DOPC   H5R23710   1.049   5.892  13.236  0.0504  0.2153 -0.9302
  192DOPC   H5S23711   1.041   5.741  13.317  0.9783  0.2063 -0.4728
  192DOPC   C2623712   0.851   5.823  13.295  0.7103  0.1076  0.5391
  192DOPC   H6R23713   0.808   5.722  13.314  4.7257 -1.6369  1.5666
  192DOPC   H6S23714   0.792   5.883  13.222  1.4338 -0.4377 -0.5229
  192DOPC   C2723715   0.855   5.901  13.430  0.4485 -0.2866 -0.0856
  192DOPC   H7R23716   0.869   6.007  13.400  0.4061 -0.5341 -1.0183
  192DOPC   H7S23717   0.947   5.877  13.487 -0.6440 -0.0430  1.8542
  192DOPC   C2823718   0.724   5.901  13.512  0.1369  0.2823  0.5417
  192DOPC   H8R23719   0.633   5.915  13.451  1.0084  2.9245 -0.2972
  192DOPC   H8S23720   0.720   5.976  13.594  0.3804 -0.9479  1.7212
  192DOPC   C2923721   0.738   5.760  13.572 -0.1244 -0.1378  0.1734
  192DOPC   H9R23722   0.835   5.741  13.621  0.8194  0.2376 -1.4783
  192DOPC  C21023723   0.647   5.664  13.571 -0.0538  0.4607  0.0669
  192DOPC  H10R23724   0.671   5.569  13.620  2.3519  0.2397 -1.3442
  192DOPC  C21123725   0.517   5.662  13.492 -0.1511 -0.1449 -0.0623
  192DOPC  H11R23726   0.536   5.732  13.408  0.1150  0.1020  0.1979
  192DOPC  H11S23727   0.429   5.701  13.546 -1.3605 -0.3622 -1.7981
  192DOPC  C21223728   0.495   5.520  13.438  0.1283 -0.0168  0.6991
  192DOPC  H12R23729   0.584   5.483  13.382 -0.9405 -1.9914  0.1976
  192DOPC  H12S23730   0.403   5.515  13.375  0.2550 -0.1196  0.5209
  192DOPC  C21323731   0.465   5.414  13.541  0.0490  0.0452  0.0584
  192DOPC  H13R23732   0.410   5.452  13.630  1.1723  1.7116  0.0720
  192DOPC  H13S23733   0.550   5.374  13.600 -0.5986 -2.1219 -0.3830
  192DOPC  C21423734   0.368   5.305  13.485  0.1096  0.3416  0.0758
  192DOPC  H14R23735   0.411   5.251  13.398  0.1052 -0.5775  0.6324
  192DOPC  H14S23736   0.271   5.348  13.452  0.3688 -0.1431 -1.3899
  192DOPC  C21523737   0.319   5.205  13.586 -0.2182  0.4395  0.1303
  192DOPC  H15R23738   0.253   5.258  13.657  0.7957  1.7989  0.0996
  192DOPC  H15S23739   0.410   5.162  13.633  0.1081  0.9700 -0.0046
  192DOPC  C21623740   0.245   5.080  13.531  0.7041 -0.7845  0.6765
  192DOPC  H16R23741   0.221   5.020  13.621  0.0130  0.8347  1.6123
  192DOPC  H16S23742   0.317   5.022  13.470  0.9230  1.8592 -1.8161
  192DOPC  C21723743   0.109   5.101  13.455 -0.3229  0.4245  0.0211
  192DOPC  H17R23744   0.141   5.162  13.368  0.6566 -2.2864 -1.6313
  192DOPC  H17S23745   0.045   5.172  13.511  0.6386  1.7410 -0.4848
  192DOPC  C21823746   0.036   4.969  13.427 -0.1305  0.3268 -0.6138
  192DOPC  H18R23747  -0.074   4.983  13.424 -0.3283 -1.1724 -3.4890
  192DOPC  H18S23748   0.078   4.892  13.496  2.8666  1.4624 -1.0239
  192DOPC  H18T23749   0.067   4.933  13.327  2.1508  1.8417 -0.5382
  192DOPC   C3323750   0.342   5.334  13.043 -0.5693 -0.0237 -0.2883
  192DOPC   H3X23751   0.333   5.238  13.097 -1.1800 -0.0340 -0.4059
  192DOPC   H3Y23752   0.324   5.320  12.934 -0.8319  2.6943 -0.6703
  192DOPC   C3423753   0.229   5.421  13.094 -0.1685 -0.3381 -0.0676
  192DOPC   H4X23754   0.237   5.517  13.038  2.0482 -0.1854  0.4283
  192DOPC   H4Y23755   0.245   5.455  13.199  0.7514  1.1897 -0.6787
  192DOPC   C3523756   0.091   5.354  13.086  0.3946  0.0117 -0.7016
  192DOPC   H5X23757   0.088   5.250  13.127  1.2064  0.4699  0.5762
  192DOPC   H5Y23758   0.068   5.360  12.977  0.5583  1.9827 -0.6577
  192DOPC   C3623759  -0.018   5.431  13.161 -0.2233  0.1963 -0.1442
  192DOPC   H6X23760  -0.115   5.385  13.130 -0.7857  2.0951 -1.3536
  192DOPC   H6Y23761   0.009   5.420  13.268  2.7065  0.5465 -0.7813
  192DOPC   C3723762  -0.007   5.574  13.109  0.7785  0.4965 -0.6562
  192DOPC   H7X23763   0.077   5.637  13.144  1.2864  0.4092 -1.6675
  192DOPC   H7Y23764   0.001   5.566  12.998  0.8110 -3.1494 -0.5313
  192DOPC   C3823765  -0.143   5.645  13.135  0.3492  0.0423  0.7071
  192DOPC   H8X23766  -0.214   5.586  13.073  0.6973  1.7803 -1.4838
  192DOPC   H8Y23767  -0.133   5.749  13.095 -0.9777 -0.1354 -0.1243
  192DOPC   C3923768  -0.171   5.659  13.288 -0.3723  0.1664  0.0223
  192DOPC   H9X23769  -0.164   5.564  13.343  2.2623 -0.6021 -1.4733
  192DOPC  C31023770  -0.188   5.769  13.362 -0.4733  0.3338 -0.1983
  192DOPC  H10X23771  -0.231   5.768  13.463 -2.8790  0.4518 -1.1492
  192DOPC  C31123772  -0.209   5.910  13.293 -0.0516 -0.0770  0.2038
  192DOPC  H11X23773  -0.137   5.922  13.209 -0.6573  0.1479 -0.2890
  192DOPC  H11Y23774  -0.209   5.997  13.361  1.7911  0.3504 -0.2888
  192DOPC  C31223775  -0.345   5.927  13.237  0.5402  0.0121 -0.4974
  192DOPC  H12X23776  -0.412   5.906  13.322  1.0951  2.6382  0.6950
  192DOPC  H12Y23777  -0.363   5.846  13.163  3.3949 -0.0051 -1.3155
  192DOPC  C31323778  -0.369   6.060  13.161  0.1531  0.1299  0.2348
  192DOPC  H13X23779  -0.290   6.061  13.084  0.5193 -0.6172  0.5951
  192DOPC  H13Y23780  -0.466   6.055  13.108 -0.3556 -1.7635  1.2608
  192DOPC  C31423781  -0.380   6.180  13.259 -0.4128 -0.6393 -0.1660
  192DOPC  H14X23782  -0.280   6.185  13.305 -0.1401 -2.4512 -0.5037
  192DOPC  H14Y23783  -0.389   6.268  13.191 -0.1272  0.5207  1.2506
  192DOPC  C31523784  -0.493   6.175  13.356 -0.1627 -0.9724 -0.5745
  192DOPC  H15X23785  -0.490   6.083  13.419  2.8506  0.4075  1.5838
  192DOPC  H15Y23786  -0.590   6.188  13.303  0.3059 -0.1120 -1.2598
  192DOPC  C31623787  -0.480   6.286  13.463  0.4345 -0.3845 -0.2962
  192DOPC  H16X23788  -0.373   6.287  13.492  0.3362 -0.6096  0.0847
  192DOPC  H16Y23789  -0.490   6.391  13.429  1.8934 -0.0317  0.3190
  192DOPC  C31723790  -0.556   6.260  13.587  0.1064 -0.0701 -0.1274
  192DOPC  H17X23791  -0.658   6.259  13.545  0.3855  0.4155 -0.8251
  192DOPC  H17Y23792  -0.531   6.159  13.627 -0.8108 -0.5687 -0.7971
  192DOPC  C31823793  -0.546   6.363  13.709 -0.2144  0.6021 -0.1790
  192DOPC  H18X23794  -0.631   6.357  13.780 -0.5369  2.3437 -0.3730
  192DOPC  H18Y23795  -0.452   6.341  13.764 -1.7462 -0.3438  2.2481
  192DOPC  H18Z23796  -0.541   6.466  13.666 -0.9492  0.5879 -0.3165
  193DOPC     N23797   7.456   2.629  12.872 -0.0739 -0.0100  0.6848
  193DOPC   C1223798   7.481   2.517  12.973 -0.0420  0.0253 -0.1642
  193DOPC  H12A23799   7.529   2.556  13.062 -0.3878  0.3825 -0.1308
  193DOPC  H12B23800   7.546   2.442  12.931 -0.2797  0.4395 -1.2867
  193DOPC   C1323801   7.578   2.648  12.788  0.3181 -0.0063 -0.5096
  193DOPC  H13A23802   7.667   2.651  12.849 -0.5584 -0.9401  0.8758
  193DOPC  H13B23803   7.601   2.564  12.724  0.1738  1.7912 -3.0232
  193DOPC  H13C23804   7.567   2.733  12.722 -3.0649  0.7078  0.7655
  193DOPC   C1423805   7.428   2.762  12.940  0.4672  0.0958  0.3922
  193DOPC  H14A23806   7.409   2.834  12.862  1.8324  0.0963  0.0289
  193DOPC  H14B23807   7.334   2.751  12.992  1.2023 -2.1435  1.3976
  193DOPC  H14C23808   7.508   2.791  13.007 -0.2801  0.5032  1.1133
  193DOPC   C1523809   7.341   2.594  12.785  0.4228 -0.3819 -0.3746
  193DOPC  H15A23810   7.317   2.667  12.709  1.5102 -0.6765 -1.0290
  193DOPC  H15B23811   7.261   2.565  12.851  1.4976 -1.0591  0.6725
  193DOPC  H15C23812   7.375   2.511  12.725 -0.2655 -0.4254 -0.7050
  193DOPC   C1123813   7.360   2.431  13.033  0.3550 -0.2160  0.2324
  193DOPC  H11A23814   7.399   2.371  13.118  2.4433  3.2235  1.9035
  193DOPC  H11B23815   7.290   2.505  13.077  0.5566 -0.2447  0.6084
  193DOPC     P23816   7.393   2.210  12.891 -0.2629 -0.1027 -0.3403
  193DOPC   O1323817   7.536   2.244  12.915  0.3484  0.2396  0.0542
  193DOPC   O1423818   7.361   2.163  12.754 -0.0427 -0.1516 -0.5982
  193DOPC   O1223819   7.309   2.341  12.934  0.2442 -0.1419  0.1033
  193DOPC   O1123820   7.342   2.101  12.989 -0.6215 -0.0608 -0.2724
  193DOPC    C123821   7.207   2.086  13.014  1.0073 -0.5029  0.8328
  193DOPC    HA23822   7.173   1.983  12.994 -2.2577  0.7082 -0.5838
  193DOPC    HB23823   7.136   2.138  12.946  1.9127 -1.1616 -0.6451
  193DOPC    C223824   7.166   2.139  13.157 -0.2727  0.4008 -0.0048
  193DOPC    HS23825   7.175   2.249  13.166  1.1148  0.1650  2.0719
  193DOPC   O2123826   7.248   2.070  13.253 -0.1223  0.1203  0.1778
  193DOPC   C2123827   7.318   2.137  13.337 -0.8726  0.2078  0.4302
  193DOPC   O2223828   7.311   2.257  13.360  0.3310 -0.5830  0.0537
  193DOPC   C2223829   7.407   2.044  13.410 -0.6018 -0.5066 -0.0549
  193DOPC   H2R23830   7.501   2.020  13.356  0.9377  1.9786  1.2876
  193DOPC   H2S23831   7.353   1.948  13.426 -0.2841 -0.7093 -0.1958
  193DOPC    C323832   7.014   2.105  13.176  0.0079  0.6689  0.0241
  193DOPC    HX23833   7.008   1.995  13.157  3.6655 -0.1430  2.5588
  193DOPC    HY23834   6.964   2.158  13.092  1.3862  0.0102 -1.2672
  193DOPC   O3123835   6.970   2.134  13.311  0.5303 -0.1593 -0.7358
  193DOPC   C3123836   6.900   2.238  13.330  0.0476  0.5580  0.5610
  193DOPC   O3223837   6.859   2.320  13.246  0.6566 -0.1449 -0.6486
  193DOPC   C3223838   6.866   2.264  13.477  0.1829  0.0094  0.2602
  193DOPC   H2X23839   6.786   2.340  13.487 -1.4015 -1.7385  1.7153
  193DOPC   H2Y23840   6.831   2.164  13.510  1.1118  0.5137  2.9800
  193DOPC   C2323841   7.449   2.103  13.544  0.1580 -0.4058 -0.6907
  193DOPC   H3R23842   7.464   2.028  13.624 -0.9420  1.4743  1.4244
  193DOPC   H3S23843   7.360   2.158  13.584  0.2743 -0.3111 -0.5625
  193DOPC   C2423844   7.565   2.213  13.552 -0.0963 -0.0998 -0.1199
  193DOPC   H4R23845   7.547   2.277  13.463  0.0940 -1.3201 -1.0581
  193DOPC   H4S23846   7.659   2.155  13.545 -0.3228 -0.5321  0.3347
  193DOPC   C2523847   7.556   2.297  13.681  0.2756 -0.7729  0.3290
  193DOPC   H5R23848   7.454   2.338  13.696  1.0760  1.1302  0.7568
  193DOPC   H5S23849   7.631   2.378  13.677  0.3885 -0.9276 -1.2931
  193DOPC   C2623850   7.597   2.219  13.804 -0.1492  0.2676  0.1167
  193DOPC   H6R23851   7.688   2.160  13.780 -1.2569 -0.5613 -2.3879
  193DOPC   H6S23852   7.516   2.154  13.843  0.4818  0.3867  1.7109
  193DOPC   C2723853   7.661   2.315  13.910 -0.1875 -0.0611  0.4886
  193DOPC   H7R23854   7.584   2.385  13.950 -0.7874 -0.9833  0.9878
  193DOPC   H7S23855   7.734   2.376  13.853  0.1961 -0.4748  0.5361
  193DOPC   C2823856   7.717   2.233  14.028  0.2056 -0.5815  0.6891
  193DOPC   H8R23857   7.784   2.152  13.992  0.3420  0.1485 -0.7707
  193DOPC   H8S23858   7.626   2.185  14.070  0.0612 -0.8765  0.0484
  193DOPC   C2923859   7.793   2.305  14.131  0.4987  0.0759 -0.0089
  193DOPC   H9R23860   7.814   2.409  14.105 -4.0848  1.1946 -0.1498
  193DOPC  C21023861   7.801   2.261  14.259  0.4939 -0.2370 -0.4971
  193DOPC  H10R23862   7.861   2.320  14.330  0.5777  0.8423 -1.4326
  193DOPC  C21123863   7.753   2.129  14.317 -0.2647  0.3046 -0.0721
  193DOPC  H11R23864   7.643   2.137  14.332 -0.3214  2.7087 -1.2532
  193DOPC  H11S23865   7.806   2.130  14.414 -0.0394  1.5883 -0.1870
  193DOPC  C21223866   7.793   2.004  14.242  0.1284 -0.5671 -0.8695
  193DOPC  H12R23867   7.900   2.009  14.212  0.1384  2.9051 -0.5826
  193DOPC  H12S23868   7.740   1.996  14.144  1.2054  3.4116 -1.9462
  193DOPC  C21323869   7.774   1.870  14.324 -0.4449 -0.6260  0.2637
  193DOPC  H13R23870   7.665   1.850  14.332 -0.3183 -0.9412  1.2407
  193DOPC  H13S23871   7.814   1.900  14.423 -0.0534  3.9330 -1.0568
  193DOPC  C21423872   7.843   1.750  14.264  0.5250  0.4410 -0.1777
  193DOPC  H14R23873   7.845   1.661  14.330 -1.1766  1.3510  1.1508
  193DOPC  H14S23874   7.948   1.774  14.235  0.7371  1.0669  1.0540
  193DOPC  C21523875   7.775   1.694  14.133  0.1868  0.4925 -0.6181
  193DOPC  H15R23876   7.775   1.773  14.055  2.6221  1.2453  0.0605
  193DOPC  H15S23877   7.676   1.651  14.163  2.0702 -2.6777  1.6710
  193DOPC  C21623878   7.845   1.572  14.061 -0.3930 -0.0793 -0.7748
  193DOPC  H16R23879   7.845   1.491  14.137  1.8139 -0.4643 -1.1282
  193DOPC  H16S23880   7.951   1.605  14.052  0.3398 -1.2010  2.4009
  193DOPC  C21723881   7.777   1.539  13.929  0.3341  0.1851  0.2524
  193DOPC  H17R23882   7.788   1.619  13.853 -2.8589 -1.1591 -1.8289
  193DOPC  H17S23883   7.669   1.532  13.951  0.6762  2.0650  3.0441
  193DOPC  C21823884   7.830   1.406  13.874 -0.0564 -0.0463  0.1362
  193DOPC  H18R23885   7.784   1.326  13.935  0.1614 -1.7853 -1.8603
  193DOPC  H18S23886   7.941   1.405  13.881 -0.1143 -0.7764  1.0553
  193DOPC  H18T23887   7.789   1.378  13.775 -2.5321  0.1235  1.0593
  193DOPC   C3323888   6.986   2.297  13.561  0.3955  0.3490 -0.3121
  193DOPC   H3X23889   7.045   2.377  13.510 -3.1566  2.0285 -2.1890
  193DOPC   H3Y23890   7.050   2.207  13.553  1.6497  1.0984  0.7889
  193DOPC   C3423891   6.969   2.326  13.706  0.1814 -0.2927  1.1179
  193DOPC   H4X23892   6.903   2.254  13.758  0.2163 -0.9119  0.3258
  193DOPC   H4Y23893   6.919   2.425  13.712  1.8292  0.9876 -2.8081
  193DOPC   C3523894   7.108   2.338  13.768  0.2573  0.2591 -0.7398
  193DOPC   H5X23895   7.166   2.403  13.698 -1.1859  0.5420 -1.7150
  193DOPC   H5Y23896   7.159   2.239  13.773 -1.4094 -0.6583 -1.0241
  193DOPC   C3623897   7.101   2.421  13.900 -0.7620  0.6257 -0.3718
  193DOPC   H6X23898   7.036   2.512  13.900 -1.3411  0.2813  2.2416
  193DOPC   H6Y23899   7.056   2.349  13.971 -3.0633  0.6348 -1.7261
  193DOPC   C3723900   7.240   2.470  13.948 -0.4055  0.0740  0.6238
  193DOPC   H7X23901   7.316   2.398  13.911 -0.9014  0.3736 -1.0312
  193DOPC   H7Y23902   7.271   2.565  13.899 -0.4207 -1.6327 -2.9787
  193DOPC   C3823903   7.246   2.485  14.098 -0.3625 -0.1311 -0.2484
  193DOPC   H8X23904   7.204   2.392  14.143  0.0005 -0.0850  0.1946
  193DOPC   H8Y23905   7.176   2.568  14.122 -1.4632 -0.6630 -1.4804
  193DOPC   C3923906   7.386   2.514  14.151 -0.1374  0.3509  0.7236
  193DOPC   H9X23907   7.446   2.584  14.091  0.3157 -2.2009 -2.0009
  193DOPC  C31023908   7.446   2.457  14.260  0.2414  0.2908 -0.0497
  193DOPC  H10X23909   7.539   2.510  14.283 -0.0621  1.4931 -1.4243
  193DOPC  C31123910   7.381   2.354  14.351 -0.0077 -0.1752  0.7076
  193DOPC  H11X23911   7.436   2.257  14.354  0.9075  0.3185  0.2092
  193DOPC  H11Y23912   7.280   2.321  14.318  0.4785 -1.5349  0.5008
  193DOPC  C31223913   7.370   2.404  14.496  0.2239 -0.0014 -0.3186
  193DOPC  H12X23914   7.318   2.327  14.557 -1.1297  1.9129  1.0914
  193DOPC  H12Y23915   7.299   2.490  14.497  0.1596 -0.0547 -0.2260
  193DOPC  C31323916   7.503   2.433  14.556 -0.7398  0.3648 -0.0926
  193DOPC  H13X23917   7.573   2.350  14.534 -1.5831 -0.8469  1.5914
  193DOPC  H13Y23918   7.559   2.517  14.509  0.9202 -1.1147 -0.8823
  193DOPC  C31423919   7.490   2.463  14.712 -0.1728  0.3325  0.4220
  193DOPC  H14X23920   7.485   2.361  14.757 -1.2442  0.5036  0.7256
  193DOPC  H14Y23921   7.582   2.513  14.750 -1.1849  1.2107  1.8053
  193DOPC  C31523922   7.367   2.536  14.763  0.3000  0.1318 -0.4196
  193DOPC  H15X23923   7.273   2.481  14.741  0.8033 -1.2324  0.6489
  193DOPC  H15Y23924   7.368   2.629  14.704  1.9302 -0.0313 -0.6954
  193DOPC  C31623925   7.370   2.571  14.913 -0.7248 -0.6386 -0.0393
  193DOPC  H16X23926   7.420   2.489  14.969  0.4562 -0.0397 -0.1989
  193DOPC  H16Y23927   7.444   2.654  14.912 -2.6512  1.1750 -0.5194
  193DOPC  C31723928   7.242   2.634  14.970 -0.5113  0.4698 -0.2219
  193DOPC  H17X23929   7.159   2.562  14.954 -0.4561  0.3395  0.0781
  193DOPC  H17Y23930   7.261   2.642  15.079  0.7449  0.1640 -0.3945
  193DOPC  C31823931   7.209   2.772  14.918  0.5516 -0.3363  0.3724
  193DOPC  H18X23932   7.294   2.842  14.936  0.0568 -0.1313  2.0212
  193DOPC  H18Y23933   7.199   2.764  14.807  1.4136  0.4130  0.2156
  193DOPC  H18Z23934   7.117   2.822  14.954  1.0075  2.3764 -1.8627
  194DOPC     N23935   1.432   0.673  12.770 -0.6740  0.0421  0.0307
  194DOPC   C1223936   1.471   0.560  12.872 -0.4440 -0.0071  0.1475
  194DOPC  H12A23937   1.540   0.493  12.823  0.9874  1.0703  0.6385
  194DOPC  H12B23938   1.378   0.507  12.888 -0.1756  0.2098  2.7906
  194DOPC   C1323939   1.384   0.611  12.644  0.0859 -0.6214  0.0231
  194DOPC  H13A23940   1.332   0.672  12.571  0.6458 -0.2953 -0.1072
  194DOPC  H13B23941   1.472   0.569  12.596 -0.2963 -0.3819 -0.9164
  194DOPC  H13C23942   1.313   0.533  12.667 -1.0552  0.2225 -0.5408
  194DOPC   C1423943   1.551   0.758  12.729 -0.1664 -0.1158  0.7583
  194DOPC  H14A23944   1.650   0.714  12.735 -0.5639 -1.0339  0.7960
  194DOPC  H14B23945   1.551   0.787  12.625 -1.7087 -4.2684 -0.6143
  194DOPC  H14C23946   1.544   0.852  12.782  0.2322  0.6799 -0.5515
  194DOPC   C1523947   1.328   0.758  12.831  0.6008 -0.3680 -0.6716
  194DOPC  H15A23948   1.297   0.848  12.780  1.5786  0.7388  0.6119
  194DOPC  H15B23949   1.376   0.784  12.925 -0.1924 -0.2343 -0.2901
  194DOPC  H15C23950   1.239   0.703  12.858 -0.1003  1.2174  0.4417
  194DOPC   C1123951   1.528   0.601  13.010 -0.4192  0.4476 -0.5745
  194DOPC  H11A23952   1.557   0.509  13.064 -0.1609  0.5249 -0.5822
  194DOPC  H11B23953   1.610   0.672  12.989 -0.4049  1.1487  1.6000
  194DOPC     P23954   1.307   0.603  13.143 -0.2102  0.1449 -0.1444
  194DOPC   O1323955   1.244   0.514  13.043  0.6869 -0.3210  0.0550
  194DOPC   O1423956   1.224   0.708  13.203  0.4176  0.7229  0.4810
  194DOPC   O1223957   1.427   0.682  13.081 -0.1378 -0.0284 -0.2821
  194DOPC   O1123958   1.388   0.521  13.254 -0.1786 -0.0123 -0.0213
  194DOPC    C123959   1.360   0.390  13.292 -0.5700  1.0950  0.3531
  194DOPC    HA23960   1.395   0.320  13.213 -0.6082  0.8952  0.5107
  194DOPC    HB23961   1.253   0.359  13.296  0.0383 -1.5423 -1.0965
  194DOPC    C223962   1.428   0.352  13.425  0.0273 -0.2279  0.2760
  194DOPC    HS23963   1.384   0.257  13.461 -0.2413 -0.7093 -1.2185
  194DOPC   O2123964   1.413   0.464  13.516 -0.4355  0.7862 -0.0995
  194DOPC   C2123965   1.284   0.501  13.541 -0.3605  0.3500  0.4397
  194DOPC   O2223966   1.195   0.418  13.548 -0.2229 -0.0604 -0.1815
  194DOPC   C2223967   1.278   0.647  13.587 -0.6369 -0.2302 -0.3224
  194DOPC   H2R23968   1.174   0.681  13.567 -1.3275 -2.2963 -0.5127
  194DOPC   H2S23969   1.343   0.710  13.523 -0.4330 -0.2795 -0.1652
  194DOPC    C323970   1.584   0.328  13.416  0.2606 -0.4713 -0.5959
  194DOPC    HX23971   1.641   0.423  13.411 -0.2987 -0.0703  0.3084
  194DOPC    HY23972   1.604   0.261  13.330 -0.6106  1.6900 -2.5965
  194DOPC   O3123973   1.620   0.268  13.541 -0.6810 -0.4914 -0.2206
  194DOPC   C3123974   1.611   0.133  13.553 -0.0701  0.1048  0.3989
  194DOPC   O3223975   1.562   0.057  13.473 -0.1471 -0.0248 -0.0597
  194DOPC   C3223976   1.685   0.083  13.676  0.8192 -0.5535 -0.7210
  194DOPC   H2X23977   1.714  -0.023  13.661  1.9970 -0.3288 -0.1437
  194DOPC   H2Y23978   1.782   0.138  13.678  2.2882 -3.0032  1.1254
  194DOPC   C2323979   1.330   0.662  13.734  0.6232  0.6300 -0.0171
  194DOPC   H3R23980   1.294   0.759  13.774  2.1499  1.3647 -0.3593
  194DOPC   H3S23981   1.441   0.664  13.735  0.6517  0.1730 -1.0577
  194DOPC   C2423982   1.288   0.558  13.834  0.0248 -1.0663 -0.0616
  194DOPC   H4R23983   1.319   0.453  13.812  2.1959 -0.4019 -0.3917
  194DOPC   H4S23984   1.177   0.556  13.828 -0.0480  2.1577 -1.6815
  194DOPC   C2523985   1.326   0.591  13.979  0.3405  0.0594 -0.2254
  194DOPC   H5R23986   1.280   0.507  14.035 -1.1232  0.2610 -1.0785
  194DOPC   H5S23987   1.282   0.689  14.009  1.7929  1.0869 -1.2977
  194DOPC   C2623988   1.474   0.592  13.996 -0.1560  0.4590 -0.6360
  194DOPC   H6R23989   1.506   0.671  13.926 -3.0294  3.1052  0.8257
  194DOPC   H6S23990   1.512   0.491  13.968  0.9639  1.3164 -2.3952
  194DOPC   C2723991   1.530   0.629  14.137  0.2010 -0.6077 -0.7872
  194DOPC   H7R23992   1.480   0.561  14.208  1.3970 -0.7884 -0.0915
  194DOPC   H7S23993   1.507   0.737  14.150  2.1925 -0.2531  0.2402
  194DOPC   C2823994   1.684   0.612  14.147 -0.2666  0.0430  0.0213
  194DOPC   H8R23995   1.723   0.667  14.059  0.1320 -1.3597 -0.7002
  194DOPC   H8S23996   1.698   0.503  14.131 -0.2462 -1.0925  5.7095
  194DOPC   C2923997   1.744   0.644  14.279  0.6572 -0.3879 -0.5932
  194DOPC   H9R23998   1.693   0.605  14.368 -0.5644  1.3865 -0.4489
  194DOPC  C21023999   1.855   0.716  14.294 -0.3367  0.2676  0.7004
  194DOPC  H10R24000   1.895   0.742  14.393 -0.6399 -1.1666  1.2097
  194DOPC  C21124001   1.940   0.793  14.191  0.2760  0.0947  0.1757
  194DOPC  H11R24002   1.919   0.749  14.091  1.0784 -1.3735  0.6193
  194DOPC  H11S24003   2.046   0.760  14.200 -0.0241 -1.6689 -1.8804
  194DOPC  C21224004   1.916   0.943  14.198 -1.1198 -0.1802  0.5286
  194DOPC  H12R24005   2.003   0.993  14.151 -0.7431  0.9507  2.3111
  194DOPC  H12S24006   1.918   0.982  14.302 -0.9010  2.2255 -0.3154
  194DOPC  C21324007   1.786   0.995  14.141  0.1928  0.3070  0.0319
  194DOPC  H13R24008   1.786   1.098  14.183 -1.1423  0.3508 -0.0515
  194DOPC  H13S24009   1.694   0.944  14.175  0.1850  0.6319  0.5098
  194DOPC  C21424010   1.783   0.986  13.988 -0.0764  0.5556 -0.0257
  194DOPC  H14R24011   1.813   0.883  13.958  3.2005  1.2717  0.3944
  194DOPC  H14S24012   1.871   1.039  13.946  0.0545  0.3443 -0.0216
  194DOPC  C21524013   1.652   1.028  13.924  1.0485  0.5308 -0.4758
  194DOPC  H15R24014   1.638   1.133  13.955  2.0418 -0.1182  2.4308
  194DOPC  H15S24015   1.569   0.974  13.974 -1.0965  2.5628 -1.6096
  194DOPC  C21624016   1.653   1.003  13.771  0.6650 -0.1305 -0.3305
  194DOPC  H16R24017   1.664   0.893  13.762 -1.7290 -0.4307 -0.2229
  194DOPC  H16S24018   1.742   1.052  13.726  0.5464 -1.0771 -1.6264
  194DOPC  C21724019   1.519   1.042  13.709  0.4343 -0.4293  0.3010
  194DOPC  H17R24020   1.501   1.150  13.692 -3.4453 -1.1864 -1.3456
  194DOPC  H17S24021   1.432   1.010  13.769  0.5884  1.6859  1.7823
  194DOPC  C21824022   1.494   0.993  13.572  0.9166  0.0674 -0.6282
  194DOPC  H18R24023   1.501   0.882  13.567 -1.6264 -0.1841  0.1107
  194DOPC  H18S24024   1.578   1.014  13.502  0.0443  0.7993 -1.4868
  194DOPC  H18T24025   1.406   1.034  13.518  0.0412  0.3884  0.9905
  194DOPC   C3324026   1.613   0.115  13.812  0.1550  0.5713  0.3189
  194DOPC   H3X24027   1.589   0.223  13.800  0.2127  0.3336 -2.5723
  194DOPC   H3Y24028   1.665   0.102  13.909  1.3790  0.4709 -0.3349
  194DOPC   C3424029   1.479   0.034  13.835 -0.5216 -0.3238 -0.1588
  194DOPC   H4X24030   1.504  -0.052  13.901  2.2639  1.7016  1.6190
  194DOPC   H4Y24031   1.451  -0.011  13.737 -0.2255 -0.2466 -0.2793
  194DOPC   C3524032   1.375   0.123  13.898  0.1107 -0.4918 -0.4696
  194DOPC   H5X24033   1.353   0.213  13.836  0.6018 -0.0634 -0.0295
  194DOPC   H5Y24034   1.421   0.161  13.992 -0.2356 -1.6240  0.1840
  194DOPC   C3624035   1.252   0.041  13.939  0.6024  0.0475 -0.7072
  194DOPC   H6X24036   1.177   0.046  13.856 -0.7566 -1.5406  0.3724
  194DOPC   H6Y24037   1.276  -0.066  13.953 -2.2042 -0.7642 -1.3956
  194DOPC   C3724038   1.167   0.113  14.061 -0.3680 -0.5307  0.6893
  194DOPC   H7X24039   1.243   0.159  14.128  0.3946 -0.3508 -0.2809
  194DOPC   H7Y24040   1.132   0.205  14.011  0.4305  0.3234  1.6558
  194DOPC   C3824041   1.065   0.017  14.129 -0.0615  0.2395 -0.3322
  194DOPC   H8X24042   1.113  -0.073  14.171 -0.8910 -1.1977 -2.3273
  194DOPC   H8Y24043   1.010  -0.021  14.041  0.7796  1.8098 -1.6056
  194DOPC   C3924044   0.965   0.093  14.219 -0.3477 -0.3645  0.4383
  194DOPC   H9X24045   0.929   0.186  14.173 -0.9897  0.1779  1.9817
  194DOPC  C31024046   0.927   0.061  14.346 -0.3585  0.5874  0.8673
  194DOPC  H10X24047   0.864   0.133  14.399 -0.1544  0.1948  1.6455
  194DOPC  C31124048   0.980  -0.057  14.419 -0.6269  0.2292 -0.3354
  194DOPC  H11X24049   1.025  -0.129  14.348 -0.5530 -1.7710  1.6416
  194DOPC  H11Y24050   0.901  -0.114  14.471 -0.2022 -1.1154 -1.1246
  194DOPC  C31224051   1.080  -0.024  14.538 -0.7447  0.0272 -0.0998
  194DOPC  H12X24052   1.031   0.047  14.608  0.3408  1.8086 -1.0703
  194DOPC  H12Y24053   1.174   0.025  14.504  0.2861 -1.6891  0.1215
  194DOPC  C31324054   1.116  -0.147  14.624  0.5277 -0.5278  0.2716
  194DOPC  H13X24055   1.088  -0.242  14.573 -0.1269  0.4436 -1.2546
  194DOPC  H13Y24056   1.226  -0.158  14.633  0.8223 -0.5922 -2.5070
  194DOPC  C31424057   1.052  -0.136  14.764 -0.0261 -0.6020  1.0098
  194DOPC  H14X24058   1.087  -0.037  14.801  5.7283 -1.9210  0.1088
  194DOPC  H14Y24059   0.943  -0.132  14.747  0.3818 -0.3576 -1.9550
  194DOPC  C31524060   1.077  -0.262  14.852  0.1857 -0.9386  0.4972
  194DOPC  H15X24061   1.187  -0.274  14.851  0.3316  0.2997 -0.1589
  194DOPC  H15Y24062   1.021  -0.349  14.812 -0.2784 -1.1420  1.5662
  194DOPC  C31624063   1.038  -0.246  15.001  0.3420 -0.7170  0.6952
  194DOPC  H16X24064   1.087  -0.150  15.031 -0.4664  1.4710 -4.0435
  194DOPC  H16Y24065   0.931  -0.214  15.003  0.2897 -0.9029  2.0890
  194DOPC  C31724066   1.091  -0.354  15.088 -0.1796 -0.3207  0.2022
  194DOPC  H17X24067   1.093  -0.446  15.025  1.3690  0.1418 -0.4930
  194DOPC  H17Y24068   1.198  -0.325  15.100 -0.1780  0.0671 -0.6605
  194DOPC  C31824069   1.020  -0.382  15.225 -0.5773 -0.3302 -0.3191
  194DOPC  H18X24070   1.032  -0.287  15.281  2.1248  0.0460 -1.4043
  194DOPC  H18Y24071   0.912  -0.397  15.205 -1.0986  1.3819  1.0035
  194DOPC  H18Z24072   1.065  -0.469  15.279  0.5120  0.6454  0.3933
  195DOPC     N24073   5.796   1.148  12.559 -0.3759  0.4505  0.1014
  195DOPC   C1224074   5.892   1.084  12.671  0.6216 -0.1558  0.0853
  195DOPC  H12A24075   5.935   1.171  12.719 -0.9975  0.1484  1.0667
  195DOPC  H12B24076   5.978   1.040  12.622 -0.8103 -2.3069 -0.5982
  195DOPC   C1324077   5.696   1.229  12.626 -0.1797 -0.4076 -0.1595
  195DOPC  H13A24078   5.649   1.189  12.714 -0.4082  2.1620  0.9890
  195DOPC  H13B24079   5.743   1.319  12.663 -0.4134 -0.3966  0.1164
  195DOPC  H13C24080   5.614   1.258  12.562 -0.6260 -2.1393 -0.4194
  195DOPC   C1424081   5.721   1.038  12.479 -0.5449 -0.0791 -0.6846
  195DOPC  H14A24082   5.791   0.967  12.437 -0.8877 -0.9896  0.2345
  195DOPC  H14B24083   5.663   0.982  12.551  1.5589  0.5802  1.6782
  195DOPC  H14C24084   5.657   1.077  12.401  0.6169  0.8435 -1.2198
  195DOPC   C1524085   5.882   1.224  12.462 -0.0846  0.1207  0.7395
  195DOPC  H15A24086   5.814   1.241  12.380 -0.5553 -1.2284  0.8286
  195DOPC  H15B24087   5.967   1.166  12.430  0.0303  0.6403  0.0973
  195DOPC  H15C24088   5.906   1.321  12.502 -0.1423  0.8201 -0.8510
  195DOPC   C1124089   5.845   0.979  12.771  0.0742  0.1106  0.7943
  195DOPC  H11A24090   5.921   0.941  12.842 -1.0903 -0.0034  2.0096
  195DOPC  H11B24091   5.766   1.024  12.835 -0.2902 -1.4107  1.4597
  195DOPC     P24092   5.892   0.745  12.669 -0.1707  0.2643 -0.5198
  195DOPC   O1324093   6.018   0.803  12.617  0.0637 -0.1620 -0.0102
  195DOPC   O1424094   5.826   0.643  12.586  0.8146  0.0128 -0.2841
  195DOPC   O1224095   5.793   0.862  12.704  0.0548  0.1852 -0.0022
  195DOPC   O1124096   5.915   0.679  12.820  0.2147 -0.1553  0.5629
  195DOPC    C124097   5.803   0.632  12.892 -0.6622  0.3566  0.4011
  195DOPC    HA24098   5.816   0.523  12.912 -0.7276  0.0648 -1.0596
  195DOPC    HB24099   5.711   0.635  12.831  0.1074 -0.2726 -0.8349
  195DOPC    C224100   5.775   0.708  13.020 -0.2865  0.5262  0.1054
  195DOPC    HS24101   5.821   0.808  13.015 -1.5720  1.1350 -0.0661
  195DOPC   O2124102   5.830   0.627  13.125  0.4307 -0.4945 -0.0755
  195DOPC   C2124103   5.968   0.635  13.144  0.1762 -0.0642  0.4914
  195DOPC   O2224104   6.038   0.714  13.084 -0.6179  0.2436  0.0108
  195DOPC   C2224105   6.014   0.528  13.238  0.0642 -0.5042 -0.4879
  195DOPC   H2R24106   6.124   0.513  13.241  0.0471 -1.0614 -1.7998
  195DOPC   H2S24107   5.977   0.434  13.190 -0.2804 -1.0605  0.8209
  195DOPC    C324108   5.622   0.736  13.050  0.2209  0.0168 -0.3594
  195DOPC    HX24109   5.568   0.639  13.037  0.3296  0.1653 -2.1361
  195DOPC    HY24110   5.585   0.802  12.969 -2.8714  0.2603  1.0716
  195DOPC   O3124111   5.604   0.803  13.177 -0.2308 -0.4857 -0.4758
  195DOPC   C3124112   5.578   0.725  13.280 -0.3530 -0.0696 -0.3827
  195DOPC   O3224113   5.550   0.606  13.276 -0.7617 -0.2399  0.5913
  195DOPC   C3224114   5.603   0.800  13.411  0.1051  0.0314 -0.4720
  195DOPC   H2X24115   5.708   0.830  13.427 -0.3554  0.9614  1.0303
  195DOPC   H2Y24116   5.535   0.888  13.410  0.0054 -0.0078  0.8175
  195DOPC   C2324117   5.946   0.546  13.383 -0.5121  0.3060  0.0086
  195DOPC   H3R24118   5.978   0.451  13.430  0.9282  0.6132 -0.3001
  195DOPC   H3S24119   5.835   0.548  13.376 -0.6104 -0.5266  1.1772
  195DOPC   C2424120   6.014   0.659  13.463  0.5281  0.6763  0.1218
  195DOPC   H4R24121   5.963   0.754  13.437  0.7951  0.8392  0.1883
  195DOPC   H4S24122   6.120   0.680  13.437  0.6226 -0.6115 -0.6320
  195DOPC   C2524123   5.992   0.636  13.614  0.0809  0.7505 -0.6685
  195DOPC   H5R24124   6.051   0.548  13.650 -0.6925  0.2662 -0.5577
  195DOPC   H5S24125   5.884   0.614  13.622  0.2291 -0.6837 -2.0758
  195DOPC   C2624126   6.035   0.754  13.699 -0.1070  0.5263 -0.6829
  195DOPC   H6R24127   5.981   0.848  13.672 -0.0168  1.0662  0.9273
  195DOPC   H6S24128   6.144   0.773  13.681  0.4542 -1.7720 -0.0127
  195DOPC   C2724129   6.003   0.719  13.848  0.2345 -0.9824  0.1156
  195DOPC   H7R24130   6.032   0.614  13.870  0.3044 -0.4825  2.6896
  195DOPC   H7S24131   5.893   0.726  13.861  0.2050 -1.5404  0.1966
  195DOPC   C2824132   6.056   0.812  13.955 -0.1690 -0.2953  0.2737
  195DOPC   H8R24133   5.989   0.900  13.945  0.2306 -0.0686 -0.4953
  195DOPC   H8S24134   6.157   0.840  13.919  0.1626 -0.3564  1.1372
  195DOPC   C2924135   6.038   0.764  14.098  0.0710  0.7392 -0.4324
  195DOPC   H9R24136   6.116   0.692  14.126 -0.5966 -0.1836 -0.9071
  195DOPC  C21024137   5.953   0.806  14.193  1.3241  0.0632 -1.0231
  195DOPC  H10R24138   5.943   0.756  14.290 -2.5100  2.2686 -0.0595
  195DOPC  C21124139   5.855   0.919  14.176  0.2728  0.0600  0.3580
  195DOPC  H11R24140   5.772   0.890  14.108 -0.5182  1.4416  0.7033
  195DOPC  H11S24141   5.901   1.009  14.129 -0.2042  1.7251  2.8890
  195DOPC  C21224142   5.798   0.963  14.313 -0.3842  0.1700 -0.1798
  195DOPC  H12R24143   5.753   0.880  14.371 -0.6573 -0.0869 -0.7505
  195DOPC  H12S24144   5.736   1.052  14.287  2.1562  1.9871 -0.4588
  195DOPC  C21324145   5.914   1.026  14.397  0.3778 -0.4650 -0.6188
  195DOPC  H13R24146   5.976   1.086  14.327  3.0941 -2.0976  0.2470
  195DOPC  H13S24147   5.977   0.941  14.430  1.0474  0.1952 -0.1779
  195DOPC  C21424148   5.867   1.114  14.513 -0.7044 -0.3066  0.0515
  195DOPC  H14R24149   5.807   1.048  14.578 -1.2199  0.5113  0.4271
  195DOPC  H14S24150   5.812   1.200  14.469 -1.9410 -1.1328 -0.0529
  195DOPC  C21524151   5.983   1.166  14.598 -0.3991 -0.0855 -0.4902
  195DOPC  H15R24152   6.046   1.080  14.628  2.3804  1.4547 -1.5811
  195DOPC  H15S24153   5.947   1.217  14.690  0.4834  0.4058 -0.4141
  195DOPC  C21624154   6.066   1.271  14.521  0.0970  0.6319  0.3946
  195DOPC  H16R24155   5.998   1.354  14.495 -2.2534 -1.5937 -1.0881
  195DOPC  H16S24156   6.099   1.222  14.426 -1.0872  0.4230  0.0732
  195DOPC  C21724157   6.184   1.329  14.595 -0.2525  0.3974  0.0193
  195DOPC  H17R24158   6.244   1.394  14.529  1.2595  0.8270  1.7518
  195DOPC  H17S24159   6.259   1.253  14.627  0.9030  1.8988  0.9821
  195DOPC  C21824160   6.133   1.396  14.726  0.3703  0.0980  0.1295
  195DOPC  H18R24161   6.216   1.462  14.760 -1.2900  2.3825 -0.0505
  195DOPC  H18S24162   6.112   1.320  14.805 -0.3521  1.4203  1.2638
  195DOPC  H18T24163   6.043   1.459  14.710  0.7055  0.7684  0.8456
  195DOPC   C3324164   5.563   0.705  13.528  0.5496 -0.3562  0.3936
  195DOPC   H3X24165   5.650   0.638  13.530  0.8210 -0.0563 -0.7855
  195DOPC   H3Y24166   5.464   0.657  13.511  0.1645  0.8159 -0.8668
  195DOPC   C3424167   5.559   0.775  13.662  0.2378  0.4643 -0.3752
  195DOPC   H4X24168   5.498   0.868  13.663  0.1638  0.4226  1.1001
  195DOPC   H4Y24169   5.665   0.801  13.683 -0.0665  1.4729 -0.0232
  195DOPC   C3524170   5.517   0.685  13.776  0.4094  1.1454 -0.4699
  195DOPC   H5X24171   5.571   0.588  13.766  0.1215  0.7394  1.5257
  195DOPC   H5Y24172   5.407   0.668  13.774  0.6571 -0.7946  0.3192
  195DOPC   C3624173   5.552   0.751  13.915  0.5229  0.6333 -0.6167
  195DOPC   H6X24174   5.662   0.764  13.922  0.3826  1.0722  1.2407
  195DOPC   H6Y24175   5.511   0.853  13.930  3.6667  1.5454  3.2834
  195DOPC   C3724176   5.501   0.655  14.027  0.0354 -0.6810 -0.3684
  195DOPC   H7X24177   5.400   0.625  13.990 -0.4190 -1.1158  1.1577
  195DOPC   H7Y24178   5.570   0.568  14.027  2.9003  1.4348  1.0471
  195DOPC   C3824179   5.508   0.721  14.168 -0.4573 -0.0253  0.3192
  195DOPC   H8X24180   5.436   0.806  14.171 -0.4781 -0.0097  4.3324
  195DOPC   H8Y24181   5.610   0.756  14.193  0.2668 -2.0342  0.3764
  195DOPC   C3924182   5.476   0.611  14.264 -0.6558 -0.1650 -0.7929
  195DOPC   H9X24183   5.369   0.585  14.267 -0.2343 -2.1263 -1.1212
  195DOPC  C31024184   5.563   0.539  14.344  0.6089 -0.3277 -0.1330
  195DOPC  H10X24185   5.505   0.481  14.417  0.1483  0.4523  0.1344
  195DOPC  C31124186   5.709   0.558  14.365 -0.2517  0.1067 -0.1824
  195DOPC  H11X24187   5.762   0.619  14.288  1.1444  0.7090  1.1873
  195DOPC  H11Y24188   5.752   0.456  14.364 -2.2234 -0.7600 -0.0590
  195DOPC  C31224189   5.738   0.623  14.497  0.4717  0.3322  0.1427
  195DOPC  H12X24190   5.686   0.720  14.512 -0.0951  0.2972 -1.4469
  195DOPC  H12Y24191   5.848   0.637  14.496  0.3359  1.6796 -2.3787
  195DOPC  C31324192   5.707   0.543  14.624 -0.4564 -0.5302  0.0927
  195DOPC  H13X24193   5.598   0.547  14.648 -0.1180  0.6162  1.5500
  195DOPC  H13Y24194   5.737   0.438  14.601  0.7533 -0.3335  0.7063
  195DOPC  C31424195   5.785   0.587  14.751  0.2772  0.1075  0.0844
  195DOPC  H14X24196   5.892   0.585  14.721  0.6280  0.9806  1.2108
  195DOPC  H14Y24197   5.761   0.693  14.775 -2.0315 -0.2752 -0.3202
  195DOPC  C31524198   5.751   0.495  14.868  0.2947 -0.1541 -0.8407
  195DOPC  H15X24199   5.741   0.388  14.839 -0.6877 -0.9203  1.9632
  195DOPC  H15Y24200   5.647   0.518  14.900  0.6374 -0.9403  0.9589
  195DOPC  C31624201   5.857   0.497  14.981  0.5896  0.1000  0.5764
  195DOPC  H16X24202   5.954   0.456  14.947 -0.3250 -1.6486 -0.0270
  195DOPC  H16Y24203   5.869   0.599  15.025 -0.8760  0.4017  0.3304
  195DOPC  C31724204   5.820   0.404  15.101 -0.2897 -0.7611 -0.1814
  195DOPC  H17X24205   5.715   0.412  15.136 -0.6215  0.7182 -1.4408
  195DOPC  H17Y24206   5.836   0.300  15.063 -1.9036 -0.7507 -0.9383
  195DOPC  C31824207   5.920   0.412  15.223 -0.1388  0.4311 -0.1492
  195DOPC  H18X24208   5.886   0.358  15.314  1.1064  0.4829  0.3714
  195DOPC  H18Y24209   6.019   0.364  15.203 -0.6212 -0.6426 -0.0239
  195DOPC  H18Z24210   5.947   0.518  15.243 -0.7176  1.0467 -2.3703
  196DOPC     N24211   0.972   1.963  12.502 -0.1817  0.2009  0.0022
  196DOPC   C1224212   0.895   2.005  12.624 -0.2467  0.0853 -0.2920
  196DOPC  H12A24213   0.868   2.105  12.596  0.6055  0.3039 -0.3634
  196DOPC  H12B24214   0.966   2.008  12.706  0.5411 -2.2782 -0.8061
  196DOPC   C1324215   0.890   1.972  12.381  0.5101 -0.4514 -0.0820
  196DOPC  H13A24216   0.803   1.909  12.393  0.6549 -0.4135  1.3471
  196DOPC  H13B24217   0.856   2.074  12.386  0.6769 -0.4296  3.2665
  196DOPC  H13C24218   0.937   1.948  12.287  1.3152 -3.1329  0.9015
  196DOPC   C1424219   1.010   1.815  12.505 -0.1155 -0.2531 -0.5147
  196DOPC  H14A24220   1.065   1.791  12.416 -1.8064 -0.8838 -1.4381
  196DOPC  H14B24221   1.071   1.796  12.592 -1.3231  1.6626  0.8406
  196DOPC  H14C24222   0.923   1.751  12.501  1.0416 -2.1553  2.1277
  196DOPC   C1524223   1.089   2.054  12.487  0.5217 -0.3140  0.1075
  196DOPC  H15A24224   1.061   2.157  12.504 -1.7908 -0.9220  0.3349
  196DOPC  H15B24225   1.126   2.055  12.385 -0.8140  0.9657 -0.3987
  196DOPC  H15C24226   1.170   2.036  12.557 -0.2831 -2.0795  0.6360
  196DOPC   C1124227   0.774   1.920  12.665 -0.1996 -0.1591 -0.4031
  196DOPC  H11A24228   0.815   1.818  12.684 -2.8664 -1.2562 -0.1531
  196DOPC  H11B24229   0.736   1.954  12.764  0.3483  1.9055 -0.8561
  196DOPC     P24230   0.555   2.015  12.586  0.2324 -0.1900 -0.3585
  196DOPC   O1324231   0.453   2.009  12.478  0.1300 -0.0231  0.3610
  196DOPC   O1424232   0.615   2.149  12.599  0.7743 -0.4051 -0.1178
  196DOPC   O1224233   0.676   1.915  12.564 -0.7349  0.2922  0.0785
  196DOPC   O1124234   0.483   1.969  12.721 -0.1369 -0.6272 -0.0183
  196DOPC    C124235   0.419   1.847  12.722  0.0116 -0.7123  0.5269
  196DOPC    HA24236   0.473   1.771  12.661 -0.0130 -0.7801  0.5898
  196DOPC    HB24237   0.318   1.858  12.676  0.6183  0.7897 -0.5280
  196DOPC    C224238   0.407   1.780  12.861 -0.5197  0.0312 -0.4461
  196DOPC    HS24239   0.375   1.675  12.847  0.5054 -0.7882  2.5523
  196DOPC   O2124240   0.328   1.853  12.954  0.1774  0.1248  0.0978
  196DOPC   C2124241   0.276   1.783  13.053 -0.0218  0.0785  0.6606
  196DOPC   O2224242   0.278   1.661  13.059  0.1563  0.2872 -0.0539
  196DOPC   C2224243   0.217   1.876  13.159  0.1963  0.1585  0.0626
  196DOPC   H2R24244   0.126   1.929  13.123  0.6673  0.4990 -0.6490
  196DOPC   H2S24245   0.290   1.958  13.174  1.2868 -0.5783 -1.0166
  196DOPC    C324246   0.555   1.772  12.912  0.2909  0.9227  0.3937
  196DOPC    HX24247   0.588   1.877  12.922  1.6782  0.5298  0.2492
  196DOPC    HY24248   0.609   1.731  12.824 -0.1231  2.4767 -0.6188
  196DOPC   O3124249   0.563   1.701  13.034  0.2031  0.2704  0.3272
  196DOPC   C3124250   0.693   1.698  13.082  0.3180 -0.1131 -0.5220
  196DOPC   O3224251   0.786   1.748  13.021  0.0931  0.3021  0.1040
  196DOPC   C3224252   0.713   1.619  13.208  0.5148  0.2629  0.4449
  196DOPC   H2X24253   0.755   1.519  13.182 -1.1717 -0.5170  0.5826
  196DOPC   H2Y24254   0.786   1.665  13.277  2.1714 -0.0714 -1.0002
  196DOPC   C2324255   0.191   1.805  13.293  1.0621  0.1007  0.4158
  196DOPC   H3R24256   0.279   1.746  13.325  0.6659 -1.8302 -1.7944
  196DOPC   H3S24257   0.103   1.739  13.271  0.7885  0.2779  0.9729
  196DOPC   C2424258   0.140   1.897  13.408 -0.0297 -0.1145 -0.4809
  196DOPC   H4R24259   0.112   1.825  13.488 -1.1044  0.5148 -0.2741
  196DOPC   H4S24260   0.053   1.948  13.361  0.6393 -1.1630 -3.0487
  196DOPC   C2524261   0.236   1.999  13.463 -0.6836 -0.1789  0.3327
  196DOPC   H5R24262   0.176   2.065  13.529  1.8824  0.1311  2.5347
  196DOPC   H5S24263   0.278   2.058  13.379  1.4095 -1.0228  0.7326
  196DOPC   C2624264   0.350   1.930  13.541  0.2341 -0.4992  0.2054
  196DOPC   H6R24265   0.425   2.007  13.569 -1.4483  1.0681  0.6192
  196DOPC   H6S24266   0.409   1.871  13.468  0.5750  0.8700 -0.6537
  196DOPC   C2724267   0.294   1.842  13.652  0.0713 -0.5608  0.4438
  196DOPC   H7R24268   0.280   1.736  13.624  1.2158 -0.4201 -0.7362
  196DOPC   H7S24269   0.190   1.872  13.681 -0.3784 -0.2884 -1.3572
  196DOPC   C2824270   0.388   1.827  13.779  0.4948 -0.3922 -0.0084
  196DOPC   H8R24271   0.339   1.753  13.847  1.7719 -1.7676 -0.5394
  196DOPC   H8S24272   0.376   1.924  13.832 -0.9817 -0.3924 -0.2879
  196DOPC   C2924273   0.533   1.786  13.758  0.4675  0.4260  0.1814
  196DOPC   H9R24274   0.546   1.701  13.689  4.2561 -0.3146  1.5697
  196DOPC  C21024275   0.641   1.851  13.806 -0.1391  0.0419  0.0554
  196DOPC  H10R24276   0.742   1.822  13.776 -0.8048 -1.2246 -1.0857
  196DOPC  C21124277   0.630   1.979  13.882 -0.8266  0.5004 -0.7308
  196DOPC  H11R24278   0.565   2.055  13.834 -1.5889  0.4758  0.2357
  196DOPC  H11S24279   0.720   2.045  13.878  0.6393 -1.4318 -1.0380
  196DOPC  C21224280   0.587   1.957  14.027  0.4155 -0.1989  0.4157
  196DOPC  H12R24281   0.479   1.929  14.021  0.4705 -0.1957 -1.2391
  196DOPC  H12S24282   0.597   2.047  14.091 -1.6895  1.2218 -1.1123
  196DOPC  C21324283   0.672   1.851  14.110  1.1582 -0.1707 -0.4658
  196DOPC  H13R24284   0.777   1.851  14.074  2.1871  0.8915  2.2258
  196DOPC  H13S24285   0.626   1.751  14.101  0.2516  0.3146 -1.4439
  196DOPC  C21424286   0.691   1.876  14.262  0.8390 -0.1447 -0.3297
  196DOPC  H14R24287   0.764   1.960  14.275  1.1587 -0.4906  0.1473
  196DOPC  H14S24288   0.755   1.797  14.307  0.9418  0.2110  0.1668
  196DOPC  C21524289   0.558   1.892  14.347 -0.4916 -0.3042  0.0435
  196DOPC  H15R24290   0.470   1.842  14.300 -2.3274  1.1913  1.7405
  196DOPC  H15S24291   0.548   2.002  14.337 -0.4860 -0.2116  0.9620
  196DOPC  C21624292   0.577   1.847  14.491 -0.9407  0.0175 -0.4032
  196DOPC  H16R24293   0.674   1.885  14.530  1.0255 -1.5218 -3.3730
  196DOPC  H16S24294   0.582   1.736  14.501  0.7954  0.0732 -0.1936
  196DOPC  C21724295   0.448   1.899  14.562  0.5919  0.6117  0.3961
  196DOPC  H17R24296   0.353   1.868  14.513  0.7391 -1.2659  1.1903
  196DOPC  H17S24297   0.445   2.009  14.552 -1.4492  0.4439 -1.5698
  196DOPC  C21824298   0.439   1.858  14.710 -0.1302  0.1385 -0.8079
  196DOPC  H18R24299   0.421   1.749  14.721 -1.4901  0.5819  2.2862
  196DOPC  H18S24300   0.356   1.903  14.767  2.1996  1.2687  1.9027
  196DOPC  H18T24301   0.536   1.881  14.759 -0.2978  0.2635 -0.5361
  196DOPC   C3324302   0.576   1.593  13.276  0.5439 -0.4907  0.0984
  196DOPC   H3X24303   0.505   1.553  13.202  2.5303 -1.6324 -1.2656
  196DOPC   H3Y24304   0.540   1.687  13.324  2.0408  0.1447  0.0466
  196DOPC   C3424305   0.594   1.487  13.384  0.2053 -0.7930  0.3788
  196DOPC   H4X24306   0.682   1.515  13.445 -0.3333  0.7765  0.4708
  196DOPC   H4Y24307   0.607   1.392  13.328 -1.6755 -0.3592 -0.8951
  196DOPC   C3524308   0.478   1.458  13.483  0.4347 -0.1545 -0.1734
  196DOPC   H5X24309   0.483   1.545  13.552  2.6177  0.3815 -0.9305
  196DOPC   H5Y24310   0.500   1.363  13.536 -1.4788 -2.9110 -3.7981
  196DOPC   C3624311   0.336   1.435  13.415 -0.4020  0.1214 -0.0488
  196DOPC   H6X24312   0.306   1.517  13.347 -4.3024 -1.0227  0.0602
  196DOPC   H6Y24313   0.339   1.343  13.353 -0.0905  1.2091 -1.6944
  196DOPC   C3724314   0.217   1.414  13.519  0.1166 -0.7449 -0.2130
  196DOPC   H7X24315   0.238   1.316  13.565  0.8093  1.0530  3.6576
  196DOPC   H7Y24316   0.220   1.495  13.595  1.3680  0.4816 -1.4943
  196DOPC   C3824317   0.081   1.440  13.444  0.2258 -0.1410 -0.8182
  196DOPC   H8X24318   0.085   1.370  13.358 -2.3205 -0.0002 -1.1277
  196DOPC   H8Y24319   0.069   1.539  13.396  0.1093 -0.0955 -0.6988
  196DOPC   C3924320  -0.039   1.394  13.521  0.0302 -0.3400 -0.1952
  196DOPC   H9X24321  -0.033   1.289  13.554  1.6362 -0.0559  0.5030
  196DOPC  C31024322  -0.134   1.474  13.570  0.4107  0.9371  0.2171
  196DOPC  H10X24323  -0.215   1.426  13.627 -1.4893 -0.5124 -3.3693
  196DOPC  C31124324  -0.153   1.621  13.562 -0.0009  0.9028  0.3802
  196DOPC  H11X24325  -0.241   1.641  13.497 -0.4794  0.0723  0.7565
  196DOPC  H11Y24326  -0.075   1.668  13.498 -0.6385  3.5387  1.3727
  196DOPC  C31224327  -0.153   1.713  13.683 -0.2988 -0.3795  0.2622
  196DOPC  H12X24328  -0.133   1.820  13.659  0.7062 -0.5175  0.4707
  196DOPC  H12Y24329  -0.070   1.686  13.752 -1.0750  1.2743  1.9448
  196DOPC  C31324330  -0.295   1.710  13.753  0.7322 -0.1484  0.3428
  196DOPC  H13X24331  -0.384   1.703  13.688  0.4228 -1.5752  0.8813
  196DOPC  H13Y24332  -0.289   1.619  13.817 -1.1680 -1.0978 -0.7638
  196DOPC  C31424333  -0.308   1.827  13.852 -0.1410 -0.8533  0.1856
  196DOPC  H14X24334  -0.319   1.921  13.794  2.7292 -0.8592 -0.4901
  196DOPC  H14Y24335  -0.405   1.820  13.906 -1.5766  0.4914 -2.0887
  196DOPC  C31524336  -0.189   1.836  13.943  0.6095 -0.6260 -0.5144
  196DOPC  H15X24337  -0.108   1.884  13.886  2.5751 -0.5457  2.1464
  196DOPC  H15Y24338  -0.139   1.743  13.977  0.9911  0.2970  1.5886
  196DOPC  C31624339  -0.220   1.932  14.062  0.4272  0.8683 -0.0993
  196DOPC  H16X24340  -0.120   1.962  14.101  0.3337  2.0573 -0.7269
  196DOPC  H16Y24341  -0.271   2.028  14.037 -0.6160  0.6099  0.9247
  196DOPC  C31724342  -0.298   1.873  14.176  0.1587 -0.1798 -0.0091
  196DOPC  H17X24343  -0.400   1.872  14.134  0.4748 -1.1469 -0.7910
  196DOPC  H17Y24344  -0.256   1.770  14.190 -0.8691 -0.5444  0.4642
  196DOPC  C31824345  -0.290   1.953  14.306 -0.3554  0.1119  0.1857
  196DOPC  H18X24346  -0.188   1.956  14.351 -1.5931 -1.5977  3.3802
  196DOPC  H18Y24347  -0.316   2.061  14.295  0.6879  0.8634  3.8647
  196DOPC  H18Z24348  -0.340   1.913  14.396  0.1515  1.2850  1.0196
  197DOPC     N24349   1.389   6.800  12.805 -0.0224 -0.0703  0.0479
  197DOPC   C1224350   1.452   6.679  12.860  0.2659 -0.0250 -1.3132
  197DOPC  H12A24351   1.484   6.615  12.779 -0.9995 -1.0469 -1.0409
  197DOPC  H12B24352   1.379   6.620  12.915  0.5834 -0.5580 -1.4564
  197DOPC   C1324353   1.486   6.875  12.715 -0.5164  0.0247  0.0940
  197DOPC  H13A24354   1.488   6.827  12.619 -2.5313  2.2869 -1.1730
  197DOPC  H13B24355   1.450   6.976  12.704  2.8467  1.2958 -0.4276
  197DOPC  H13C24356   1.586   6.880  12.756 -0.5907  4.1158  0.1722
  197DOPC   C1424357   1.343   6.888  12.913  0.3592 -0.5530  0.4540
  197DOPC  H14A24358   1.420   6.934  12.973 -0.0119  1.2478 -0.3624
  197DOPC  H14B24359   1.288   6.975  12.880  0.9923 -0.3810 -0.1730
  197DOPC  H14C24360   1.280   6.829  12.979 -0.0890  1.5506  2.0175
  197DOPC   C1524361   1.257   6.772  12.734  0.0248 -0.3395  0.0029
  197DOPC  H15A24362   1.281   6.724  12.640  0.9448 -0.9906  0.5495
  197DOPC  H15B24363   1.196   6.860  12.728  0.8058  0.1097 -2.1739
  197DOPC  H15C24364   1.201   6.698  12.790  0.9732 -1.5402 -0.5851
  197DOPC   C1124365   1.575   6.698  12.946 -0.7253  0.2438 -0.0242
  197DOPC  H11A24366   1.547   6.788  13.005 -0.2369  1.9067 -2.1571
  197DOPC  H11B24367   1.606   6.615  13.012 -1.8107  0.1366  0.3707
  197DOPC     P24368   1.797   6.833  12.876 -0.0845  0.0158 -0.3345
  197DOPC   O1324369   1.775   6.942  12.776  0.3444  0.4522  0.0818
  197DOPC   O1424370   1.927   6.757  12.870  0.2331 -0.0226  0.0310
  197DOPC   O1224371   1.680   6.731  12.858 -0.3418  0.3693  0.1948
  197DOPC   O1124372   1.774   6.884  13.025  0.2252 -0.4526 -0.5533
  197DOPC    C124373   1.682   6.991  13.061 -0.0567  0.1983  0.4350
  197DOPC    HA24374   1.616   6.951  13.141  0.5921 -3.4600 -0.6589
  197DOPC    HB24375   1.618   7.033  12.980  0.3558 -1.2030 -0.6569
  197DOPC    C224376   1.771   7.106  13.128 -0.0934  0.3226 -0.8265
  197DOPC    HS24377   1.848   7.045  13.180 -0.5575 -1.4642 -2.1568
  197DOPC   O2124378   1.707   7.194  13.225  0.1037  0.8517 -0.1802
  197DOPC   C2124379   1.691   7.148  13.346  0.0302 -0.0645 -0.7056
  197DOPC   O2224380   1.735   7.046  13.395 -0.0077  0.1033  0.3776
  197DOPC   C2224381   1.586   7.230  13.416  0.2390 -0.0593  0.5365
  197DOPC   H2R24382   1.489   7.200  13.370 -0.0223  0.3167  0.8419
  197DOPC   H2S24383   1.608   7.338  13.407 -2.8410  0.5852 -0.5330
  197DOPC    C324384   1.845   7.184  13.019  0.3470 -0.0024  0.0087
  197DOPC    HX24385   1.769   7.250  12.972  1.2256  0.7120 -0.4421
  197DOPC    HY24386   1.869   7.112  12.937 -0.5606  1.0241 -1.2008
  197DOPC   O3124387   1.952   7.266  13.063 -0.0864 -0.1678 -0.0109
  197DOPC   C3124388   2.071   7.204  13.058  0.0485  0.0324  0.3445
  197DOPC   O3224389   2.088   7.083  13.039  0.2471 -0.0053 -0.1353
  197DOPC   C3224390   2.185   7.308  13.088 -0.1583 -0.2992  0.6741
  197DOPC   H2X24391   2.191   7.368  12.995 -0.7626 -1.9046 -0.4390
  197DOPC   H2Y24392   2.151   7.384  13.162  0.7316  0.2191  0.5718
  197DOPC   C2324393   1.561   7.179  13.564  0.9530  0.0797 -0.5509
  197DOPC   H3R24394   1.648   7.186  13.632 -0.1170 -2.3758  1.2539
  197DOPC   H3S24395   1.532   7.072  13.575  0.2143  0.4799  2.0081
  197DOPC   C2424396   1.453   7.261  13.631 -0.0504 -0.3624 -0.1517
  197DOPC   H4R24397   1.364   7.258  13.564  0.0222  0.3154 -0.2881
  197DOPC   H4S24398   1.476   7.369  13.637 -1.6941 -0.0143  0.2326
  197DOPC   C2524399   1.394   7.210  13.771  0.6785 -0.0597 -0.1252
  197DOPC   H5R24400   1.466   7.208  13.855  1.6011  0.7816 -0.8705
  197DOPC   H5S24401   1.368   7.103  13.758 -0.4648  0.3096 -1.1648
  197DOPC   C2624402   1.252   7.275  13.805  0.1039 -0.2763  0.5787
  197DOPC   H6R24403   1.175   7.215  13.752 -0.5638 -0.3592  1.6254
  197DOPC   H6S24404   1.256   7.381  13.770  0.7608 -0.5191 -0.1118
  197DOPC   C2724405   1.224   7.256  13.955  0.1564 -0.2923  0.8405
  197DOPC   H7R24406   1.306   7.305  14.012 -0.9798  3.4264 -0.3905
  197DOPC   H7S24407   1.216   7.149  13.982 -0.9440 -0.9643 -1.8406
  197DOPC   C2824408   1.105   7.336  14.001 -0.3101 -0.2319  0.0381
  197DOPC   H8R24409   1.122   7.441  13.969 -0.5123 -0.4278 -0.7311
  197DOPC   H8S24410   1.101   7.336  14.112 -0.7819  3.2116  0.1201
  197DOPC   C2924411   0.969   7.299  13.952 -0.0453  1.1552 -0.3377
  197DOPC   H9R24412   0.969   7.272  13.846  2.0647  0.6985 -0.2768
  197DOPC  C21024413   0.851   7.314  14.017 -0.3489 -0.2814  1.0619
  197DOPC  H10R24414   0.761   7.272  13.970 -0.9970 -1.4308  3.1863
  197DOPC  C21124415   0.835   7.384  14.149  0.1494  0.4774  0.4097
  197DOPC  H11R24416   0.819   7.489  14.117  1.3509  0.2911 -0.9427
  197DOPC  H11S24417   0.935   7.382  14.199 -0.0579  0.0573  0.8070
  197DOPC  C21224418   0.730   7.314  14.243  0.0281  0.1159  0.5628
  197DOPC  H12R24419   0.749   7.205  14.241  0.9051  0.2173  2.2089
  197DOPC  H12S24420   0.627   7.328  14.203  1.0469  1.5394 -1.7915
  197DOPC  C21324421   0.725   7.374  14.390  0.4007 -0.1426  0.3634
  197DOPC  H13R24422   0.714   7.484  14.375  4.3101  0.4338  0.7565
  197DOPC  H13S24423   0.825   7.348  14.431  1.3144  3.8925  1.1762
  197DOPC  C21424424   0.609   7.316  14.481 -0.1341  0.2896 -0.1125
  197DOPC  H14R24425   0.519   7.322  14.417  1.3594 -2.1673 -2.6736
  197DOPC  H14S24426   0.606   7.378  14.573  1.0846  0.2800 -0.0491
  197DOPC  C21524427   0.624   7.165  14.524  0.0445 -0.5493  0.9611
  197DOPC  H15R24428   0.721   7.157  14.578 -0.1697 -0.6199  1.3343
  197DOPC  H15S24429   0.631   7.121  14.422 -0.6993  0.0669  0.6359
  197DOPC  C21624430   0.500   7.114  14.597  0.2538 -0.0762  0.2566
  197DOPC  H16R24431   0.414   7.150  14.537  0.8885 -0.2961 -0.8108
  197DOPC  H16S24432   0.483   7.173  14.689  0.1512  1.2122 -0.5679
  197DOPC  C21724433   0.505   6.964  14.624  0.0470 -0.2227 -0.1195
  197DOPC  H17R24434   0.595   6.937  14.683  1.1662  1.2373 -1.0645
  197DOPC  H17S24435   0.535   6.903  14.536  2.0568 -1.1540  1.1399
  197DOPC  C21824436   0.385   6.916  14.693 -0.1912 -0.0326 -0.5360
  197DOPC  H18R24437   0.301   6.910  14.622 -0.9768 -1.7340  0.4683
  197DOPC  H18S24438   0.355   6.979  14.780 -1.5351 -0.0898 -0.9491
  197DOPC  H18T24439   0.404   6.812  14.729 -0.3748 -0.0385 -0.4610
  197DOPC   C3324440   2.318   7.251  13.123 -0.2092 -0.8009 -0.7218
  197DOPC   H3X24441   2.395   7.323  13.088 -2.4840  3.3597  1.9885
  197DOPC   H3Y24442   2.337   7.149  13.085  1.4616 -1.1638  0.9623
  197DOPC   C3424443   2.353   7.239  13.275 -0.6096 -0.0211  0.4719
  197DOPC   H4X24444   2.448   7.182  13.276 -0.1013  0.6233 -2.0632
  197DOPC   H4Y24445   2.278   7.182  13.334 -2.8268 -0.4436 -2.4905
  197DOPC   C3524446   2.375   7.376  13.344 -0.4094 -0.0951  0.0400
  197DOPC   H5X24447   2.286   7.443  13.346 -0.1013  0.3919 -1.3962
  197DOPC   H5Y24448   2.453   7.432  13.288 -1.3220 -0.4667 -1.6716
  197DOPC   C3624449   2.433   7.363  13.483  0.0975 -0.4947 -0.2973
  197DOPC   H6X24450   2.364   7.290  13.530 -0.7052 -1.0582 -2.2360
  197DOPC   H6Y24451   2.538   7.326  13.483  0.4637 -0.0270  4.3506
  197DOPC   C3724452   2.417   7.491  13.558 -0.6403  0.0734 -0.2341
  197DOPC   H7X24453   2.450   7.576  13.496  2.9780 -1.0246 -0.0128
  197DOPC   H7Y24454   2.308   7.513  13.570 -0.7079  0.4928 -1.5113
  197DOPC   C3824455   2.489   7.499  13.696 -0.1368  0.2819  0.5947
  197DOPC   H8X24456   2.471   7.599  13.742 -1.3821  0.0038  0.7509
  197DOPC   H8Y24457   2.598   7.498  13.675  0.1727  1.0599  2.0526
  197DOPC   C3924458   2.456   7.396  13.798  0.6240 -0.2147 -0.7416
  197DOPC   H9X24459   2.440   7.293  13.764  1.6779 -1.6345  2.6499
  197DOPC  C31024460   2.408   7.415  13.924  0.0448  0.0357  0.3588
  197DOPC  H10X24461   2.366   7.325  13.971 -0.4491  0.8075  1.4198
  197DOPC  C31124462   2.410   7.541  14.007 -0.4733  0.0052 -0.5472
  197DOPC  H11X24463   2.305   7.562  14.038 -0.0826  0.3976  0.5677
  197DOPC  H11Y24464   2.456   7.629  13.958 -0.8902  1.3827  1.4163
  197DOPC  C31224465   2.492   7.525  14.138  0.0708  0.3790  0.3418
  197DOPC  H12X24466   2.601   7.533  14.119 -0.3033  1.5718 -1.5089
  197DOPC  H12Y24467   2.485   7.423  14.183 -1.8389 -0.0295 -0.7380
  197DOPC  C31324468   2.443   7.620  14.250  1.0000 -0.2890  0.6493
  197DOPC  H13X24469   2.512   7.613  14.337  1.2815 -4.3388  0.3185
  197DOPC  H13Y24470   2.447   7.719  14.200  0.3288 -2.0321 -3.2540
  197DOPC  C31424471   2.297   7.601  14.299  0.3051  0.7983  0.3888
  197DOPC  H14X24472   2.231   7.638  14.217  0.0175  1.2499  0.8144
  197DOPC  H14Y24473   2.274   7.495  14.322  1.2496  0.6995  0.8840
  197DOPC  C31524474   2.277   7.687  14.428  0.3464 -0.4255  0.0614
  197DOPC  H15X24475   2.323   7.786  14.407 -0.6804 -0.3225 -1.8797
  197DOPC  H15Y24476   2.338   7.639  14.508  2.2280  0.4514 -0.8073
  197DOPC  C31624477   2.134   7.695  14.483  0.1376 -0.4144 -0.1552
  197DOPC  H16X24478   2.134   7.781  14.553  3.2696  0.3122 -0.9112
  197DOPC  H16Y24479   2.054   7.725  14.412 -0.2033  1.0180  0.7955
  197DOPC  C31724480   2.093   7.566  14.549  0.0060  0.1559  0.0932
  197DOPC  H17X24481   2.066   7.482  14.482 -0.5093  0.3160  0.0959
  197DOPC  H17Y24482   2.176   7.519  14.605  1.7797  1.1786 -1.5545
  197DOPC  C31824483   1.978   7.583  14.648  0.6838 -0.1514 -0.3214
  197DOPC  H18X24484   1.929   7.492  14.690  1.6902 -1.3583 -1.6290
  197DOPC  H18Y24485   2.005   7.659  14.724  1.7481 -0.4193 -0.4049
  197DOPC  H18Z24486   1.893   7.623  14.589  0.1347 -1.2636 -0.3042
  198DOPC     N24487   6.308   7.210  12.613  0.3074 -1.0080  0.3833
  198DOPC   C1224488   6.264   7.352  12.634  0.4765 -0.3680 -0.6846
  198DOPC  H12A24489   6.183   7.366  12.563 -0.9481 -0.7328  0.8046
  198DOPC  H12B24490   6.343   7.418  12.604  2.1870 -2.4253 -0.9131
  198DOPC   C1324491   6.347   7.186  12.474  0.1912  0.2803  0.2520
  198DOPC  H13A24492   6.265   7.209  12.408  0.0982 -0.4624  0.1049
  198DOPC  H13B24493   6.436   7.242  12.448  1.7780 -2.0838  0.3191
  198DOPC  H13C24494   6.389   7.088  12.461 -0.5148  0.0219 -0.1297
  198DOPC   C1424495   6.203   7.115  12.655  1.0393  1.1006 -0.6701
  198DOPC  H14A24496   6.164   7.133  12.754  0.6884 -1.0762 -0.3746
  198DOPC  H14B24497   6.112   7.139  12.603 -1.6917  0.0736  3.2001
  198DOPC  H14C24498   6.228   7.010  12.656  0.4770  0.8882  3.0338
  198DOPC   C1524499   6.427   7.190  12.702  0.1297  0.8801  0.3701
  198DOPC  H15A24500   6.517   7.241  12.672  0.2468  0.9082  0.7571
  198DOPC  H15B24501   6.466   7.090  12.711 -0.6227  0.7088  2.2725
  198DOPC  H15C24502   6.406   7.223  12.803  3.4421 -0.9176  1.8350
  198DOPC   C1124503   6.203   7.394  12.774  0.4581 -0.0696  0.3149
  198DOPC  H11A24504   6.165   7.496  12.757  1.3757  0.1318 -0.6401
  198DOPC  H11B24505   6.115   7.331  12.800  0.0223  1.2221  2.1849
  198DOPC     P24506   6.403   7.538  12.865  0.2709 -0.1038 -0.2538
  198DOPC   O1324507   6.360   7.632  12.758  0.1722  0.3235  0.4818
  198DOPC   O1424508   6.544   7.498  12.851  0.2452  0.4427  0.4481
  198DOPC   O1224509   6.312   7.400  12.869 -0.0186  0.0727 -0.2015
  198DOPC   O1124510   6.381   7.600  13.008 -0.1515  0.0065 -0.2401
  198DOPC    C124511   6.398   7.512  13.124  0.1831 -0.1677 -0.1861
  198DOPC    HA24512   6.476   7.543  13.197 -0.0822 -1.5429  0.7152
  198DOPC    HB24513   6.413   7.405  13.101 -3.1684 -0.8630  0.3618
  198DOPC    C224514   6.259   7.517  13.198  0.1870 -0.0797 -0.1263
  198DOPC    HS24515   6.191   7.486  13.115 -0.2801 -0.7097  0.4785
  198DOPC   O2124516   6.234   7.652  13.245 -0.3108  0.1654 -0.2532
  198DOPC   C2124517   6.101   7.684  13.234  0.0255  0.4365  0.2253
  198DOPC   O2224518   6.009   7.611  13.200  0.3274  0.6504 -0.5779
  198DOPC   C2224519   6.084   7.822  13.297  0.0267 -0.4260 -0.1147
  198DOPC   H2R24520   5.983   7.834  13.343 -0.8444  1.6177 -2.3494
  198DOPC   H2S24521   6.091   7.900  13.219  1.2872  1.5311  1.8427
  198DOPC    C324522   6.264   7.416  13.317 -0.8881  0.1140 -0.2862
  198DOPC    HX24523   6.340   7.453  13.389 -0.6091  0.1975 -0.6180
  198DOPC    HY24524   6.300   7.321  13.272 -2.2433 -1.4433  1.7085
  198DOPC   O3124525   6.147   7.388  13.397  0.1022  0.4792 -0.5636
  198DOPC   C3124526   6.060   7.314  13.331 -0.2437 -0.0211  0.2400
  198DOPC   O3224527   6.074   7.285  13.213  0.0106  0.1253  0.3526
  198DOPC   C3224528   5.950   7.284  13.426 -0.0520  0.4995  0.2075
  198DOPC   H2X24529   5.937   7.173  13.419  0.5500  0.3586  1.1768
  198DOPC   H2Y24530   5.983   7.304  13.530 -0.1660 -0.2706  0.4041
  198DOPC   C2324531   6.194   7.873  13.400  0.1077 -0.0077 -0.0764
  198DOPC   H3R24532   6.184   7.984  13.401 -0.3734 -0.0437  1.3181
  198DOPC   H3S24533   6.295   7.844  13.364 -0.6578 -0.1183 -2.2887
  198DOPC   C2424534   6.164   7.825  13.545  0.3797 -0.0245 -0.0825
  198DOPC   H4R24535   6.074   7.866  13.596 -0.0014 -0.3059 -0.5192
  198DOPC   H4S24536   6.246   7.857  13.612 -1.4379  1.0234  1.7929
  198DOPC   C2524537   6.142   7.675  13.541 -0.4155  0.7781  0.2732
  198DOPC   H5R24538   6.219   7.632  13.473 -1.1349  0.9480 -0.6641
  198DOPC   H5S24539   6.041   7.657  13.499 -0.7292 -0.3656  1.4193
  198DOPC   C2624540   6.155   7.606  13.684 -0.1844  0.9089 -0.3706
  198DOPC   H6R24541   6.262   7.617  13.709  0.0160  2.4400 -1.7069
  198DOPC   H6S24542   6.134   7.497  13.689 -0.0718  0.9371  0.9990
  198DOPC   C2724543   6.077   7.679  13.792 -0.3026 -0.2111 -0.2902
  198DOPC   H7R24544   5.972   7.643  13.785 -0.0854 -0.7333 -0.8591
  198DOPC   H7S24545   6.089   7.790  13.791 -0.4992 -0.1892 -1.2754
  198DOPC   C2824546   6.126   7.639  13.936  0.2192  0.5544  0.2376
  198DOPC   H8R24547   6.098   7.724  14.002 -1.9119  0.3847 -0.3832
  198DOPC   H8S24548   6.236   7.624  13.935  0.4867  2.3167 -0.2455
  198DOPC   C2924549   6.060   7.515  13.990 -0.5208  0.1231 -1.1154
  198DOPC   H9R24550   6.028   7.449  13.908  0.2354  0.3135 -1.5653
  198DOPC  C21024551   6.045   7.474  14.116  0.5506  0.2763 -0.7642
  198DOPC  H10R24552   6.002   7.375  14.140 -1.1773  1.5499  1.8841
  198DOPC  C21124553   6.101   7.553  14.235  0.3406  0.3489 -0.2844
  198DOPC  H11R24554   6.023   7.612  14.288 -1.7031 -1.1456 -1.4920
  198DOPC  H11S24555   6.182   7.623  14.206  0.4725  1.0685  1.6967
  198DOPC  C21224556   6.152   7.456  14.346  0.0905  0.5356  0.2684
  198DOPC  H12R24557   6.183   7.523  14.429 -0.1492  0.7868  0.1539
  198DOPC  H12S24558   6.248   7.412  14.313 -0.1811  0.1029  0.0443
  198DOPC  C21324559   6.050   7.353  14.409  0.1636 -0.2763  0.3976
  198DOPC  H13R24560   5.993   7.285  14.341  0.8837 -1.4345  0.9091
  198DOPC  H13S24561   5.975   7.418  14.459  0.7051  0.7953 -0.1694
  198DOPC  C21424562   6.116   7.271  14.523 -0.2951  0.1645  0.1454
  198DOPC  H14R24563   6.195   7.340  14.559  1.0945 -0.9312 -0.6886
  198DOPC  H14S24564   6.179   7.193  14.475  0.5805  1.5059 -0.9749
  198DOPC  C21524565   6.007   7.212  14.612  0.4898 -0.2300  0.1118
  198DOPC  H15R24566   5.920   7.184  14.547 -0.9238  1.6710  1.0827
  198DOPC  H15S24567   5.975   7.297  14.676  0.1535 -1.0464  1.0444
  198DOPC  C21624568   6.042   7.090  14.695 -0.3779  0.1209 -0.1461
  198DOPC  H16R24569   6.074   7.006  14.629  1.0402 -1.7370  2.7157
  198DOPC  H16S24570   5.954   7.055  14.753 -0.2964 -0.0039 -0.0968
  198DOPC  C21724571   6.160   7.114  14.791 -0.3332  0.1020 -0.9818
  198DOPC  H17R24572   6.246   7.153  14.732  1.2545  1.1319  1.8269
  198DOPC  H17S24573   6.198   7.014  14.820 -1.0261 -0.2384 -1.2066
  198DOPC  C21824574   6.120   7.208  14.908 -0.0697  0.9656  0.6291
  198DOPC  H18R24575   6.074   7.302  14.872  0.0035  1.2293  1.2230
  198DOPC  H18S24576   6.208   7.236  14.970 -1.5253 -0.3228  3.4534
  198DOPC  H18T24577   6.044   7.169  14.979  0.5335 -1.1451  0.1886
  198DOPC   C3324578   5.815   7.361  13.397  0.2132 -0.1128  0.0753
  198DOPC   H3X24579   5.780   7.310  13.304  0.1859 -1.2227  0.6863
  198DOPC   H3Y24580   5.829   7.470  13.381 -1.4767 -0.0063 -1.0117
  198DOPC   C3424581   5.708   7.340  13.501 -0.1179 -0.1036  0.2862
  198DOPC   H4X24582   5.704   7.231  13.521 -2.6038 -0.5048 -1.9191
  198DOPC   H4Y24583   5.606   7.368  13.467 -0.8733 -1.1671  1.5648
  198DOPC   C3524584   5.739   7.412  13.638  0.0787 -0.1978 -0.3919
  198DOPC   H5X24585   5.740   7.522  13.632 -0.7482  0.0559  2.7134
  198DOPC   H5Y24586   5.846   7.386  13.655  0.6565  0.9100 -2.0844
  198DOPC   C3624587   5.643   7.378  13.753  0.0366 -0.7276  0.0253
  198DOPC   H6X24588   5.547   7.422  13.719  0.2825 -2.1719 -2.7310
  198DOPC   H6Y24589   5.630   7.268  13.755 -0.0670 -0.7227  2.3912
  198DOPC   C3724590   5.673   7.425  13.897  0.7532  0.3360 -0.9005
  198DOPC   H7X24591   5.587   7.385  13.956  0.3810  1.4280 -0.6852
  198DOPC   H7Y24592   5.765   7.370  13.924 -2.0757 -4.0852  1.0007
  198DOPC   C3824593   5.675   7.582  13.919 -0.4190 -0.9271  0.2594
  198DOPC   H8X24594   5.758   7.618  13.854 -1.3247 -0.6859 -0.7876
  198DOPC   H8Y24595   5.709   7.595  14.024 -0.0628  0.1949  0.0176
  198DOPC   C3924596   5.538   7.656  13.892  0.0089 -0.1987 -0.3271
  198DOPC   H9X24597   5.508   7.694  13.793 -1.7367  1.2587  0.7143
  198DOPC  C31024598   5.444   7.681  13.981  0.1068  1.0307 -0.2220
  198DOPC  H10X24599   5.353   7.731  13.946 -0.9389 -1.4860 -1.3312
  198DOPC  C31124600   5.457   7.633  14.122  0.0453 -0.1842  0.2152
  198DOPC  H11X24601   5.496   7.529  14.128 -2.1514 -1.0587  0.2993
  198DOPC  H11Y24602   5.354   7.614  14.161  1.0923 -3.0936  1.9516
  198DOPC  C31224603   5.553   7.710  14.211  0.1790 -0.4177 -0.0174
  198DOPC  H12X24604   5.511   7.808  14.242 -0.3753 -0.5601 -0.3026
  198DOPC  H12Y24605   5.641   7.745  14.152 -1.1597  1.7866 -0.8672
  198DOPC  C31324606   5.582   7.641  14.347  0.0657  0.2944  0.4435
  198DOPC  H13X24607   5.485   7.616  14.393 -0.2551  0.2487 -0.2453
  198DOPC  H13Y24608   5.636   7.546  14.326  0.0754 -0.5653  3.8260
  198DOPC  C31424609   5.665   7.722  14.441  0.5231  0.0865  0.0202
  198DOPC  H14X24610   5.762   7.749  14.395 -0.1137 -1.3344 -2.3428
  198DOPC  H14Y24611   5.617   7.822  14.442  3.2709  1.4981 -1.0426
  198DOPC  C31524612   5.668   7.655  14.576 -0.5815  0.7509  0.4434
  198DOPC  H15X24613   5.756   7.589  14.591 -0.6781  0.4072 -0.4336
  198DOPC  H15Y24614   5.579   7.589  14.584 -0.6227  1.0359  3.6274
  198DOPC  C31624615   5.661   7.749  14.694 -0.1583 -0.0428  0.2015
  198DOPC  H16X24616   5.757   7.801  14.717 -0.1756 -0.1777  0.5953
  198DOPC  H16Y24617   5.585   7.828  14.676  1.6794  1.5149 -1.1239
  198DOPC  C31724618   5.636   7.659  14.815  0.6188 -0.1693 -0.1425
  198DOPC  H17X24619   5.544   7.600  14.792 -0.0033  0.1830  1.2914
  198DOPC  H17Y24620   5.716   7.583  14.827  0.0972 -0.7158 -0.0755
  198DOPC  C31824621   5.614   7.744  14.940 -0.0462 -0.5261  0.3814
  198DOPC  H18X24622   5.538   7.825  14.939  0.8058  0.2853  0.0273
  198DOPC  H18Y24623   5.592   7.680  15.028  2.7557 -0.9476  0.8660
  198DOPC  H18Z24624   5.706   7.802  14.959 -0.7124  0.4895  0.6128
  199DOPC     N24625   6.358   0.610  12.392 -0.0616  0.4086 -1.0188
  199DOPC   C1224626   6.296   0.484  12.461 -0.4151 -0.7211 -0.4205
  199DOPC  H12A24627   6.321   0.397  12.403 -1.1358 -0.7779 -0.6479
  199DOPC  H12B24628   6.190   0.502  12.461 -0.1738  0.8610  0.0254
  199DOPC   C1324629   6.292   0.627  12.257 -0.3411  0.2141 -0.2477
  199DOPC  H13A24630   6.331   0.712  12.203  2.8598  0.0316  1.4738
  199DOPC  H13B24631   6.295   0.538  12.197 -1.7090 -0.6328  0.8753
  199DOPC  H13C24632   6.186   0.644  12.269 -0.1024  1.7083  0.0129
  199DOPC   C1424633   6.506   0.587  12.372 -0.5046  0.1935 -0.3678
  199DOPC  H14A24634   6.556   0.558  12.463 -1.5511  1.3709  0.6295
  199DOPC  H14B24635   6.514   0.526  12.284  0.0182 -2.2784  1.3009
  199DOPC  H14C24636   6.568   0.673  12.352  1.3817 -0.9943  0.1452
  199DOPC   C1524637   6.326   0.727  12.474  0.5118  0.3384  0.3151
  199DOPC  H15A24638   6.219   0.715  12.484  0.5181 -1.0950 -1.0318
  199DOPC  H15B24639   6.340   0.818  12.418 -1.4096  0.2646 -0.3499
  199DOPC  H15C24640   6.385   0.750  12.562 -1.4120 -1.1864  2.1036
  199DOPC   C1124641   6.350   0.445  12.601  0.3647  0.6851  0.6361
  199DOPC  H11A24642   6.319   0.523  12.674 -0.5812  1.8702 -0.9586
  199DOPC  H11B24643   6.301   0.351  12.633 -1.9588  1.7433  0.4095
  199DOPC     P24644   6.588   0.482  12.708  0.2705 -0.0799 -0.2111
  199DOPC   O1324645   6.636   0.619  12.682  0.1501  0.2337  0.8642
  199DOPC   O1424646   6.696   0.381  12.714 -0.1041  0.5496  0.0131
  199DOPC   O1224647   6.493   0.438  12.598  0.1298 -0.1226 -0.5768
  199DOPC   O1124648   6.497   0.480  12.843 -1.0000  0.5146  0.0729
  199DOPC    C124649   6.481   0.603  12.916  0.2338  0.3900 -0.7084
  199DOPC    HA24650   6.378   0.604  12.957  0.4143  1.3005 -0.2739
  199DOPC    HB24651   6.487   0.696  12.856 -0.1427  0.1017 -1.1999
  199DOPC    C224652   6.583   0.610  13.033  0.3349  0.0287 -0.5120
  199DOPC    HS24653   6.669   0.551  12.995  0.5585  0.6965 -1.0563
  199DOPC   O2124654   6.516   0.560  13.150 -0.6991 -0.1063  0.0022
  199DOPC   C2124655   6.590   0.513  13.252 -0.3337  0.8543 -0.2200
  199DOPC   O2224656   6.713   0.507  13.250  0.2770 -0.5154 -0.6418
  199DOPC   C2224657   6.505   0.439  13.348  0.8705 -0.3606  0.1681
  199DOPC   H2R24658   6.512   0.329  13.344 -0.6918 -0.5225  1.0633
  199DOPC   H2S24659   6.401   0.454  13.311  0.4149 -0.5580  1.3300
  199DOPC    C324660   6.642   0.751  13.052  0.7854  0.0444 -0.1372
  199DOPC    HX24661   6.702   0.770  12.961  0.7813 -0.2524 -0.2030
  199DOPC    HY24662   6.717   0.756  13.134 -0.5274  1.5373  1.0336
  199DOPC   O3124663   6.540   0.851  13.056  0.6563  0.2430  0.2869
  199DOPC   C3124664   6.460   0.856  13.157  1.1453  0.1372 -0.3267
  199DOPC   O3224665   6.468   0.789  13.258 -0.8165 -0.5915 -0.0899
  199DOPC   C3224666   6.349   0.955  13.134  0.2328  0.0986  0.1541
  199DOPC   H2X24667   6.396   1.051  13.103  0.2644 -0.0610 -0.2968
  199DOPC   H2Y24668   6.275   0.912  13.063  0.5308 -0.9934  0.4847
  199DOPC   C2324669   6.510   0.494  13.495 -0.6445  0.5589 -0.2004
  199DOPC   H3R24670   6.523   0.605  13.491 -1.2503  0.6660  0.5248
  199DOPC   H3S24671   6.602   0.456  13.543 -0.7531  0.0334 -0.4001
  199DOPC   C2424672   6.392   0.465  13.591  0.9320  0.1793  0.9811
  199DOPC   H4R24673   6.369   0.356  13.601  2.8051 -0.4371 -0.8354
  199DOPC   H4S24674   6.298   0.511  13.553  0.0805 -0.2905  2.4123
  199DOPC   C2524675   6.419   0.535  13.730  0.5076  0.0394 -0.1510
  199DOPC   H5R24676   6.443   0.639  13.698  2.0946 -0.0275  0.7315
  199DOPC   H5S24677   6.508   0.498  13.784  1.1380  0.9461 -0.5315
  199DOPC   C2624678   6.305   0.551  13.831 -0.1836 -0.1822  1.0529
  199DOPC   H6R24679   6.210   0.571  13.778  0.1158  1.3259  1.0280
  199DOPC   H6S24680   6.325   0.636  13.900 -0.3600 -0.7939  1.8693
  199DOPC   C2724681   6.285   0.423  13.919  0.1245 -0.2199  0.1544
  199DOPC   H7R24682   6.291   0.335  13.851  0.5347 -0.0263 -0.0631
  199DOPC   H7S24683   6.184   0.427  13.966  0.3496  2.4515  0.5778
  199DOPC   C2824684   6.389   0.402  14.026 -0.0761  0.0610  0.2343
  199DOPC   H8R24685   6.486   0.376  13.979  1.5241  2.2603  2.0780
  199DOPC   H8S24686   6.365   0.317  14.094 -2.4124  0.5743  0.1357
  199DOPC   C2924687   6.411   0.520  14.114 -0.4290  0.2076  0.7294
  199DOPC   H9R24688   6.324   0.587  14.125 -1.1227 -0.8024  1.6089
  199DOPC  C21024689   6.517   0.532  14.200  0.9468 -0.0573  0.8088
  199DOPC  H10R24690   6.532   0.625  14.257 -0.3400  0.5714  0.1765
  199DOPC  C21124691   6.616   0.422  14.229 -1.2655 -0.2140  0.4951
  199DOPC  H11R24692   6.580   0.327  14.183 -1.7768 -0.9981  2.4210
  199DOPC  H11S24693   6.625   0.412  14.339  3.4310 -1.4467  0.2002
  199DOPC  C21224694   6.756   0.452  14.172  0.3384  0.4315 -0.2714
  199DOPC  H12R24695   6.744   0.470  14.063 -0.6058  2.8747  0.1740
  199DOPC  H12S24696   6.814   0.358  14.181  0.3348  0.5410  0.9783
  199DOPC  C21324697   6.846   0.550  14.248  0.0955 -0.0625  1.1369
  199DOPC  H13R24698   6.806   0.651  14.225 -1.6512 -1.3247 -1.9415
  199DOPC  H13S24699   6.948   0.546  14.204 -0.5998  2.2766 -0.8979
  199DOPC  C21424700   6.850   0.535  14.392 -0.0030  0.1924 -0.4383
  199DOPC  H14R24701   6.876   0.430  14.415 -1.6528 -0.7334 -2.4664
  199DOPC  H14S24702   6.752   0.550  14.443  0.2807 -0.9803  0.4978
  199DOPC  C21524703   6.953   0.628  14.456 -0.6426  0.0903  0.0115
  199DOPC  H15R24704   6.917   0.733  14.448 -0.6712 -0.0260 -2.0159
  199DOPC  H15S24705   7.039   0.640  14.387 -2.4479  1.8132 -2.1051
  199DOPC  C21624706   6.980   0.609  14.609 -0.8272  0.2266 -0.4259
  199DOPC  H16R24707   7.037   0.518  14.636  1.7526  1.8155 -0.2542
  199DOPC  H16S24708   6.881   0.605  14.659  0.1783  0.6229  1.6960
  199DOPC  C21724709   7.048   0.724  14.683 -0.3979  0.4091  0.0548
  199DOPC  H17R24710   6.987   0.815  14.703 -0.5864 -0.2275  2.8009
  199DOPC  H17S24711   7.139   0.751  14.625 -0.2930  0.6737  0.3420
  199DOPC  C21824712   7.103   0.663  14.823 -0.1430  0.6794 -0.0578
  199DOPC  H18R24713   7.012   0.626  14.874 -0.4365  1.5600  0.0602
  199DOPC  H18S24714   7.158   0.732  14.890  0.1771  0.7967 -0.4428
  199DOPC  H18T24715   7.175   0.580  14.806 -0.5078  0.7229 -2.0524
  199DOPC   C3324716   6.279   0.977  13.275  0.0747 -0.5227 -0.3418
  199DOPC   H3X24717   6.355   1.006  13.351 -0.0381 -0.6985 -0.1604
  199DOPC   H3Y24718   6.238   0.876  13.298 -1.4369 -0.9284 -4.1199
  199DOPC   C3424719   6.169   1.081  13.267 -0.7242  0.6455  0.3077
  199DOPC   H4X24720   6.070   1.037  13.244  0.3770 -1.8349  0.0336
  199DOPC   H4Y24721   6.204   1.149  13.186  0.9852  1.2875  1.5185
  199DOPC   C3524722   6.154   1.155  13.395 -0.1309  0.2888 -0.2251
  199DOPC   H5X24723   6.249   1.202  13.429  0.3328 -0.3516 -0.6086
  199DOPC   H5Y24724   6.121   1.093  13.481  1.4505 -2.0274 -1.2003
  199DOPC   C3624725   6.054   1.276  13.372 -1.1551  0.1092 -0.0819
  199DOPC   H6X24726   6.088   1.359  13.438  0.7839 -0.3779 -0.4097
  199DOPC   H6Y24727   6.061   1.309  13.266 -1.4673  0.6975  0.0786
  199DOPC   C3724728   5.912   1.254  13.415 -0.3746 -0.6101 -0.1064
  199DOPC   H7X24729   5.866   1.352  13.388 -0.0177  0.4048  2.6210
  199DOPC   H7Y24730   5.862   1.174  13.356 -2.5044  0.2326  0.4381
  199DOPC   C3824731   5.886   1.232  13.571  0.5563  1.2002 -0.1172
  199DOPC   H8X24732   5.949   1.146  13.604  0.2233  0.9035 -0.2463
  199DOPC   H8Y24733   5.782   1.196  13.583  0.7768 -1.0902 -3.4976
  199DOPC   C3924734   5.923   1.363  13.640  0.4832 -0.0375 -0.1164
  199DOPC   H9X24735   5.891   1.453  13.587  0.3217 -0.2622 -0.4072
  199DOPC  C31024736   5.969   1.380  13.772 -0.4854  0.2527  0.5078
  199DOPC  H10X24737   5.989   1.480  13.812  0.4064 -0.5593  2.2086
  199DOPC  C31124738   5.992   1.266  13.869  0.7039 -0.0312  0.0466
  199DOPC  H11X24739   5.927   1.176  13.863 -1.6851  1.4868  1.2864
  199DOPC  H11Y24740   5.983   1.291  13.977  1.8880 -0.9709  0.3870
  199DOPC  C31224741   6.137   1.222  13.867 -0.5040  0.2730 -0.1350
  199DOPC  H12X24742   6.168   1.187  13.767 -0.3726 -0.8805  0.2879
  199DOPC  H12Y24743   6.153   1.134  13.934  0.2063 -0.1235 -0.8184
  199DOPC  C31324744   6.236   1.332  13.906  0.4058 -0.2395 -0.1015
  199DOPC  H13X24745   6.335   1.285  13.891  1.1640  0.8072  1.3086
  199DOPC  H13Y24746   6.226   1.422  13.841 -0.2823 -0.1071  0.1748
  199DOPC  C31424747   6.232   1.383  14.055 -0.0077 -0.2011  0.6834
  199DOPC  H14X24748   6.152   1.459  14.069  1.9056  2.1046 -0.1577
  199DOPC  H14Y24749   6.220   1.294  14.120  2.1652  0.0943  1.5871
  199DOPC  C31524750   6.360   1.460  14.098  0.5892 -1.0584 -0.0280
  199DOPC  H15X24751   6.383   1.543  14.028  0.1540 -0.5730  0.3962
  199DOPC  H15Y24752   6.442   1.385  14.092 -0.4622 -2.1424 -2.0686
  199DOPC  C31624753   6.349   1.513  14.246  0.2944  0.0804  0.1251
  199DOPC  H16X24754   6.243   1.538  14.267  0.0758 -0.1166 -0.6923
  199DOPC  H16Y24755   6.369   1.427  14.314 -4.6447 -0.6014  1.1030
  199DOPC  C31724756   6.448   1.625  14.287  0.3924 -0.6650  0.0775
  199DOPC  H17X24757   6.548   1.581  14.271 -0.7241 -3.1075 -0.6469
  199DOPC  H17Y24758   6.438   1.716  14.225 -2.2227  0.1599  1.5216
  199DOPC  C31824759   6.431   1.671  14.436  0.4556 -0.7881 -0.0907
  199DOPC  H18X24760   6.331   1.716  14.455  0.4498 -0.7573 -0.1991
  199DOPC  H18Y24761   6.448   1.583  14.502  0.6660 -0.7085 -0.0404
  199DOPC  H18Z24762   6.510   1.742  14.466 -0.3014 -0.1976  0.5551
  200DOPC     N24763   0.753   0.494  12.673  0.0072  0.0865  0.0161
  200DOPC   C1224764   0.740   0.554  12.805  0.6182 -1.0783 -0.5170
  200DOPC  H12A24765   0.839   0.588  12.830  0.2243 -0.3402  0.0643
  200DOPC  H12B24766   0.717   0.487  12.887  1.9923  0.1016  0.8863
  200DOPC   C1324767   0.811   0.597  12.580  0.7729  0.7377 -0.1326
  200DOPC  H13A24768   0.894   0.631  12.641  0.5829  2.1354 -0.6309
  200DOPC  H13B24769   0.838   0.561  12.482 -1.4653  0.7535 -0.8090
  200DOPC  H13C24770   0.741   0.677  12.563  2.1092  1.8555 -0.5156
  200DOPC   C1424771   0.631   0.438  12.617 -0.4061 -0.0233 -0.1754
  200DOPC  H14A24772   0.562   0.519  12.600 -0.8765 -0.2350  0.6901
  200DOPC  H14B24773   0.651   0.389  12.523 -0.6003 -2.0078  0.7829
  200DOPC  H14C24774   0.593   0.358  12.677 -4.0798  0.5914 -1.4682
  200DOPC   C1524775   0.844   0.376  12.679  0.4064 -0.0890 -0.2282
  200DOPC  H15A24776   0.793   0.301  12.738  0.6594 -0.0868 -0.0012
  200DOPC  H15B24777   0.936   0.407  12.727  0.6629 -1.1989  0.0288
  200DOPC  H15C24778   0.864   0.335  12.581  1.0703  0.1708 -0.2097
  200DOPC   C1124779   0.641   0.673  12.826 -0.5334 -0.6827  0.2333
  200DOPC  H11A24780   0.669   0.711  12.927 -0.9444  0.6061 -0.1220
  200DOPC  H11B24781   0.659   0.765  12.768  1.4702  0.2836  2.2177
  200DOPC     P24782   0.441   0.554  12.913 -0.0082  0.4358 -0.1837
  200DOPC   O1324783   0.484   0.417  12.891  0.0428 -0.0809 -0.1060
  200DOPC   O1424784   0.297   0.567  12.909  0.6269  0.0479  0.3933
  200DOPC   O1224785   0.500   0.641  12.811 -0.0972 -0.2239 -0.3384
  200DOPC   O1124786   0.492   0.601  13.055  0.4557  0.3928  0.0823
  200DOPC    C124787   0.441   0.724  13.109  0.5354 -0.7309 -0.8685
  200DOPC    HA24788   0.350   0.712  13.171  0.8972 -1.7329 -0.5081
  200DOPC    HB24789   0.423   0.802  13.032 -0.5013 -0.8217 -0.7294
  200DOPC    C224790   0.550   0.784  13.200 -0.1584  0.4747  1.1040
  200DOPC    HS24791   0.646   0.760  13.150  0.4094 -1.2397  2.8513
  200DOPC   O2124792   0.537   0.722  13.337  0.6055  0.0507  0.7214
  200DOPC   C2124793   0.657   0.702  13.385 -0.7940 -0.1872  0.4182
  200DOPC   O2224794   0.762   0.724  13.323  0.0500 -0.2593 -0.2142
  200DOPC   C2224795   0.652   0.641  13.521 -0.4520 -0.6491  0.3797
  200DOPC   H2R24796   0.675   0.533  13.509 -1.2787 -0.6622 -1.3246
  200DOPC   H2S24797   0.548   0.654  13.557 -1.0770 -0.2696 -1.4485
  200DOPC    C324798   0.529   0.932  13.211 -0.1788 -0.0767  0.2870
  200DOPC    HX24799   0.422   0.941  13.238 -0.3140  1.3668 -0.6073
  200DOPC    HY24800   0.546   0.974  13.110 -1.2734 -1.7996 -0.6625
  200DOPC   O3124801   0.608   0.993  13.315  0.3322 -0.0067  0.6200
  200DOPC   C3124802   0.728   1.026  13.275  0.2179 -1.1750 -0.2435
  200DOPC   O3224803   0.763   1.026  13.157 -0.1041  0.1246 -0.2306
  200DOPC   C3224804   0.825   1.083  13.380  0.2846  0.3798  0.2653
  200DOPC   H2X24805   0.853   1.185  13.344  2.8442 -1.3781 -3.2850
  200DOPC   H2Y24806   0.772   1.091  13.477 -1.1257 -0.5585 -0.3873
  200DOPC   C2324807   0.754   0.683  13.627  0.1561 -1.0618 -0.5349
  200DOPC   H3R24808   0.754   0.793  13.638 -1.4642 -1.2582  2.1599
  200DOPC   H3S24809   0.855   0.639  13.617  0.1622 -0.6830 -2.6044
  200DOPC   C2424810   0.715   0.617  13.764  0.1568 -0.0036  0.1844
  200DOPC   H4R24811   0.689   0.511  13.746  2.9787 -1.0815  1.8529
  200DOPC   H4S24812   0.622   0.663  13.806 -0.0665  1.1872 -1.4871
  200DOPC   C2524813   0.834   0.620  13.868  0.2518  0.1419 -0.0145
  200DOPC   H5R24814   0.894   0.712  13.856  2.3850 -1.3540 -1.6946
  200DOPC   H5S24815   0.908   0.544  13.834  2.0165  1.4541  0.7774
  200DOPC   C2624816   0.781   0.594  14.011 -0.9356 -0.2406  0.3748
  200DOPC   H6R24817   0.721   0.500  14.014  1.1438 -1.6375  0.3499
  200DOPC   H6S24818   0.727   0.681  14.053  0.2687  0.0231  1.4071
  200DOPC   C2724819   0.906   0.581  14.101 -0.1065  0.0016  0.0875
  200DOPC   H7R24820   0.953   0.682  14.105 -1.2961  0.6036 -0.5263
  200DOPC   H7S24821   0.972   0.505  14.053  0.9784  1.4547 -0.8272
  200DOPC   C2824822   0.877   0.537  14.244  0.2283 -0.0204  0.0412
  200DOPC   H8R24823   0.826   0.440  14.227  0.2447 -0.3397  1.6290
  200DOPC   H8S24824   0.803   0.597  14.301  0.7690 -1.6580  2.6517
  200DOPC   C2924825   1.008   0.508  14.318  0.6695 -0.7690 -0.1332
  200DOPC   H9R24826   1.076   0.439  14.266  3.6201  0.4451  1.8914
  200DOPC  C21024827   1.058   0.602  14.403  0.3433  0.4080 -0.2058
  200DOPC  H10R24828   1.156   0.594  14.454 -0.3102  1.4085  1.3100
  200DOPC  C21124829   0.987   0.724  14.455  0.4397 -0.1082  0.5988
  200DOPC  H11R24830   0.878   0.704  14.462  0.0315  2.0269  0.8935
  200DOPC  H11S24831   0.990   0.813  14.389  0.3760  1.5134  2.6896
  200DOPC  C21224832   1.033   0.771  14.595 -0.7364 -1.2503 -0.0189
  200DOPC  H12R24833   1.144   0.778  14.596 -0.6701 -2.1055 -0.1591
  200DOPC  H12S24834   1.021   0.705  14.684  0.2468  1.2182  2.0702
  200DOPC  C21324835   0.980   0.908  14.631 -0.1921 -0.1141 -0.5141
  200DOPC  H13R24836   0.878   0.879  14.664 -0.3881  0.9932 -0.1151
  200DOPC  H13S24837   0.967   0.970  14.540 -0.2934 -0.8571 -1.0157
  200DOPC  C21424838   1.042   0.980  14.754 -0.1683 -0.0830 -0.2922
  200DOPC  H14R24839   1.152   0.981  14.734  0.3276 -1.3604  2.0242
  200DOPC  H14S24840   1.036   0.920  14.847  1.5262  1.1755  0.6836
  200DOPC  C21524841   0.970   1.110  14.783  0.7578 -0.5664  0.6979
  200DOPC  H15R24842   0.866   1.092  14.819  1.3381 -0.8884  2.2920
  200DOPC  H15S24843   0.960   1.170  14.691  0.3461 -2.2470 -0.4009
  200DOPC  C21624844   1.046   1.202  14.881 -0.3815 -0.2430 -0.6066
  200DOPC  H16R24845   1.141   1.233  14.833 -0.9163 -1.5359 -2.6263
  200DOPC  H16S24846   1.077   1.152  14.976  0.9571 -0.0920 -0.9366
  200DOPC  C21724847   0.964   1.327  14.920 -0.8125  0.1834 -0.2295
  200DOPC  H17R24848   0.992   1.366  15.020 -1.8984 -1.2594  0.6712
  200DOPC  H17S24849   0.862   1.290  14.944 -1.4674  0.5551 -2.2104
  200DOPC  C21824850   0.973   1.437  14.818  0.4272 -0.5509  0.4674
  200DOPC  H18R24851   0.922   1.419  14.721  1.0797 -0.8103  0.1654
  200DOPC  H18S24852   1.078   1.473  14.812 -0.6193  2.6725 -0.5318
  200DOPC  H18T24853   0.922   1.531  14.850  1.9787 -0.2056  2.0631
  200DOPC   C3324854   0.955   1.003  13.383  0.2049 -0.2961 -0.4620
  200DOPC   H3X24855   1.012   1.007  13.287 -0.8294  0.1809 -1.0629
  200DOPC   H3Y24856   0.939   0.896  13.410 -1.0324 -0.3794 -1.4463
  200DOPC   C3424857   1.045   1.056  13.504 -0.9193  0.1588  0.5834
  200DOPC   H4X24858   1.076   1.162  13.495  1.2991 -0.5616 -1.1513
  200DOPC   H4Y24859   1.144   1.008  13.488  0.3509  2.4789  1.0979
  200DOPC   C3524860   0.996   1.001  13.638  0.2914 -0.1599  0.1454
  200DOPC   H5X24861   0.982   0.891  13.637 -0.9593 -0.0462  1.0946
  200DOPC   H5Y24862   0.896   1.049  13.648  0.1312 -0.3473 -0.5296
  200DOPC   C3624863   1.088   1.057  13.749  0.0516  0.1127  0.2023
  200DOPC   H6X24864   1.193   1.022  13.745 -0.6076 -2.1535  1.0165
  200DOPC   H6Y24865   1.086   1.167  13.736  2.0031  0.0420 -1.0118
  200DOPC   C3724866   1.033   1.003  13.881 -0.5779 -0.8073  0.0664
  200DOPC   H7X24867   0.923   1.017  13.870 -0.4434 -0.7237 -1.3373
  200DOPC   H7Y24868   1.048   0.894  13.899  1.1456 -0.4698  0.8031
  200DOPC   C3824869   1.091   1.072  14.008  0.2044 -0.2000 -0.0091
  200DOPC   H8X24870   1.028   1.045  14.095  0.7687  2.7741  1.4647
  200DOPC   H8Y24871   1.071   1.181  13.993 -2.4820 -0.7525 -0.9544
  200DOPC   C3924872   1.237   1.054  14.031 -0.0579  0.5223 -0.0138
  200DOPC   H9X24873   1.305   1.107  13.962 -1.6953  1.2251 -1.1451
  200DOPC  C31024874   1.297   0.992  14.135 -0.0303  0.1835 -0.4081
  200DOPC  H10X24875   1.406   0.993  14.147 -0.0506  0.3881 -0.2442
  200DOPC  C31124876   1.225   0.932  14.257 -0.3047  0.0283 -0.2331
  200DOPC  H11X24877   1.275   0.834  14.274 -0.0389  0.0587 -0.7959
  200DOPC  H11Y24878   1.116   0.915  14.245 -0.1276 -0.9088 -0.6279
  200DOPC  C31224879   1.241   1.024  14.377  0.2489 -0.2549 -0.6568
  200DOPC  H12X24880   1.178   0.988  14.461  0.8679  0.1785  0.0019
  200DOPC  H12Y24881   1.203   1.124  14.347 -0.3020 -0.1979  0.1965
  200DOPC  C31324882   1.383   1.026  14.435 -0.6481  0.0174  0.2540
  200DOPC  H13X24883   1.451   1.062  14.355  1.9710 -2.8649  0.9551
  200DOPC  H13Y24884   1.391   1.090  14.525 -1.5843  0.1195  0.2699
  200DOPC  C31424885   1.448   0.889  14.480  0.2176  0.4489 -0.5862
  200DOPC  H14X24886   1.399   0.842  14.568  3.0087  2.0602  2.0155
  200DOPC  H14Y24887   1.448   0.810  14.401  0.3300  0.5965 -0.7356
  200DOPC  C31524888   1.586   0.924  14.527 -0.6967  0.4286  0.4395
  200DOPC  H15X24889   1.590   1.012  14.595 -0.0991  1.6639 -1.1387
  200DOPC  H15Y24890   1.646   0.942  14.436 -0.4886 -2.4775 -0.0941
  200DOPC  C31624891   1.637   0.801  14.606 -1.0741 -0.3118 -0.3662
  200DOPC  H16X24892   1.557   0.748  14.661 -1.6762  1.4575  0.5349
  200DOPC  H16Y24893   1.670   0.724  14.533  0.2351  0.8706 -1.0940
  200DOPC  C31724894   1.757   0.824  14.701  0.1845 -0.7459  0.6462
  200DOPC  H17X24895   1.824   0.899  14.654 -1.8100  0.4715 -0.3958
  200DOPC  H17Y24896   1.716   0.864  14.796  0.5063  1.9188 -0.2730
  200DOPC  C31824897   1.815   0.686  14.718 -0.0891 -0.0676 -0.4880
  200DOPC  H18X24898   1.859   0.649  14.623  1.2807  1.6140 -0.5495
  200DOPC  H18Y24899   1.887   0.689  14.803  0.0884  0.9443 -0.6668
  200DOPC  H18Z24900   1.727   0.621  14.737  0.8105 -0.8460  1.2470
  201SOD    SOD24901   0.321   4.766  17.254 -0.6542  0.0029 -0.3562
  202SOD    SOD24902   7.048   4.325  12.007  0.0593 -0.0367  0.0744
  203SOD    SOD24903   7.575   1.936  16.925  0.0189 -0.0531  0.0688
  204SOD    SOD24904   1.900   0.877  12.056 -0.2531  0.3209  0.2815
  205SOD    SOD24905   3.865   3.685  16.921  0.2871  0.3999 -0.2009
  206SOD    SOD24906   1.936   4.099  12.015 -0.4592  0.3214  0.3637
  207SOD    SOD24907   1.047   7.025  12.323 -0.4453  0.1833  0.6751
  208SOD    SOD24908   4.553   0.547  17.039  0.3176  0.6589  0.2830
  209SOD    SOD24909   1.303   2.503  11.667 -0.0584  0.1740 -0.5264
  210SOD    SOD24910   4.249   4.962  17.811 -0.1068  0.3906  0.2832
  211SOD    SOD24911   4.131   7.321  17.274  0.6119 -0.4128 -0.6597
  212SOD    SOD24912   7.422   3.369  18.859  0.0473 -0.2664 -0.3029
  213SOD    SOD24913   6.792   0.779  11.244 -0.2308  0.0980 -0.2589
  214SOD    SOD24914   7.049   6.976  18.438 -0.2860  0.1110  0.2665
  215SOD    SOD24915   0.650   6.210  17.321 -0.4080  0.0210  0.1796
  216SOD    SOD24916   1.501   6.484  16.623  0.2091  0.2300 -0.4403
  217SOD    SOD24917   3.219   3.794  12.107 -0.0713 -0.2981  0.4817
  218SOD    SOD24918   2.479   1.080  17.913 -0.4203  0.4822 -0.0438
  219SOD    SOD24919   1.084   2.108  16.988 -0.0055  0.3658  0.1077
  220SOD    SOD24920   3.982   5.248  11.164  0.0396  0.0757  0.2185
  221SOD    SOD24921   0.818   6.817  11.450  0.6775 -0.2088 -0.5509
  222SOD    SOD24922   6.423   5.724  17.147  0.0160  0.1446 -0.0956
  223SOD    SOD24923   1.984   5.278  12.243 -0.3994 -0.1595 -0.3135
  224SOD    SOD24924   6.585   2.634  12.255 -0.2584  0.0276 -0.5387
  225SOD    SOD24925   4.993   7.612  12.621  0.1109  0.1895 -0.1945
  226SOD    SOD24926   4.704   1.030  18.497 -0.2339  0.0397  0.0056
  227CLA    CLA24927   6.326   3.454  11.985  0.6088  0.1491 -0.1403
  228CLA    CLA24928   7.669   4.048  12.014 -0.5244 -0.2927 -0.0391
  229CLA    CLA24929   4.975   0.598  12.010  0.4358 -0.0889 -0.5184
  230CLA    CLA24930   7.227   4.545  17.850  0.1991  0.4620  0.0860
  231CLA    CLA24931   4.897   6.121  18.097 -0.0396 -0.0244  0.4252
  232CLA    CLA24932   0.969   2.011  17.440 -0.0696  0.2786  0.4060
  233CLA    CLA24933   0.092   3.008  17.742 -0.1651  0.1169 -0.3960
  234CLA    CLA24934   3.773   5.835  18.340  0.2802  0.0921  0.3887
  235CLA    CLA24935   5.079   3.901  10.734 -0.2121  0.2144 -0.2660
  236CLA    CLA24936   2.733   2.319  18.068  0.2927 -0.0213 -0.1372
  237CLA    CLA24937   4.700   2.233  17.610 -0.0927 -0.0819  0.6405
  238CLA    CLA24938   3.131   1.271  10.879 -0.1453  0.3258  0.2501
  239CLA    CLA24939   3.304   4.694  11.767 -0.2902  0.1478  0.0912
  240CLA    CLA24940   5.824   0.462  18.359 -0.2670  0.3189  0.1874
  241CLA    CLA24941   4.446   5.718  11.410 -0.2199 -0.5603  0.1474
  242CLA    CLA24942   2.022   1.162  17.986 -0.1014 -0.4929  0.2234
  243CLA    CLA24943   1.974   0.730  11.823 -0.1938 -0.0592  0.0446
  244CLA    CLA24944   0.934   2.588  11.021  0.1187 -0.2762  0.0710
  245CLA    CLA24945   6.062   1.505  12.225  0.2201 -0.1805 -0.0111
  246CLA    CLA24946   7.019   6.343  18.207  0.0952 -0.5389 -0.2432
  247CLA    CLA24947   3.948   5.930  12.397 -0.4757 -0.0415 -0.0294
  248CLA    CLA24948   4.216   3.881  11.663 -0.1128  0.0986 -0.3586
  249CLA    CLA24949   2.278   5.365  11.228  0.0609 -0.0348  0.3199
  250CLA    CLA24950   5.482   2.480  18.824  0.2884 -0.1759  0.1757
  251CLA    CLA24951   1.830   1.764  17.759 -0.1336  0.0835  0.0819
  252CLA    CLA24952   0.294   2.184  12.013  0.1923  0.3670 -0.2641
  253TIP3   OH224953   4.946   7.579  16.517 -0.8822 -0.3726 -0.5035
  253TIP3    H124954   4.992   7.662  16.525  0.2389 -0.6064 -3.2480
  253TIP3    H224955   4.983   7.523  16.585 -1.2216  1.1525  0.9788
  254TIP3   OH224956   0.070   1.384  16.820  0.1054  0.4687 -0.1312
  254TIP3    H124957   0.062   1.463  16.872 -2.6140  0.1386  0.0730
  254TIP3    H224958   0.025   1.317  16.870  0.3438 -0.6564 -1.3620
  255TIP3   OH224959   5.298   6.756  18.406 -0.3532  0.1495  0.7289
  255TIP3    H124960   5.292   6.689  18.338  0.8461  0.1459  0.5987
  255TIP3    H224961   5.211   6.758  18.446 -0.7316 -0.6753 -0.0252
  256TIP3   OH224962   5.377   1.025  18.865  0.2151 -0.0909  0.1732
  256TIP3    H124963   5.382   0.987  18.778 -0.3245 -0.1847  0.1786
  256TIP3    H224964   5.317   1.099  18.855 -1.2743 -1.1619  0.8232
  257TIP3   OH224965   7.185   1.551  18.311 -0.2492 -0.9176 -0.0283
  257TIP3    H124966   7.152   1.467  18.281 -1.3944  0.0702 -1.7765
  257TIP3    H224967   7.119   1.614  18.282 -1.2093  0.3280  4.1832
  258TIP3   OH224968   2.083   7.072  18.151 -0.0238  0.2384  0.0100
  258TIP3    H124969   2.095   7.001  18.088 -1.6329 -0.4900  0.4694
  258TIP3    H224970   2.034   7.139  18.103 -1.7762 -0.5672  0.5963
  259TIP3   OH224971   3.590   4.135  17.170 -0.0382 -0.6883 -0.4130
  259TIP3    H124972   3.595   4.149  17.076  0.0887 -1.1411 -0.4784
  259TIP3    H224973   3.615   4.219  17.209 -1.1565 -0.1749 -0.7784
  260TIP3   OH224974   1.663   3.059  16.756 -0.4268  0.2319 -0.2263
  260TIP3    H124975   1.696   3.144  16.728  1.1564 -0.4337 -0.4479
  260TIP3    H224976   1.708   3.042  16.839 -2.1389  0.4210  0.7964
  261TIP3   OH224977   5.207   3.699  17.911  0.3198  0.0775  0.1758
  261TIP3    H124978   5.135   3.701  17.974  0.6443 -2.0398  0.6995
  261TIP3    H224979   5.171   3.739  17.832 -0.5969  1.3470  1.1891
  262TIP3   OH224980   1.441   5.847  18.726  0.1707  0.2041 -0.0991
  262TIP3    H124981   1.451   5.870  18.634  0.2551  1.7362  0.2667
  262TIP3    H224982   1.376   5.909  18.759  1.5369  0.9639  1.2981
  263TIP3   OH224983   2.554   7.447  18.014 -0.2794 -0.4172 -0.1787
  263TIP3    H124984   2.522   7.367  18.057  0.5242 -0.4116  0.4547
  263TIP3    H224985   2.484   7.471  17.953 -1.2409 -0.6801  0.7996
  264TIP3   OH224986   2.341   4.326  19.204  0.1810 -0.3501 -0.4435
  264TIP3    H124987   2.266   4.374  19.167 -0.9022 -1.9454 -0.4050
  264TIP3    H224988   2.405   4.323  19.133 -1.4030 -2.3578 -1.9005
  265TIP3   OH224989   5.951   7.327  17.580  0.3208 -0.3991 -0.1262
  265TIP3    H124990   5.880   7.323  17.516 -0.2451  0.7895  0.3993
  265TIP3    H224991   5.989   7.239  17.579  0.4986 -0.3574 -2.2738
  266TIP3   OH224992   5.655   6.626  17.738  0.6083 -0.5334  0.3740
  266TIP3    H124993   5.705   6.650  17.660  0.7227  2.9938  1.3697
  266TIP3    H224994   5.722   6.615  17.806  0.3080  0.5002  0.8567
  267TIP3   OH224995   4.151   7.270  16.878  0.4908  0.5609 -0.2953
  267TIP3    H124996   4.074   7.326  16.873 -0.7439 -1.1279 -1.1906
  267TIP3    H224997   4.205   7.297  16.804 -0.6389 -0.1403 -1.4145
  268TIP3   OH224998   1.301   0.540  16.703  0.4402  0.4227 -0.1372
  268TIP3    H124999   1.390   0.505  16.696  0.2578  0.3834 -3.4815
  268TIP3    H225000   1.246   0.478  16.657 -1.4168  0.4565  1.8651
  269TIP3   OH225001   7.356   5.886  16.776  0.2185 -0.3946 -0.9386
  269TIP3    H125002   7.427   5.943  16.803 -0.4890  0.4625 -0.8634
  269TIP3    H225003   7.281   5.915  16.826 -0.3782 -0.7815 -1.5860
  270TIP3   OH225004   3.377   6.410  18.217 -0.5935  0.4402 -0.1600
  270TIP3    H125005   3.314   6.339  18.204  0.2488 -0.3542 -0.0156
  270TIP3    H225006   3.462   6.367  18.211 -0.0809  1.2697  0.9921
  271TIP3   OH225007   1.277   6.458  17.107 -0.1741 -0.2199  0.1891
  271TIP3    H125008   1.327   6.516  17.165  1.1047 -0.5348 -0.5599
  271TIP3    H225009   1.306   6.370  17.130  1.1907 -0.3084 -1.6066
  272TIP3   OH225010   6.934   5.142  16.717  0.3315 -0.4888  0.2203
  272TIP3    H125011   7.002   5.091  16.673 -0.7183 -0.0308 -2.0674
  272TIP3    H225012   6.979   5.182  16.792  1.7911 -2.6495  0.5754
  273TIP3   OH225013   5.606   6.651  18.818 -0.3452 -0.3551  0.1561
  273TIP3    H125014   5.628   6.718  18.883 -1.6888 -0.1135  0.3990
  273TIP3    H225015   5.573   6.700  18.743  0.1668 -0.6804 -0.2862
  274TIP3   OH225016   7.149   6.127  18.798 -0.3354  0.4166  0.4831
  274TIP3    H125017   7.174   6.080  18.718 -2.7728 -1.0270  0.4631
  274TIP3    H225018   7.151   6.060  18.866  2.3096  1.7558  1.8722
  275TIP3   OH225019   5.380   4.540  17.585 -0.1699 -0.4727  0.2023
  275TIP3    H125020   5.410   4.472  17.524 -0.8127  0.0440 -0.7226
  275TIP3    H225021   5.445   4.610  17.577  0.4518 -0.9260  1.1009
  276TIP3   OH225022   6.024   0.202  17.979  0.2863  0.8333  0.1985
  276TIP3    H125023   5.958   0.244  18.034  0.1635  0.6715  0.1765
  276TIP3    H225024   5.996   0.221  17.889 -0.7427 -0.7520  0.1501
  277TIP3   OH225025   7.374   5.420  17.280 -0.4633  0.4007  0.1771
  277TIP3    H125026   7.397   5.343  17.229  1.1449  0.2154  1.1098
  277TIP3    H225027   7.376   5.391  17.371 -0.1941  1.4368  0.5247
  278TIP3   OH225028   5.403   7.495  18.883 -0.3475 -0.3573 -0.2761
  278TIP3    H125029   5.312   7.473  18.905 -0.4779  0.1901 -0.2705
  278TIP3    H225030   5.396   7.551  18.806 -0.1637  1.7264  1.1457
  279TIP3   OH225031   3.996   0.148  18.539 -0.2189 -0.1343 -0.0953
  279TIP3    H125032   3.907   0.146  18.505  0.6150  1.5364 -2.7081
  279TIP3    H225033   4.050   0.113  18.467  1.3877  0.7100  0.6498
  280TIP3   OH225034   3.775   3.514  17.093 -0.4913 -0.6069  0.2650
  280TIP3    H125035   3.730   3.511  17.177 -0.8459 -2.6579  0.0675
  280TIP3    H225036   3.761   3.427  17.056  0.7098 -0.1522 -1.3664
  281TIP3   OH225037   4.901   4.713  18.953  0.3277 -0.6309  0.2928
  281TIP3    H125038   4.849   4.762  18.889  1.7244  0.1769 -0.2951
  281TIP3    H225039   4.851   4.633  18.970 -0.7065 -0.2429 -0.8225
  282TIP3   OH225040   2.663   0.943  17.472 -0.0454  0.1516 -0.1301
  282TIP3    H125041   2.685   0.859  17.432 -0.4683  0.3284 -0.7491
  282TIP3    H225042   2.747   0.984  17.491  0.2349  1.0800 -2.9887
  283TIP3   OH225043   3.504   5.129  17.880  0.0461 -1.0064  0.2336
  283TIP3    H125044   3.557   5.097  17.953 -1.2775 -0.5108  1.4710
  283TIP3    H225045   3.527   5.221  17.873  2.1072 -1.5863 -1.7710
  284TIP3   OH225046   6.458   7.284  10.618  0.1784 -0.3129 -0.1643
  284TIP3    H125047   6.463   7.380  10.612  1.3624 -0.3606 -0.3728
  284TIP3    H225048   6.522   7.254  10.553 -1.9319 -1.3092 -1.9143
  285TIP3   OH225049   1.439   7.456  10.462  0.6321 -0.6064 -0.7333
  285TIP3    H125050   1.456   7.532  10.406 -1.0210 -0.3678 -0.9591
  285TIP3    H225051   1.381   7.400  10.410 -0.0540 -0.8989  0.3012
  286TIP3   OH225052   6.732   1.078  11.573  0.1157  0.3942  0.0111
  286TIP3    H125053   6.665   1.129  11.618  0.9301  0.1246  1.6124
  286TIP3    H225054   6.815   1.116  11.601  0.6758 -0.1647 -0.8179
  287TIP3   OH225055   7.052   1.382  11.587 -0.1347 -0.2863  0.1901
  287TIP3    H125056   7.021   1.329  11.514 -1.2901  0.6774 -0.0573
  287TIP3    H225057   6.995   1.460  11.586  0.8442  0.4710  1.1571
  288TIP3   OH225058   2.356   0.602  13.041 -0.1609 -0.3231  0.0958
  288TIP3    H125059   2.295   0.555  12.984  0.8387  0.9293 -2.1577
  288TIP3    H225060   2.442   0.589  13.000  1.0116 -1.2243  2.6244
  289TIP3   OH225061   7.032   6.577  11.324  0.1098 -0.1847 -0.5132
  289TIP3    H125062   7.007   6.667  11.302 -2.4510 -1.0242 -1.5003
  289TIP3    H225063   7.033   6.575  11.420 -0.7379  0.6781 -0.4711
  290TIP3   OH225064   2.991   7.329  10.969  0.0951 -0.0397 -0.5338
  290TIP3    H125065   2.953   7.417  10.962  0.6049  0.2024 -0.2919
  290TIP3    H225066   2.940   7.287  11.038  1.8085  1.1264  1.5735
  291TIP3   OH225067   0.860   5.833  10.494 -0.2250 -0.3273  0.2164
  291TIP3    H125068   0.857   5.738  10.488 -0.8646 -0.3427  0.6404
  291TIP3    H225069   0.835   5.864  10.407  1.5800 -0.5320 -0.4213
  292TIP3   OH225070   7.529   5.017  10.604  0.7312 -0.1780 -0.3163
  292TIP3    H125071   7.437   5.006  10.625  1.0973 -0.9527  1.0239
  292TIP3    H225072   7.530   5.047  10.513 -0.9365  2.1380  0.3168
  293TIP3   OH225073   4.601   3.124  11.781 -0.0529 -0.2300 -0.1605
  293TIP3    H125074   4.581   3.088  11.868 -0.1825  0.9210  0.3113
  293TIP3    H225075   4.696   3.133  11.780 -0.1431  1.2651  0.5353
  294TIP3   OH225076   4.547   3.695  12.963  0.1185 -0.1602 -0.2169
  294TIP3    H125077   4.573   3.784  12.939 -0.3186 -0.0158 -0.1455
  294TIP3    H225078   4.452   3.698  12.973  0.2859 -0.1002  1.9525
  295TIP3   OH225079   1.813   5.817  11.734 -0.1873 -0.4110 -0.0401
  295TIP3    H125080   1.754   5.862  11.795  0.5872 -1.1519  1.2855
  295TIP3    H225081   1.808   5.870  11.654 -1.6768  0.2536  0.4458
  296TIP3   OH225082   1.285   5.812  12.103 -0.9385  0.6951 -0.1876
  296TIP3    H125083   1.278   5.838  12.195  0.7480  0.9785 -0.0968
  296TIP3    H225084   1.296   5.716  12.107  2.3069  0.9642  0.2211
  297TIP3   OH225085   1.619   5.424  11.083 -0.5478 -0.2830  0.2984
  297TIP3    H125086   1.658   5.365  11.020 -0.5379 -0.2493  0.2727
  297TIP3    H225087   1.527   5.431  11.056 -0.9552 -1.5803  1.2746
  298TIP3   OH225088   2.150   5.058  10.936  0.3362 -0.0840 -0.0654
  298TIP3    H125089   2.204   5.134  10.917  0.0126 -0.6323 -3.9889
  298TIP3    H225090   2.207   4.983  10.919 -0.5320 -0.6773 -0.4735
  299TIP3   OH225091   2.813   4.987  10.822 -0.3291  0.3466  0.4233
  299TIP3    H125092   2.763   5.062  10.789  0.8923  1.2276  0.5066
  299TIP3    H225093   2.772   4.911  10.780 -1.0418  1.1345 -0.3592
  300TIP3   OH225094   3.063   2.710  10.592  0.4734  0.6149  0.2708
  300TIP3    H125095   3.059   2.615  10.580  3.2146  0.2340  1.4686
  300TIP3    H225096   2.989   2.730  10.648 -2.1403 -0.2038 -2.5975
  301TIP3   OH225097   1.724   0.729  10.337 -0.4414 -0.2175 -0.3730
  301TIP3    H125098   1.776   0.723  10.417 -1.4094 -0.3453  0.2722
  301TIP3    H225099   1.689   0.641  10.324  0.0965 -0.3087 -1.2067
  302TIP3   OH225100   3.095   2.233  11.338  0.3570  0.3326  0.3078
  302TIP3    H125101   3.064   2.310  11.290 -0.0972  0.4292  0.7471
  302TIP3    H225102   3.182   2.215  11.301 -0.8140 -0.9199 -2.0996
  303TIP3   OH225103   0.215   7.121  10.531  0.3866  0.1970 -0.3035
  303TIP3    H125104   0.212   7.039  10.581  1.0234  0.7726  0.7020
  303TIP3    H225105   0.248   7.095  10.445  1.5304 -0.4662  0.3110
  304TIP3   OH225106   6.587   6.215  12.201 -0.4072 -0.0283  0.4789
  304TIP3    H125107   6.657   6.279  12.191  1.6040 -1.9519  1.3946
  304TIP3    H225108   6.507   6.267  12.203  1.1117  2.4435  1.2542
  305TIP3   OH225109   3.581   7.544  10.745  0.3196 -0.6716 -0.8524
  305TIP3    H125110   3.500   7.561  10.793  0.7021 -1.9662  0.3094
  305TIP3    H225111   3.594   7.623  10.693  0.7772  1.6631  2.4567
  306TIP3   OH225112   3.376   4.414  12.836  0.8486 -0.3082  0.5098
  306TIP3    H125113   3.392   4.363  12.916  1.5797 -1.5586 -0.4059
  306TIP3    H225114   3.284   4.398  12.816  0.4709  0.5426  1.4263
  307TIP3   OH225115   2.595   1.206  12.513 -0.4270 -0.1811  0.2081
  307TIP3    H125116   2.542   1.137  12.473  0.9444 -1.6316  0.8172
  307TIP3    H225117   2.608   1.178  12.603  0.0949  0.9359  0.5024
  308TIP3   OH225118   7.493   2.880  10.476 -0.2837  0.3647 -0.1970
  308TIP3    H125119   7.578   2.895  10.518  0.6386  0.8995 -2.1685
  308TIP3    H225120   7.437   2.949  10.511  0.3706  0.6174  0.3826
  309TIP3   OH225121   3.176   0.933  10.456 -0.1474  0.7897 -0.2099
  309TIP3    H125122   3.181   0.867  10.525 -0.7632  1.9289  0.9592
  309TIP3    H225123   3.263   0.934  10.418  0.3845  0.5651  0.9607
  310TIP3   OH225124   6.360   0.679  11.729 -0.0407 -0.8113 -0.0895
  310TIP3    H125125   6.407   0.648  11.807  0.7706 -1.9197 -0.9804
  310TIP3    H225126   6.304   0.606  11.704 -0.4120 -0.4055 -0.4530
  311TIP3   OH225127   2.452   0.368  12.662  0.6166 -0.1894 -0.1568
  311TIP3    H125128   2.484   0.312  12.591 -0.2031  0.7157 -1.2574
  311TIP3    H225129   2.397   0.310  12.715  0.5772 -0.6730 -0.7173
  312TIP3   OH225130   2.472   5.739  11.302  0.5350 -0.2897  0.0105
  312TIP3    H125131   2.466   5.819  11.355  0.3852 -0.6364  0.5300
  312TIP3    H225132   2.381   5.719  11.279  0.7676  1.3206 -2.6485
  313TIP3   OH225133   0.370   5.283  10.547 -0.3891  0.3409  0.0644
  313TIP3    H125134   0.318   5.256  10.471  0.2701 -0.3676 -0.1431
  313TIP3    H225135   0.332   5.368  10.572 -1.4392 -0.0053 -0.2674
  314TIP3   OH225136   5.099   3.550  11.088  0.6261  0.0722  0.3651
  314TIP3    H125137   5.173   3.553  11.027  1.2739  1.0219  1.1610
  314TIP3    H225138   5.044   3.625  11.062  0.5224  0.0361  0.4788
  315TIP3   OH225139   1.201   4.339  11.779 -0.5550  0.1164 -0.0367
  315TIP3    H125140   1.263   4.280  11.821  0.1605  1.5358  0.9606
  315TIP3    H225141   1.236   4.352  11.691  0.0979  0.2278  0.2386
  316TIP3   OH225142   3.354   1.772  12.279  0.0175 -0.4427 -0.6366
  316TIP3    H125143   3.352   1.835  12.207 -1.7374  0.1295 -0.1317
  316TIP3    H225144   3.343   1.687  12.237 -0.3165 -0.1693 -1.1083
  317TIP3   OH225145   4.384   1.522  11.410  0.5525  0.3349 -0.4556
  317TIP3    H125146   4.424   1.473  11.338  0.9575 -0.0165  0.0020
  317TIP3    H225147   4.291   1.524  11.389  0.8000  1.1820 -1.5459
  318TIP3   OH225148   2.298   4.136  12.597 -0.2746  0.0929 -0.2938
  318TIP3    H125149   2.328   4.200  12.661 -0.9105  1.1982 -1.0596
  318TIP3    H225150   2.367   4.069  12.595 -0.5122 -0.2727  1.9086
  319TIP3   OH225151   1.263   0.501  10.678 -0.3097 -0.0031 -0.2329
  319TIP3    H125152   1.200   0.459  10.736  0.5388 -1.2998 -0.2087
  319TIP3    H225153   1.250   0.458  10.593  0.2821 -0.0177 -0.3223
  320TIP3   OH225154   4.746   6.278  11.302 -0.2176 -0.4912  0.4780
  320TIP3    H125155   4.813   6.259  11.368  0.3800 -0.8062 -0.2130
  320TIP3    H225156   4.795   6.291  11.221 -1.0216 -1.1032 -0.1197
  321TIP3   OH225157   1.643   1.245  12.113  0.4344  0.5590  0.1531
  321TIP3    H125158   1.581   1.254  12.041  0.3058 -3.8712 -0.5641
  321TIP3    H225159   1.703   1.318  12.102 -0.8888  1.3438 -3.0932
  322TIP3   OH225160   0.500   2.614  13.024 -0.4062 -0.4070 -0.2623
  322TIP3    H125161   0.437   2.564  12.973 -2.7213  1.4104  0.6353
  322TIP3    H225162   0.524   2.689  12.969 -0.6051 -0.0207  0.1673
  323TIP3   OH225163   7.548   6.009  18.717 -0.1953  0.5476 -0.1400
  323TIP3    H125164   7.529   5.976  18.629 -0.4061  0.7147 -0.1572
  323TIP3    H225165   7.637   6.043  18.711 -1.0366  2.8114 -0.9574
  324TIP3   OH225166   4.719   3.810  18.941 -0.0578  0.9873 -0.2086
  324TIP3    H125167   4.625   3.799  18.954 -0.2520  2.2216 -0.3911
  324TIP3    H225168   4.759   3.739  18.990 -1.1129 -0.1826 -0.9784
  325TIP3   OH225169   1.718   3.734  17.975 -0.4609 -0.0667  0.5385
  325TIP3    H125170   1.643   3.761  17.923 -0.2496  1.5460  1.0064
  325TIP3    H225171   1.686   3.660  18.027 -1.0680 -0.8014 -0.8523
  326TIP3   OH225172   7.529   5.028  18.911 -0.5069  0.4451  0.1279
  326TIP3    H125173   7.518   4.969  18.985  0.8130 -0.0722 -0.0791
  326TIP3    H225174   7.581   4.980  18.848  1.0139  1.9723  0.1474
  327TIP3   OH225175   0.486   5.420  17.744 -0.1837 -0.0800 -0.0659
  327TIP3    H125176   0.433   5.379  17.812 -0.8921 -0.1500 -0.6566
  327TIP3    H225177   0.452   5.509  17.736 -0.9985 -0.4846 -1.2599
  328TIP3   OH225178   7.407   6.894  19.092  0.5268 -0.0698  0.2908
  328TIP3    H125179   7.481   6.949  19.116  0.3370  0.6842 -0.7746
  328TIP3    H225180   7.435   6.805  19.111  1.7064  0.2033 -0.1254
  329TIP3   OH225181   4.542   4.868  17.461  0.4951 -0.0780 -0.3196
  329TIP3    H125182   4.513   4.822  17.382  2.8664 -0.4226 -1.0645
  329TIP3    H225183   4.565   4.798  17.522  1.7021  0.1284 -0.5208
  330TIP3   OH225184   0.110   4.900  18.134 -0.0360  0.0855 -0.5369
  330TIP3    H125185   0.185   4.898  18.193  0.7024  0.2032 -1.4430
  330TIP3    H225186   0.034   4.912  18.192  0.5928 -0.4315  0.4256
  331TIP3   OH225187   2.713   2.085  19.226  0.0639  0.4585 -1.2223
  331TIP3    H125188   2.763   2.005  19.245  0.3534  0.4627 -1.9317
  331TIP3    H225189   2.623   2.063  19.248 -0.0704 -0.4967 -2.6064
  332TIP3   OH225190   2.483   0.122  18.588  0.6458  0.3764  0.5372
  332TIP3    H125191   2.487   0.139  18.682  1.0714 -0.8330  0.7557
  332TIP3    H225192   2.389   0.119  18.568  0.5477  0.0067  1.0515
  333TIP3   OH225193   2.786   0.381  18.305 -0.1710 -0.2788 -0.2667
  333TIP3    H125194   2.839   0.302  18.295 -0.9483 -0.7547 -0.8059
  333TIP3    H225195   2.726   0.360  18.377  1.0754  0.6732  1.1000
  334TIP3   OH225196   1.465   7.611  17.596  0.4768  0.0394  0.3481
  334TIP3    H125197   1.513   7.588  17.516  1.7011  1.3455  0.6746
  334TIP3    H225198   1.416   7.690  17.572  1.5352  0.9519  1.1137
  335TIP3   OH225199   4.574   2.636  19.104  0.1510  0.5080 -0.5659
  335TIP3    H125200   4.553   2.717  19.152  4.1001  0.6936  1.3453
  335TIP3    H225201   4.515   2.571  19.141 -4.7370  2.6020 -3.6952
  336TIP3   OH225202   0.960   4.216  16.508  0.3647  0.3381 -0.5962
  336TIP3    H125203   0.926   4.300  16.476 -0.1780 -0.1456 -1.3130
  336TIP3    H225204   0.945   4.219  16.603  0.2657  1.0095 -0.6256
  337TIP3   OH225205   2.245   1.005  16.760 -0.0998  0.4313 -0.1289
  337TIP3    H125206   2.211   1.091  16.784  1.6788  0.6378  2.0918
  337TIP3    H225207   2.222   0.995  16.668 -1.5679  2.6652 -0.1013
  338TIP3   OH225208   7.189   6.185  19.588 -0.4197 -0.0279 -0.2956
  338TIP3    H125209   7.235   6.212  19.667 -1.1964  0.4307  0.0169
  338TIP3    H225210   7.230   6.234  19.518 -0.5671  0.5372  0.0102
  339TIP3   OH225211   2.310   7.086  18.872 -0.5059  0.4978 -0.3928
  339TIP3    H125212   2.310   7.176  18.904  1.4603  0.5157 -0.3210
  339TIP3    H225213   2.329   7.094  18.779  0.0831  0.1440 -0.3059
  340TIP3   OH225214   3.364   6.841  17.043  0.4462 -0.3662  0.1741
  340TIP3    H125215   3.338   6.933  17.046 -0.9271 -0.7590  1.0960
  340TIP3    H225216   3.310   6.802  16.974  0.4059 -0.6705  0.3752
  341TIP3   OH225217   5.246   4.755  17.440 -0.6183  0.2512  0.3291
  341TIP3    H125218   5.260   4.737  17.533  0.3289 -0.6544  0.0301
  341TIP3    H225219   5.275   4.676  17.396 -1.7312  0.4035 -0.7064
  342TIP3   OH225220   1.222   4.875  16.996  0.4617 -0.3023  0.1258
  342TIP3    H125221   1.214   4.794  16.946 -0.7163 -0.4412  0.5069
  342TIP3    H225222   1.271   4.934  16.939 -0.0922 -0.7470 -0.8304
  343TIP3   OH225223   4.249   3.450  19.122 -0.6734  0.3307 -0.0150
  343TIP3    H125224   4.309   3.415  19.056 -0.7261 -1.0090  0.6307
  343TIP3    H225225   4.222   3.374  19.174 -0.8672  1.3066  1.3725
  344TIP3   OH225226   5.440   4.650  18.805 -0.1057 -0.1091 -0.3846
  344TIP3    H125227   5.347   4.631  18.818 -0.2036  0.4658 -0.2149
  344TIP3    H225228   5.467   4.692  18.886 -0.2684  1.8140 -1.2788
  345TIP3   OH225229   5.079   6.885  17.279 -0.0254 -0.0396  0.2584
  345TIP3    H125230   5.166   6.890  17.240 -0.5633 -2.4917 -1.5741
  345TIP3    H225231   5.026   6.946  17.227  0.1723 -0.0924 -0.0056
  346TIP3   OH225232   2.173   2.199  18.931  0.1540  0.2792  0.5432
  346TIP3    H125233   2.174   2.106  18.908 -4.2862  0.1852 -0.1346
  346TIP3    H225234   2.176   2.200  19.027 -0.7967 -0.6823  0.6021
  347TIP3   OH225235   5.277   2.199  19.123 -0.2825  0.3384 -0.4715
  347TIP3    H125236   5.278   2.282  19.171  0.1771 -0.4084  0.8810
  347TIP3    H225237   5.294   2.223  19.032 -0.2404  1.7287 -0.1200
  348TIP3   OH225238   2.880   5.456  19.106 -0.1882 -0.0718  0.0365
  348TIP3    H125239   2.939   5.394  19.149  0.5765  0.3636 -0.3677
  348TIP3    H225240   2.863   5.418  19.020  0.5105  0.4052 -0.3222
  349TIP3   OH225241   3.733   1.594  17.458  0.2644 -0.6651  0.0099
  349TIP3    H125242   3.656   1.643  17.429 -0.9506 -1.8779  1.0822
  349TIP3    H225243   3.725   1.590  17.553  1.7933 -0.6377  0.1713
  350TIP3   OH225244   4.040   3.231  17.692 -0.5267  0.6342  0.2737
  350TIP3    H125245   4.030   3.154  17.748  0.1759 -1.0268 -1.7522
  350TIP3    H225246   3.954   3.274  17.694 -1.3171 -0.9001  0.4709
  351TIP3   OH225247   7.417   4.762  18.001 -0.1497  0.3712  0.3636
  351TIP3    H125248   7.357   4.705  17.953  1.1113 -1.0564  0.4110
  351TIP3    H225249   7.360   4.827  18.042 -1.4500  0.3771 -1.3227
  352TIP3   OH225250   0.968   0.615  16.747 -0.7556 -0.0041  0.4344
  352TIP3    H125251   1.038   0.554  16.770  0.5673  1.5924  0.8886
  352TIP3    H225252   0.890   0.561  16.740  0.6135 -1.9473 -0.6258
  353TIP3   OH225253   1.829   7.172  16.859  0.5740 -0.4058 -0.5672
  353TIP3    H125254   1.829   7.076  16.856  0.8585 -0.5332  1.5909
  353TIP3    H225255   1.743   7.195  16.893  0.5689  0.0796 -0.9122
  354TIP3   OH225256   1.670   3.926  17.504  0.6275  0.3726 -0.4368
  354TIP3    H125257   1.702   3.938  17.593 -0.4599 -0.0754  0.0367
  354TIP3    H225258   1.595   3.866  17.513 -0.0693  1.0428 -1.5330
  355TIP3   OH225259   2.121   6.124  19.161 -0.5280  0.2225  0.0642
  355TIP3    H125260   2.216   6.128  19.175 -0.6329 -0.0801  0.9488
  355TIP3    H225261   2.104   6.033  19.136 -0.4063  0.6437 -1.6736
  356TIP3   OH225262   2.861   2.196  19.426 -0.1001  0.0313  0.3668
  356TIP3    H125263   2.928   2.132  19.447 -0.7564 -0.6288  0.4603
  356TIP3    H225264   2.823   2.165  19.344  0.8965  1.3618 -0.6501
  357TIP3   OH225265   1.210   0.296  16.593 -0.4552 -0.3298 -0.5101
  357TIP3    H125266   1.138   0.294  16.655  0.1833 -1.4731  0.2285
  357TIP3    H225267   1.215   0.206  16.558  0.6144 -0.2821 -0.5272
  358TIP3   OH225268   2.796   3.561  19.409 -0.7852 -0.3569  0.1448
  358TIP3    H125269   2.709   3.541  19.373 -0.4807  0.0367 -0.8303
  358TIP3    H225270   2.777   3.610  19.490 -1.4811  1.2757 -0.9584
  359TIP3   OH225271   5.374   5.678  18.682 -0.0775 -0.1021  0.7465
  359TIP3    H125272   5.372   5.725  18.599  0.5952 -1.7146 -0.2129
  359TIP3    H225273   5.282   5.674  18.709 -0.1450  1.9074  0.9895
  360TIP3   OH225274   4.514   2.603  18.243  0.2428  0.5878  0.1273
  360TIP3    H125275   4.525   2.513  18.275 -1.0238  0.3231 -0.1163
  360TIP3    H225276   4.476   2.593  18.156  1.4219  1.3535 -0.5065
  361TIP3   OH225277   1.249   3.716  18.211 -0.2324  0.3897  0.0768
  361TIP3    H125278   1.267   3.622  18.221  0.5005  0.2196 -2.3392
  361TIP3    H225279   1.196   3.738  18.288 -0.6177 -2.0519  0.5914
  362TIP3   OH225280   7.541   6.233  18.173  0.2462  0.8230  0.3937
  362TIP3    H125281   7.561   6.190  18.256 -0.1361  2.2100  1.2409
  362TIP3    H225282   7.470   6.294  18.194 -1.2861 -0.2378 -1.4055
  363TIP3   OH225283   6.759   5.676  18.393  0.0087 -0.3689  0.4839
  363TIP3    H125284   6.724   5.669  18.305 -1.1579 -1.2025  0.9788
  363TIP3    H225285   6.816   5.599  18.402  1.2904  0.4876 -0.0049
  364TIP3   OH225286   2.207   6.522  18.412 -0.1999 -0.2235 -0.8201
  364TIP3    H125287   2.183   6.437  18.374  0.9168 -0.5430 -0.8377
  364TIP3    H225288   2.155   6.586  18.362 -2.5011 -0.9845  0.4335
  365TIP3   OH225289   4.422   5.006  17.669 -0.2887 -0.1896  0.2457
  365TIP3    H125290   4.422   5.101  17.659 -0.5343 -0.1165  0.8798
  365TIP3    H225291   4.453   4.973  17.585 -1.4220  0.3953 -0.4228
  366TIP3   OH225292   6.974   0.439  16.884  0.0226  0.1846  0.1253
  366TIP3    H125293   6.923   0.374  16.932 -2.3249  0.5243 -1.7424
  366TIP3    H225294   6.974   0.516  16.941 -0.1457 -0.3458  0.8559
  367TIP3   OH225295   4.827   7.047  19.619 -0.2756 -0.2749  0.0882
  367TIP3    H125296   4.733   7.062  19.615 -0.6071 -2.0891  0.4863
  367TIP3    H225297   4.837   6.972  19.677  1.3128 -1.0684 -1.1365
  368TIP3   OH225298   5.262   1.270  18.485 -0.3301 -0.5528  0.1327
  368TIP3    H125299   5.236   1.362  18.486 -0.2936 -0.5051  2.8728
  368TIP3    H225300   5.344   1.267  18.534  0.0511 -1.9760 -0.5265
  369TIP3   OH225301   1.439   3.156  16.983  0.2593  0.7710 -0.3596
  369TIP3    H125302   1.452   3.237  16.933 -1.1588  1.0513 -0.2994
  369TIP3    H225303   1.417   3.091  16.916 -0.8565  0.9681 -0.2026
  370TIP3   OH225304   6.306   1.470  19.272 -0.1445 -0.1527 -0.3000
  370TIP3    H125305   6.224   1.518  19.282 -0.1107  1.0948 -4.3295
  370TIP3    H225306   6.286   1.381  19.302 -3.1229 -0.0032 -1.4878
  371TIP3   OH225307   7.402   5.612  18.343 -0.1271  0.5272  0.3423
  371TIP3    H125308   7.331   5.644  18.287  0.7109  2.9508  0.5394
  371TIP3    H225309   7.424   5.527  18.306  0.3374  1.9460 -3.0474
  372TIP3   OH225310   0.420   5.019  18.049  0.2860  0.3943 -0.2648
  372TIP3    H125311   0.369   5.056  18.121  0.4217 -0.8961  0.5273
  372TIP3    H225312   0.509   5.014  18.084  0.6824  1.2938 -1.1238
  373TIP3   OH225313   0.430   1.754  17.548 -0.0836 -0.0861 -0.1148
  373TIP3    H125314   0.339   1.767  17.573  0.0877  0.0616  0.4632
  373TIP3    H225315   0.428   1.690  17.477 -0.7420  0.9713 -1.0862
  374TIP3   OH225316   3.074   1.477  19.085 -0.0774  0.5787  0.3216
  374TIP3    H125317   3.065   1.386  19.058 -0.2157  0.4117  0.9277
  374TIP3    H225318   3.015   1.525  19.027  0.4177  0.3599 -0.3758
  375TIP3   OH225319   6.957   6.264  19.459  0.1473 -0.1075 -0.4189
  375TIP3    H125320   7.026   6.215  19.504 -0.4828 -0.2945  0.3662
  375TIP3    H225321   6.889   6.199  19.442  0.4587 -0.0885 -1.8600
  376TIP3   OH225322   0.690   5.315  17.577  0.3452 -0.3882  1.3239
  376TIP3    H125323   0.739   5.382  17.529 -1.3463 -0.7950 -1.1292
  376TIP3    H225324   0.630   5.364  17.633 -0.8945  0.2252 -0.4641
  377TIP3   OH225325   2.692   6.083  18.566  0.1817  0.2399 -0.4221
  377TIP3    H125326   2.733   6.006  18.605  1.6581 -0.2760 -2.7722
  377TIP3    H225327   2.599   6.059  18.558  0.6632 -1.4827 -1.4224
  378TIP3   OH225328   2.880   5.331  18.284  0.2470 -0.0844 -0.0858
  378TIP3    H125329   2.927   5.264  18.234 -1.9157 -2.5125  0.9488
  378TIP3    H225330   2.919   5.328  18.371 -0.4880 -0.7368  0.2330
  379TIP3   OH225331   3.115   3.058  18.782 -0.1363 -0.0079 -0.4544
  379TIP3    H125332   3.119   3.035  18.689  1.6340 -0.3487 -0.3317
  379TIP3    H225333   3.076   3.145  18.783  2.2191  1.1849 -1.7978
  380TIP3   OH225334   1.500   0.694  17.496 -0.0466 -0.2700 -0.2048
  380TIP3    H125335   1.490   0.781  17.458 -1.0851 -0.3616 -0.1777
  380TIP3    H225336   1.514   0.711  17.590 -1.8239 -0.1512  0.0724
  381TIP3   OH225337   4.751   5.173  17.743 -0.4587 -0.7566 -0.2556
  381TIP3    H125338   4.831   5.215  17.714 -1.3428  2.3298  1.3656
  381TIP3    H225339   4.771   5.141  17.831 -0.7778 -0.7195 -0.1680
  382TIP3   OH225340   2.542   0.648  17.852  0.1108  0.2010  0.2223
  382TIP3    H125341   2.543   0.665  17.758  0.9301  0.8016  0.3328
  382TIP3    H225342   2.449   0.651  17.876 -0.3118 -1.8292 -0.8741
  383TIP3   OH225343   2.636   2.211  17.648 -0.6741  0.4184 -0.1831
  383TIP3    H125344   2.576   2.247  17.713  0.1703  2.1542 -0.2900
  383TIP3    H225345   2.721   2.212  17.692 -0.5679 -1.2382 -0.3065
  384TIP3   OH225346   5.196   7.418  17.333 -0.1323  0.8144 -0.0279
  384TIP3    H125347   5.237   7.342  17.292 -1.8517 -0.5569  0.6388
  384TIP3    H225348   5.130   7.446  17.270  0.2964  1.5957 -0.1430
  385TIP3   OH225349   7.601   7.164  19.257  0.1670 -0.1517  0.2778
  385TIP3    H125350   7.599   7.259  19.248 -1.7667 -0.3716 -3.6028
  385TIP3    H225351   7.517   7.141  19.298 -0.7056 -0.2724 -1.5060
  386TIP3   OH225352   1.885   7.280  17.486 -0.1387 -0.1556 -0.2958
  386TIP3    H125353   1.793   7.251  17.484 -0.2473  0.0954  0.5727
  386TIP3    H225354   1.881   7.374  17.472 -0.0849 -0.0278  0.4915
  387TIP3   OH225355   3.019   6.456  18.217 -0.9574 -0.4690 -0.0162
  387TIP3    H125356   3.066   6.374  18.224 -0.2423  0.0225  1.1684
  387TIP3    H225357   2.935   6.440  18.259 -0.8945 -0.6396  0.0416
  388TIP3   OH225358   3.858   1.027  17.328 -0.0243 -0.2338  0.3752
  388TIP3    H125359   3.780   0.982  17.360  1.4002 -2.7057  0.6895
  388TIP3    H225360   3.834   1.119  17.325 -3.1462 -0.9627 -0.2069
  389TIP3   OH225361   3.151   5.316  17.772  0.0893  0.5603 -0.3036
  389TIP3    H125362   3.108   5.401  17.781  1.0418  0.9000  1.6143
  389TIP3    H225363   3.189   5.300  17.858  2.3562 -0.4860 -1.4223
  390TIP3   OH225364   3.866   0.607  19.032 -0.5252  0.2017  0.0025
  390TIP3    H125365   3.823   0.587  19.115 -0.5695 -1.1996 -0.3424
  390TIP3    H225366   3.925   0.534  19.017  2.1797  2.1170  0.5376
  391TIP3   OH225367   3.976   7.156  17.362 -0.7853  0.4870 -0.0305
  391TIP3    H125368   3.940   7.095  17.298 -1.0449 -0.4420  0.9645
  391TIP3    H225369   3.961   7.114  17.446  0.7008  1.0820  0.5668
  392TIP3   OH225370   5.500   7.392  16.913 -0.4589 -0.2681  0.0543
  392TIP3    H125371   5.515   7.486  16.927  3.2864 -0.6745 -0.2755
  392TIP3    H225372   5.543   7.350  16.988  0.2708 -1.7507 -1.1461
  393TIP3   OH225373   4.144   1.043  19.115 -0.5228  0.0675  0.1894
  393TIP3    H125374   4.082   1.110  19.086  0.6255  0.9649 -0.2708
  393TIP3    H225375   4.164   1.065  19.205  1.9257  2.0553 -0.7326
  394TIP3   OH225376   2.178   4.027  19.030 -0.6934  0.0911  0.1513
  394TIP3    H125377   2.224   4.109  19.011  2.4913 -1.6667 -0.3005
  394TIP3    H225378   2.116   4.018  18.957 -0.9893  1.9667  0.1161
  395TIP3   OH225379   3.195   0.840  18.300 -0.1927 -0.7038  0.4125
  395TIP3    H125380   3.130   0.893  18.253  1.4929  1.7361  0.6326
  395TIP3    H225381   3.226   0.777  18.235  0.6726  1.3174 -1.2641
  396TIP3   OH225382   1.129   6.791  17.345 -0.6352  0.1548 -0.3207
  396TIP3    H125383   1.116   6.869  17.399  0.3072  0.0550  0.0804
  396TIP3    H225384   1.220   6.766  17.361 -0.5753 -0.3459 -1.3538
  397TIP3   OH225385   5.025   4.177  19.034  0.9442  0.3232 -0.0805
  397TIP3    H125386   5.041   4.243  19.101  0.1068 -0.5617  1.0172
  397TIP3    H225387   4.962   4.117  19.073  0.9658 -0.6103 -1.4030
  398TIP3   OH225388   6.556   6.589  17.994  0.2817  0.0689 -0.2352
  398TIP3    H125389   6.528   6.503  17.962 -0.0919  0.3554 -0.6943
  398TIP3    H225390   6.478   6.625  18.036 -0.2090  1.0405 -1.8764
  399TIP3   OH225391   2.683   4.451  18.432 -0.1317 -0.5484  0.6549
  399TIP3    H125392   2.678   4.542  18.462  1.0274 -0.0035 -0.6680
  399TIP3    H225393   2.774   4.426  18.446  0.5733 -0.1428 -2.5422
  400TIP3   OH225394   2.160   7.110  19.252  0.3653 -0.0056 -0.3251
  400TIP3    H125395   2.252   7.131  19.236  0.6539 -0.7251  0.2732
  400TIP3    H225396   2.141   7.150  19.337 -0.2273  1.1223 -0.9636
  401TIP3   OH225397   1.548   7.174  18.197  0.0795 -0.5696  0.3099
  401TIP3    H125398   1.479   7.225  18.239  0.7257  0.4079  0.2050
  401TIP3    H225399   1.501   7.105  18.150 -0.8276  0.1133  0.1855
  402TIP3   OH225400   4.073   2.385  18.576  0.3530  0.0517  0.1829
  402TIP3    H125401   4.020   2.459  18.547  2.0576  0.7866 -1.2224
  402TIP3    H225402   4.137   2.373  18.506  0.5073 -2.3881  0.6530
  403TIP3   OH225403   0.897   6.808  16.653 -0.1237  0.1214 -0.2684
  403TIP3    H125404   0.991   6.808  16.633  0.6009  1.3719  2.5493
  403TIP3    H225405   0.893   6.787  16.747 -2.6065  0.9258 -0.1291
  404TIP3   OH225406   3.794   5.300  18.621 -0.1700  0.1364  0.2738
  404TIP3    H125407   3.736   5.252  18.563  0.2899 -0.2546  0.1302
  404TIP3    H225408   3.787   5.254  18.705 -0.0090  0.0340  0.2321
  405TIP3   OH225409   5.958   0.437  16.864 -0.4378  0.2981  0.4330
  405TIP3    H125410   5.967   0.443  16.959 -0.4047 -1.5861  0.5855
  405TIP3    H225411   6.008   0.512  16.830  1.5198 -0.2925  1.8257
  406TIP3   OH225412   1.503   5.433  16.684  0.5943 -1.3204 -0.3239
  406TIP3    H125413   1.541   5.521  16.684  0.5444 -1.2890 -1.0916
  406TIP3    H225414   1.416   5.444  16.644 -0.3340 -1.3585  1.6058
  407TIP3   OH225415   1.163   1.589  17.684 -0.5721 -0.9323  0.2053
  407TIP3    H125416   1.204   1.563  17.767  0.0360  0.1992  0.2849
  407TIP3    H225417   1.069   1.587  17.702 -0.4593 -1.1123  0.7936
  408TIP3   OH225418   3.564   5.899  17.414  0.1142 -0.0556  0.2550
  408TIP3    H125419   3.659   5.894  17.412  0.1302 -0.3003  1.1499
  408TIP3    H225420   3.537   5.878  17.325  0.7892 -3.3494  0.6671
  409TIP3   OH225421   1.219   0.039  16.462 -0.7718 -0.3525 -0.1231
  409TIP3    H125422   1.224  -0.056  16.470  1.4619 -0.3378 -0.6378
  409TIP3    H225423   1.143   0.054  16.405  0.2508 -2.0107 -2.0549
  410TIP3   OH225424   5.720   5.680  17.343  0.1555 -0.1109 -0.4585
  410TIP3    H125425   5.813   5.660  17.353  0.0383 -0.0161  1.0528
  410TIP3    H225426   5.688   5.616  17.280  0.8441 -1.4387  0.5014
  411TIP3   OH225427   4.817   1.411  18.726  0.4922  0.4860  0.0226
  411TIP3    H125428   4.729   1.434  18.697  0.4985  0.3562 -0.0981
  411TIP3    H225429   4.875   1.462  18.669  0.5169 -0.1541 -0.5336
  412TIP3   OH225430   0.143   4.842  17.375  0.0123 -0.2456  0.1687
  412TIP3    H125431   0.147   4.795  17.458  0.4383  0.6066  0.6354
  412TIP3    H225432   0.072   4.905  17.386 -0.0223 -0.2214 -0.1627
  413TIP3   OH225433   0.634   4.778  18.939 -0.0669  0.1009  0.6280
  413TIP3    H125434   0.616   4.688  18.965 -3.9467 -0.0111 -1.6373
  413TIP3    H225435   0.567   4.830  18.983  0.6254  1.5422  0.0479
  414TIP3   OH225436   4.760   3.577  19.601  0.2187 -0.3332 -0.1229
  414TIP3    H125437   4.713   3.509  19.649 -0.7847  1.1254  1.0666
  414TIP3    H225438   4.694   3.646  19.587  1.4718  0.8675 -0.3110
  415TIP3   OH225439   6.308   5.235  19.267 -0.4265  0.1057  0.2137
  415TIP3    H125440   6.397   5.203  19.256 -0.0097  1.5471 -0.8488
  415TIP3    H225441   6.317   5.330  19.274 -1.6725  0.1290  2.5383
  416TIP3   OH225442   0.738   4.787  18.376 -0.1613  0.3267 -0.2594
  416TIP3    H125443   0.794   4.717  18.343  0.4678 -0.0033  1.3867
  416TIP3    H225444   0.798   4.846  18.422 -0.9213  0.9789 -0.0842
  417TIP3   OH225445   0.605   3.716  19.293 -0.1000  0.1027 -0.1476
  417TIP3    H125446   0.681   3.773  19.287  0.0833  0.0135  1.0591
  417TIP3    H225447   0.620   3.648  19.227  1.9676 -1.1562  1.4556
  418TIP3   OH225448   7.202   4.229  18.149 -0.5467 -0.3111 -0.6862
  418TIP3    H125449   7.126   4.171  18.144 -1.3805  0.6287  0.4900
  418TIP3    H225450   7.246   4.205  18.231 -1.6508  1.5292  0.5191
  419TIP3   OH225451   1.478   7.128  18.618 -0.5055 -0.3245 -0.4171
  419TIP3    H125452   1.423   7.180  18.559 -0.1297  2.1423  1.2745
  419TIP3    H225453   1.437   7.137  18.704 -0.1606 -2.5303  0.0432
  420TIP3   OH225454   1.388   2.465  18.905 -0.0429  0.0492 -0.1896
  420TIP3    H125455   1.429   2.550  18.921 -1.0306  0.4493  0.3267
  420TIP3    H225456   1.403   2.448  18.812 -0.8519  1.3662 -0.5907
  421TIP3   OH225457   5.507   1.403  16.637 -0.1305 -0.6957 -0.2175
  421TIP3    H125458   5.473   1.314  16.641 -1.8725 -0.0454  0.6226
  421TIP3    H225459   5.535   1.422  16.727  1.4624 -0.8247 -0.6672
  422TIP3   OH225460   2.259   3.538  16.899  0.2248 -0.1491  0.2118
  422TIP3    H125461   2.197   3.480  16.943  0.8864 -2.3429 -1.5174
  422TIP3    H225462   2.211   3.572  16.823  1.2971 -2.9192 -1.9158
  423TIP3   OH225463   6.482   6.843  17.026 -0.0534 -0.1193  0.2635
  423TIP3    H125464   6.497   6.933  16.997  0.7515 -0.0570  0.8498
  423TIP3    H225465   6.432   6.803  16.955  1.7060  0.0922 -1.1782
  424TIP3   OH225466   3.236   4.009  18.831 -0.3360 -0.1976  0.5123
  424TIP3    H125467   3.192   3.936  18.875  1.5285 -1.1596  0.8965
  424TIP3    H225468   3.231   4.081  18.894 -1.6627 -0.1473  0.3808
  425TIP3   OH225469   0.849   4.253  16.755 -0.6052 -0.3119  0.0363
  425TIP3    H125470   0.772   4.199  16.736 -1.7842  1.0949  0.6034
  425TIP3    H225471   0.827   4.299  16.836  0.5757  0.5875 -0.1279
  426TIP3   OH225472   6.424   2.911  17.217  0.1355 -0.1196  0.0167
  426TIP3    H125473   6.496   2.973  17.203 -0.7191  0.5395 -1.6926
  426TIP3    H225474   6.433   2.848  17.145 -1.9160  0.9214 -1.2435
  427TIP3   OH225475   3.583   0.873  18.133  0.3756 -0.1209  0.2038
  427TIP3    H125476   3.510   0.848  18.190 -0.0646 -1.3367 -0.8360
  427TIP3    H225477   3.554   0.954  18.091 -1.0385 -1.3181 -1.2579
  428TIP3   OH225478   5.155   6.940  18.161  0.0067  0.4215  0.0861
  428TIP3    H125479   5.164   6.971  18.071 -1.2163  3.9621  1.0350
  428TIP3    H225480   5.245   6.924  18.190  0.4050 -1.1153 -1.7749
  429TIP3   OH225481   1.886   4.268  16.179  0.8094 -0.0429 -0.2038
  429TIP3    H125482   1.964   4.262  16.234  1.2872  2.1915 -0.5418
  429TIP3    H225483   1.851   4.355  16.197 -0.1886 -0.0437 -1.9234
  430TIP3   OH225484   5.218   4.567  17.908 -0.5084  0.2642  0.1094
  430TIP3    H125485   5.251   4.509  17.977 -1.0922  1.3080  1.3008
  430TIP3    H225486   5.284   4.635  17.901  0.4347 -0.7407 -1.6499
  431TIP3   OH225487   7.610   6.154  18.426 -0.5792  0.3550  0.4732
  431TIP3    H125488   7.698   6.191  18.429 -1.2155  2.9234 -3.8936
  431TIP3    H225489   7.554   6.223  18.464 -0.9393 -0.7858  2.1458
  432TIP3   OH225490   5.728   2.984  18.320  0.6796 -0.1211  0.1175
  432TIP3    H125491   5.681   3.067  18.331  2.2957  0.9477 -0.6428
  432TIP3    H225492   5.682   2.923  18.378  0.4615  1.7327  2.0475
  433TIP3   OH225493   3.880   1.824  17.725  0.4785 -0.7743 -0.3808
  433TIP3    H125494   3.913   1.876  17.652 -0.9620  0.8561  0.0620
  433TIP3    H225495   3.875   1.885  17.799 -2.3870 -1.1546 -0.1409
  434TIP3   OH225496   3.397   3.930  17.488 -0.2126  0.1188  0.0697
  434TIP3    H125497   3.465   3.993  17.512  0.0632 -0.4203  0.7238
  434TIP3    H225498   3.427   3.847  17.524 -0.3975 -0.4739 -1.0911
  435TIP3   OH225499   7.098   5.471  18.028  0.1820  0.3120  0.1791
  435TIP3    H125500   7.173   5.530  18.032 -0.4530  1.1242  0.3352
  435TIP3    H225501   7.102   5.421  18.109  3.4138 -3.3022 -1.8489
  436TIP3   OH225502   7.650   1.326  19.265 -0.0327  0.2056  0.3601
  436TIP3    H125503   7.603   1.408  19.251 -1.6261 -0.9777 -1.8178
  436TIP3    H225504   7.583   1.265  19.295  0.1252 -1.3258 -2.0715
  437TIP3   OH225505   5.615   2.724  19.045  0.3097 -0.6519 -0.5525
  437TIP3    H125506   5.528   2.715  19.006 -0.4144  0.5479  0.7134
  437TIP3    H225507   5.634   2.817  19.039  1.4281 -0.8753 -0.6156
  438TIP3   OH225508   3.205   3.847  17.325 -0.2738 -0.1718  0.0411
  438TIP3    H125509   3.269   3.876  17.391  0.2273 -0.3905 -0.3414
  438TIP3    H225510   3.242   3.877  17.242  0.3742 -2.0364 -0.4011
  439TIP3   OH225511   0.087   7.215  18.479  0.5152  0.2452  0.4174
  439TIP3    H125512   0.015   7.253  18.429 -1.1334 -1.0318  1.7095
  439TIP3    H225513   0.129   7.154  18.418 -1.8762 -1.7995  0.6657
  440TIP3   OH225514   5.867   1.542  18.088 -0.5079 -0.0790  0.4351
  440TIP3    H125515   5.824   1.458  18.070  1.4823 -0.9277 -0.6465
  440TIP3    H225516   5.840   1.564  18.177 -1.5861 -1.5380  0.5064
  441TIP3   OH225517   0.586   6.157  18.847  0.9642 -0.0360  0.0783
  441TIP3    H125518   0.499   6.180  18.881  0.9563 -1.7293  1.3299
  441TIP3    H225519   0.605   6.225  18.783 -0.4811  1.4179  1.1143
  442TIP3   OH225520   5.401   3.231  19.230  0.0805 -0.1841 -0.1223
  442TIP3    H125521   5.400   3.313  19.279  0.0247  0.1541 -0.6822
  442TIP3    H225522   5.335   3.177  19.272  0.5318 -0.1665  0.6254
  443TIP3   OH225523   0.430   5.920  16.440  0.3857  0.1821  0.4766
  443TIP3    H125524   0.432   5.975  16.362  1.4902  1.0006  1.0582
  443TIP3    H225525   0.483   5.844  16.417  0.4227  0.2575  0.3123
  444TIP3   OH225526   3.407   2.063  18.599 -0.4989 -0.0799  0.0930
  444TIP3    H125527   3.495   2.060  18.637  0.0718 -0.8681 -1.2209
  444TIP3    H225528   3.361   2.130  18.651  1.0575  0.8093  0.3969
  445TIP3   OH225529   0.093   2.425  17.741 -0.2280  0.0908 -0.1342
  445TIP3    H125530   0.150   2.370  17.794  2.0304  0.5126 -1.9896
  445TIP3    H225531   0.041   2.474  17.805  2.1313  0.3605  1.7321
  446TIP3   OH225532   0.083   6.508  17.605 -0.5765  0.2057 -0.2341
  446TIP3    H125533   0.051   6.479  17.690 -0.3545 -2.7596 -1.0336
  446TIP3    H225534   0.178   6.514  17.615 -0.5962  0.3702 -0.1442
  447TIP3   OH225535   1.362   3.826  17.250 -0.1664  0.4315  0.5195
  447TIP3    H125536   1.397   3.896  17.194 -0.7747  1.2278  1.1135
  447TIP3    H225537   1.270   3.849  17.261 -0.7012 -1.1632 -0.3137
  448TIP3   OH225538   7.212   4.825  17.406  0.3393  0.3936 -0.3119
  448TIP3    H125539   7.151   4.756  17.431  0.0037  0.4413 -0.9733
  448TIP3    H225540   7.298   4.787  17.422  0.1453  0.3442  0.6769
  449TIP3   OH225541   0.110   6.169  18.048 -0.4603  0.1415  0.3048
  449TIP3    H125542   0.018   6.174  18.074 -0.2278  1.5917  0.9595
  449TIP3    H225543   0.108   6.177  17.953 -1.0247 -0.0733  0.2930
  450TIP3   OH225544   2.875   2.180  17.822 -0.5340  0.7292  0.3603
  450TIP3    H125545   2.844   2.233  17.895  0.2302  0.3036  1.0027
  450TIP3    H225546   2.874   2.090  17.855 -0.8895  0.4487 -0.3977
  451TIP3   OH225547   3.159   0.592  17.608  0.1606 -0.1757 -0.3296
  451TIP3    H125548   3.241   0.599  17.658  0.1692  2.0298 -0.5630
  451TIP3    H225549   3.184   0.612  17.518 -0.5321 -0.0664 -0.5028
  452TIP3   OH225550   4.789   3.035  18.821 -0.1222 -0.1476 -0.5074
  452TIP3    H125551   4.809   3.036  18.915  0.5350  2.9780 -0.5833
  452TIP3    H225552   4.857   2.981  18.782  0.2543 -0.5715  0.7045
  453TIP3   OH225553   6.538   3.367  18.957 -0.4483 -0.2131 -0.1642
  453TIP3    H125554   6.544   3.430  18.886 -2.1022 -0.7237 -0.8135
  453TIP3    H225555   6.495   3.414  19.028 -0.6137 -0.2770 -0.2221
  454TIP3   OH225556   2.729   3.875  19.431  0.1475  0.5289 -0.7269
  454TIP3    H125557   2.654   3.869  19.490 -0.6779  1.7247 -1.6125
  454TIP3    H225558   2.798   3.917  19.484  0.0344 -0.0807 -0.0764
  455TIP3   OH225559   3.910   4.422  18.354  0.2004 -0.3955 -0.5064
  455TIP3    H125560   3.914   4.426  18.258  2.8339  1.2448 -0.4221
  455TIP3    H225561   3.974   4.355  18.378 -0.2769 -0.6328  0.1396
  456TIP3   OH225562   0.358   0.591  18.514 -0.6542 -0.3585  0.4728
  456TIP3    H125563   0.292   0.573  18.581 -2.0248 -1.2957 -1.0597
  456TIP3    H225564   0.341   0.681  18.487 -0.6395 -0.2569  0.7983
  457TIP3   OH225565   4.623   3.458  18.551 -0.2141  0.1521  0.7113
  457TIP3    H125566   4.691   3.476  18.616 -0.3681  0.8157  0.6978
  457TIP3    H225567   4.588   3.545  18.529  0.4383  0.0486 -0.8977
  458TIP3   OH225568   5.950   2.697  17.219 -0.2813  0.0063 -0.0882
  458TIP3    H125569   6.040   2.676  17.197 -1.1597 -1.0305 -3.1929
  458TIP3    H225570   5.907   2.612  17.228 -1.1959  0.4723  0.1338
  459TIP3   OH225571   0.113   5.651  17.214  0.1617 -0.5865  0.1667
  459TIP3    H125572   0.061   5.708  17.270 -1.2679 -0.4302 -1.2341
  459TIP3    H225573   0.056   5.577  17.194 -0.2641  0.3709 -2.7418
  460TIP3   OH225574   4.920   0.514  18.540  0.0334  0.1043 -0.4669
  460TIP3    H125575   4.831   0.546  18.550  0.3557  1.1072 -0.6054
  460TIP3    H225576   4.964   0.582  18.487  0.6116 -0.8506 -1.2539
  461TIP3   OH225577   2.148   6.818  17.308 -0.2994 -0.7528  0.3454
  461TIP3    H125578   2.096   6.805  17.387  1.7738 -2.7765  1.4822
  461TIP3    H225579   2.128   6.740  17.255 -0.1106 -0.4268 -0.2071
  462TIP3   OH225580   5.662   7.672  18.174 -0.1406  0.4033 -0.0168
  462TIP3    H125581   5.606   7.626  18.236  0.3865  0.7941  0.7685
  462TIP3    H225582   5.722   7.722  18.229  1.7360 -0.8787 -0.7845
  463TIP3   OH225583   0.018   3.752  19.113 -0.4876 -0.2175  0.1630
  463TIP3    H125584   0.008   3.835  19.160 -2.8414 -0.4266  0.1401
  463TIP3    H225585   0.113   3.741  19.104 -0.0928  1.9857  0.9975
  464TIP3   OH225586   4.895   6.312  16.546  0.0902  0.2369 -0.1351
  464TIP3    H125587   4.829   6.283  16.609  1.0553  0.6261  1.1005
  464TIP3    H225588   4.880   6.406  16.537  1.7782  0.7911  1.8713
  465TIP3   OH225589   4.526   1.670  18.091 -0.1589  0.5444  0.5724
  465TIP3    H125590   4.487   1.748  18.051 -0.5622  1.0805  1.9427
  465TIP3    H225591   4.499   1.674  18.183  1.6981  0.0131  1.1962
  466TIP3   OH225592   5.557   5.393  18.634  0.0123  0.3384 -0.2260
  466TIP3    H125593   5.536   5.473  18.586  1.6022  1.3577  0.7303
  466TIP3    H225594   5.605   5.422  18.711 -1.8177 -1.3129  1.6830
  467TIP3   OH225595   0.125   3.796  17.450  1.2603 -0.1922 -0.2546
  467TIP3    H125596   0.069   3.786  17.527  1.8517  1.2910  0.4113
  467TIP3    H225597   0.069   3.775  17.376  0.2000 -0.0181  0.4754
  468TIP3   OH225598   0.706   5.863  16.976  0.3770 -0.2962  0.3194
  468TIP3    H125599   0.731   5.851  16.884  1.4931  1.5484  0.3473
  468TIP3    H225600   0.787   5.848  17.025  0.4159  1.3144  0.7784
  469TIP3   OH225601   3.638   0.029  18.206  0.0313 -0.3709 -0.0957
  469TIP3    H125602   3.690   0.086  18.264  0.2073 -0.2857 -0.3381
  469TIP3    H225603   3.649  -0.059  18.243  0.3033 -0.3453 -0.1168
  470TIP3   OH225604   5.307   7.080  17.975 -0.2804 -0.5143  0.1042
  470TIP3    H125605   5.346   7.130  18.047 -1.3319  0.3074  0.1380
  470TIP3    H225606   5.329   7.130  17.896 -0.3569 -0.6247  0.0136
  471TIP3   OH225607   7.511   7.531  17.347  0.2656  0.1507 -0.2071
  471TIP3    H125608   7.550   7.493  17.269 -0.0031 -0.0316 -0.2500
  471TIP3    H225609   7.421   7.551  17.323  0.5247  1.2644 -0.3415
  472TIP3   OH225610   3.364   5.220  19.434 -0.4231 -0.1765  0.1355
  472TIP3    H125611   3.343   5.292  19.494  1.0328  0.0594  0.3844
  472TIP3    H225612   3.386   5.147  19.492 -0.2072 -0.3156 -0.1223
  473TIP3   OH225613   2.946   7.323  17.387 -0.8941  0.0546  0.0236
  473TIP3    H125614   2.900   7.399  17.423 -1.5334 -0.2791 -0.0746
  473TIP3    H225615   2.887   7.250  17.401  0.3427 -0.7149  1.4727
  474TIP3   OH225616   1.780   1.570  16.920 -0.0811 -0.5810  0.2346
  474TIP3    H125617   1.751   1.523  16.842 -0.1127  1.1691 -0.8521
  474TIP3    H225618   1.756   1.512  16.993 -1.5671 -1.5086 -0.9269
  475TIP3   OH225619   4.739   2.379  17.211 -0.0750  0.0741  0.2237
  475TIP3    H125620   4.788   2.356  17.291 -1.2716 -1.2595  0.6203
  475TIP3    H225621   4.703   2.466  17.229 -0.4182 -0.2572  1.1960
  476TIP3   OH225622   4.276   3.342  16.844 -0.2015  0.1095  0.1188
  476TIP3    H125623   4.279   3.429  16.805  0.4118  0.1096  0.1645
  476TIP3    H225624   4.352   3.296  16.809  0.6070  0.2406  1.6107
  477TIP3   OH225625   6.688   7.656  19.163 -0.1012 -0.2511  0.3598
  477TIP3    H125626   6.704   7.748  19.182 -0.2798  0.1038 -1.0938
  477TIP3    H225627   6.616   7.631  19.221 -0.3260  0.6460  0.4699
  478TIP3   OH225628   6.956   1.500  18.973 -0.2521 -0.4072 -0.5099
  478TIP3    H125629   7.041   1.536  18.945  0.1364 -1.5624 -0.8560
  478TIP3    H225630   6.901   1.506  18.895 -0.3889  0.0325 -0.3815
  479TIP3   OH225631   3.768   6.348  17.086  0.2973 -0.2847  0.2269
  479TIP3    H125632   3.761   6.385  16.997 -2.0849 -0.1504  0.4116
  479TIP3    H225633   3.741   6.420  17.143 -0.8309 -1.1972  0.8562
  480TIP3   OH225634   7.674   3.263  17.179  0.0821 -0.5264 -0.2930
  480TIP3    H125635   7.665   3.174  17.213  0.5621 -0.7102 -0.6332
  480TIP3    H225636   7.602   3.273  17.118 -1.0217 -0.0599  1.0397
  481TIP3   OH225637   0.864   5.127  18.985 -0.0439  0.0367 -0.2692
  481TIP3    H125638   0.777   5.117  19.024  0.5517 -0.1070  1.0820
  481TIP3    H225639   0.886   5.219  18.997 -0.3701  0.2783 -1.4352
  482TIP3   OH225640   2.311   4.639  16.748  0.3822  0.3874 -0.5081
  482TIP3    H125641   2.242   4.695  16.712  0.9838  0.8444 -0.9624
  482TIP3    H225642   2.296   4.554  16.707 -0.5957  0.1618  0.2592
  483TIP3   OH225643   7.189   1.284  18.207 -0.2451 -0.1967 -0.0953
  483TIP3    H125644   7.272   1.312  18.244 -0.0690 -0.8194 -0.0066
  483TIP3    H225645   7.213   1.241  18.125 -0.6825  1.8812 -1.4062
  484TIP3   OH225646   5.766   1.753  18.970 -0.1654 -0.6828  1.0996
  484TIP3    H125647   5.807   1.701  18.901  0.9366  0.7389  0.6175
  484TIP3    H225648   5.721   1.824  18.923  0.3884  0.1616  1.8113
  485TIP3   OH225649   5.950   5.674  18.206 -0.4047 -0.1996  0.1206
  485TIP3    H125650   6.004   5.683  18.128 -1.7813 -0.3210 -0.8707
  485TIP3    H225651   5.988   5.600  18.253  0.3157 -0.2457 -0.5216
  486TIP3   OH225652   6.141   7.261  16.734 -0.1320 -0.2970  0.5142
  486TIP3    H125653   6.105   7.297  16.816 -1.0050  0.2026 -0.0787
  486TIP3    H225654   6.172   7.337  16.686 -1.1369 -0.4162 -0.3435
  487TIP3   OH225655   6.662   3.091  18.619 -0.6441 -0.2527 -0.2580
  487TIP3    H125656   6.703   3.009  18.645 -1.4386 -2.0085 -3.9004
  487TIP3    H225657   6.593   3.065  18.558 -3.7003  2.9188  1.4864
  488TIP3   OH225658   3.377   7.292  18.774  0.4437  0.2404 -0.0887
  488TIP3    H125659   3.390   7.368  18.832  4.3765 -0.8322  0.7439
  488TIP3    H225660   3.375   7.217  18.834 -2.1198 -0.5299 -1.0018
  489TIP3   OH225661   4.844   1.011  17.622 -0.3017 -0.2071  0.0544
  489TIP3    H125662   4.895   0.943  17.579  0.4433  0.6341 -0.4184
  489TIP3    H225663   4.809   1.065  17.551 -0.6474  0.0701  0.4287
  490TIP3   OH225664   4.889   3.423  19.358 -1.1431  0.2492  0.2719
  490TIP3    H125665   4.865   3.476  19.434 -0.6113  1.5513 -0.4288
  490TIP3    H225666   4.893   3.486  19.286 -0.2055 -0.7066 -0.5449
  491TIP3   OH225667   6.104   5.307  18.824 -0.3048  0.4758  0.2179
  491TIP3    H125668   6.076   5.250  18.895 -1.5405  0.3368 -0.3553
  491TIP3    H225669   6.165   5.253  18.773 -1.1373 -0.2111 -0.0804
  492TIP3   OH225670   3.991   0.667  18.468  0.0813  0.1714 -0.0189
  492TIP3    H125671   3.905   0.707  18.482  0.7263  1.3555  0.7789
  492TIP3    H225672   4.030   0.719  18.398  0.2301 -0.2372 -0.2449
  493TIP3   OH225673   1.241   1.553  19.155  0.4365 -0.2450 -0.5828
  493TIP3    H125674   1.221   1.468  19.194  0.7950 -0.6417 -1.2441
  493TIP3    H225675   1.166   1.608  19.178  0.1026 -0.7986 -0.3253
  494TIP3   OH225676   5.651   4.078  18.393  0.2288 -0.0137 -0.4597
  494TIP3    H125677   5.645   4.080  18.298 -0.9429  1.9531 -0.4145
  494TIP3    H225678   5.575   4.027  18.421 -0.4822  0.9571 -0.5662
  495TIP3   OH225679   5.318   6.048  19.366  0.1205 -0.1609  0.2863
  495TIP3    H125680   5.265   6.089  19.298  0.8184  0.4573  0.1066
  495TIP3    H225681   5.272   5.966  19.386 -0.1281 -0.3183 -0.8715
  496TIP3   OH225682   2.907   7.045  16.806  0.4647  0.7622  0.1298
  496TIP3    H125683   2.946   6.982  16.866 -0.9136  0.9869  1.3267
  496TIP3    H225684   2.890   7.122  16.859 -1.1453  0.8346 -0.4236
  497TIP3   OH225685   3.591   0.193  18.020  0.3391 -0.0890  0.1446
  497TIP3    H125686   3.609   0.122  18.080 -0.1467  0.0981  0.5196
  497TIP3    H225687   3.673   0.244  18.017  0.2546  0.1095  0.9341
  498TIP3   OH225688   2.344   7.513  17.842  0.1579  0.0565  0.1794
  498TIP3    H125689   2.354   7.477  17.754  0.3004  0.1804  0.1445
  498TIP3    H225690   2.394   7.595  17.840 -0.1778  0.2644  0.2552
  499TIP3   OH225691   7.328   4.232  18.631 -0.1340  0.3807  0.4414
  499TIP3    H125692   7.281   4.163  18.583  1.5744 -0.8370  0.4030
  499TIP3    H225693   7.329   4.306  18.572  2.6242 -1.3290 -1.9179
  500TIP3   OH225694   6.515   7.584  18.900 -0.2083  1.2190 -0.4328
  500TIP3    H125695   6.597   7.633  18.887 -0.3620  1.2229 -1.4998
  500TIP3    H225696   6.450   7.652  18.917 -0.1043  1.2626 -0.2082
  501TIP3   OH225697   0.018   7.401  17.506  0.0693 -0.2658  0.5288
  501TIP3    H125698  -0.072   7.408  17.539 -0.0106 -1.5296  0.6266
  501TIP3    H225699   0.009   7.358  17.421  0.5299  0.3045  0.1817
  502TIP3   OH225700   6.018   3.438  17.574  0.2067  0.2376  0.1429
  502TIP3    H125701   6.102   3.398  17.549  0.4783  0.5537  0.5294
  502TIP3    H225702   5.959   3.364  17.587 -0.3513  0.0582 -2.6994
  503TIP3   OH225703   4.788   6.773  17.625 -0.1513 -0.3136  0.2941
  503TIP3    H125704   4.811   6.812  17.709  1.2100 -0.9846  0.2501
  503TIP3    H225705   4.793   6.845  17.563 -0.8739  0.1205  0.7256
  504TIP3   OH225706   0.879   1.703  18.846 -0.2991  0.1737 -0.3782
  504TIP3    H125707   0.938   1.659  18.785  0.5634  0.2839  0.3540
  504TIP3    H225708   0.843   1.777  18.796  0.5629  0.3939 -0.6856
  505TIP3   OH225709   4.221   6.803  18.439  0.4902  0.2698  0.3032
  505TIP3    H125710   4.269   6.828  18.360 -2.0048  0.4318 -1.2840
  505TIP3    H225711   4.230   6.708  18.444  1.1177  0.3173  0.1531
  506TIP3   OH225712   0.059   2.169  18.575  0.6611 -0.1634 -0.4424
  506TIP3    H125713   0.054   2.144  18.483  0.5382  0.8830 -0.7275
  506TIP3    H225714   0.149   2.202  18.586  0.8727 -0.8424 -0.0297
  507TIP3   OH225715   0.043   3.544  18.591 -0.7851  0.3423 -0.0098
  507TIP3    H125716  -0.035   3.554  18.645 -0.8426 -1.8319  0.3875
  507TIP3    H225717   0.018   3.482  18.523  0.1466  0.7986 -0.7876
  508TIP3   OH225718   1.773   7.661  17.095  0.6780 -0.7773 -0.3592
  508TIP3    H125719   1.810   7.658  17.007  1.2647 -2.6769 -0.0837
  508TIP3    H225720   1.753   7.570  17.116  0.8619 -0.4041  1.6049
  509TIP3   OH225721   3.000   0.809  17.422  0.2486 -0.4097  0.1794
  509TIP3    H125722   3.036   0.803  17.511  0.3999 -1.4887  0.0536
  509TIP3    H225723   3.064   0.764  17.367 -0.6912 -1.3214 -0.2139
  510TIP3   OH225724   1.961   3.176  17.453 -0.0154  0.4947  0.4128
  510TIP3    H125725   1.940   3.247  17.513 -1.5287  0.7745 -0.4025
  510TIP3    H225726   1.972   3.218  17.368 -2.4876 -0.3335 -0.4063
  511TIP3   OH225727   5.580   5.851  17.125 -0.3853  0.0091  0.0943
  511TIP3    H125728   5.612   5.786  17.187 -1.0744 -0.0866  0.3495
  511TIP3    H225729   5.508   5.808  17.080 -1.7656  1.0370  1.2303
  512TIP3   OH225730   5.524   5.108  18.835 -0.2776  0.5240  0.1084
  512TIP3    H125731   5.551   5.052  18.762  1.9236 -1.4253  2.2260
  512TIP3    H225732   5.555   5.195  18.812 -1.2074  0.3407 -2.0221
  513TIP3   OH225733   1.463   4.884  19.301 -0.8545 -0.7021  0.2125
  513TIP3    H125734   1.399   4.816  19.281 -0.5931 -0.2675 -2.4328
  513TIP3    H225735   1.412   4.964  19.309 -0.7759 -0.5068 -1.0266
  514TIP3   OH225736   0.199   5.969  17.672 -0.2361 -0.0339 -0.0110
  514TIP3    H125737   0.280   5.985  17.719 -1.6194  0.4670  2.3690
  514TIP3    H225738   0.213   6.006  17.585  2.6406 -1.4885 -0.2839
  515TIP3   OH225739   1.770   0.676  18.801  0.5700  0.2785 -0.3456
  515TIP3    H125740   1.686   0.720  18.814 -0.5014 -1.8263  0.2376
  515TIP3    H225741   1.795   0.698  18.711 -0.2046  1.5592 -0.2624
  516TIP3   OH225742   4.330   7.465  17.951  0.2858 -0.0089  0.5453
  516TIP3    H125743   4.390   7.398  17.983 -1.6001 -0.6530  3.0238
  516TIP3    H225744   4.247   7.445  17.994 -1.4684  1.4548 -1.9112
  517TIP3   OH225745   2.497   0.512  18.187 -0.4584  0.1108  0.4848
  517TIP3    H125746   2.550   0.489  18.263 -0.5907 -2.9484 -0.2499
  517TIP3    H225747   2.560   0.533  18.119 -0.2459 -0.4577  0.5010
  518TIP3   OH225748   0.290   5.607  17.418  0.3046 -0.0779  0.2228
  518TIP3    H125749   0.346   5.536  17.389  0.4664 -0.6422  1.8094
  518TIP3    H225750   0.223   5.615  17.351  0.1417 -1.8993  0.1431
  519TIP3   OH225751   3.173   7.533  17.708 -0.3159 -0.7920 -0.1539
  519TIP3    H125752   3.101   7.470  17.696 -0.1259 -0.6317 -2.9094
  519TIP3    H225753   3.130   7.613  17.737 -1.4582 -0.4740 -2.4746
  520TIP3   OH225754   1.107   4.393  17.474 -0.6421  0.4453  0.0622
  520TIP3    H125755   1.193   4.365  17.444 -1.7549 -2.0467 -1.0416
  520TIP3    H225756   1.121   4.423  17.564  1.5558  1.3748 -0.5273
  521TIP3   OH225757   7.532   2.066  16.758 -0.5589  0.4459  0.4053
  521TIP3    H125758   7.578   2.144  16.729 -0.6301 -0.0389 -1.1145
  521TIP3    H225759   7.496   2.028  16.678 -2.2646 -0.0491  1.3466
  522TIP3   OH225760   3.827   0.028  19.058  0.3604 -0.7438  0.0745
  522TIP3    H125761   3.797   0.087  18.988 -1.7761 -0.4310  1.1476
  522TIP3    H225762   3.922   0.028  19.051  0.2510 -0.2741 -2.4463
  523TIP3   OH225763   1.915   4.563  19.098 -0.4588 -0.8003 -0.0629
  523TIP3    H125764   1.941   4.648  19.063 -1.7518 -0.0768  0.6430
  523TIP3    H225765   1.837   4.582  19.150 -0.5884 -2.3795  0.3610
  524TIP3   OH225766   6.438   1.533  18.286  0.5289  0.1384 -0.2376
  524TIP3    H125767   6.522   1.520  18.331  0.4074 -1.0383 -0.3133
  524TIP3    H225768   6.420   1.449  18.245 -0.7671  0.3259 -0.1021
  525TIP3   OH225769   2.136   5.572  17.565 -0.3013 -0.1434 -0.1501
  525TIP3    H125770   2.213   5.526  17.598  0.3555  0.1531 -1.2323
  525TIP3    H225771   2.062   5.523  17.600  0.3789 -0.9424  0.2013
  526TIP3   OH225772   3.832   3.973  18.787  0.0792 -0.0818 -0.0664
  526TIP3    H125773   3.779   4.043  18.749  0.2419 -0.3265 -0.7468
  526TIP3    H225774   3.793   3.892  18.753  1.1640 -0.2515 -0.9374
  527TIP3   OH225775   6.874   1.150  18.613 -0.3062 -0.7726  0.2571
  527TIP3    H125776   6.882   1.197  18.530  1.0036 -1.8763 -0.2722
  527TIP3    H225777   6.793   1.185  18.653 -0.1898  0.7998 -0.7986
  528TIP3   OH225778   5.841   7.052  17.924 -0.7078 -0.6549  0.0656
  528TIP3    H125779   5.821   7.095  17.841 -0.5489 -0.8165 -0.0585
  528TIP3    H225780   5.863   6.962  17.900 -2.4925 -1.2230  0.4670
  529TIP3   OH225781   5.799   5.944  17.883 -0.1639 -0.0391  0.3005
  529TIP3    H125782   5.772   5.929  17.974  0.2995 -0.1877  0.4188
  529TIP3    H225783   5.888   5.979  17.891 -0.1471  0.0092 -0.0957
  530TIP3   OH225784   1.663   6.628  16.611  0.0084 -0.1903  0.0260
  530TIP3    H125785   1.725   6.644  16.540  1.1955  0.8866  1.2542
  530TIP3    H225786   1.709   6.657  16.690 -2.2671  1.1601  0.9362
  531TIP3   OH225787   6.272   5.851  18.433  0.1393  0.1034  0.3269
  531TIP3    H125788   6.185   5.874  18.401  0.3761 -1.5357 -1.6625
  531TIP3    H225789   6.257   5.785  18.501 -0.2814  2.4950  2.7277
  532TIP3   OH225790   4.946   6.508  17.164 -0.2519 -0.5689 -0.8403
  532TIP3    H125791   4.920   6.534  17.253 -1.6169 -1.8595 -0.8089
  532TIP3    H225792   5.034   6.543  17.153  0.5064 -1.5114  1.5550
  533TIP3   OH225793   4.739   0.704  19.187  0.1746 -0.0865  0.4040
  533TIP3    H125794   4.728   0.756  19.108 -0.1073  0.6284  0.9005
  533TIP3    H225795   4.650   0.689  19.219  0.3537  1.9507  2.0360
  534TIP3   OH225796   2.422   3.043  18.154  0.4445  0.1382 -0.1670
  534TIP3    H125797   2.363   2.986  18.104  2.5131 -0.6095 -1.9640
  534TIP3    H225798   2.467   2.983  18.214 -0.9318  0.7862  1.5677
  535TIP3   OH225799   7.345   5.351  17.569  0.6688  0.4529 -0.6677
  535TIP3    H125800   7.283   5.278  17.565 -0.3431  1.2748 -0.3861
  535TIP3    H225801   7.402   5.329  17.643 -1.5840  1.3732  1.5037
  536TIP3   OH225802   6.422   6.020  17.560  0.3840 -0.5018  0.0189
  536TIP3    H125803   6.479   6.077  17.612  0.5810  0.8715 -1.5928
  536TIP3    H225804   6.358   5.987  17.622  1.2849  0.1577  1.3399
  537TIP3   OH225805   7.408   6.328  18.527 -0.0676 -0.5527 -0.1089
  537TIP3    H125806   7.368   6.327  18.614  0.8580  1.4321  0.3962
  537TIP3    H225807   7.414   6.421  18.504  0.3085 -0.9997 -2.0260
  538TIP3   OH225808   1.445   1.067  16.499  0.5264  0.0049  0.0121
  538TIP3    H125809   1.527   1.044  16.543 -0.3164  0.6433  2.0390
  538TIP3    H225810   1.456   1.035  16.409  3.2795  0.7388 -0.0078
  539TIP3   OH225811   6.357   3.530  18.035  0.1121  0.1250  0.2692
  539TIP3    H125812   6.301   3.497  17.965 -0.3596  2.2666 -0.4316
  539TIP3    H225813   6.360   3.624  18.021  0.8063  0.5058  2.5559
  540TIP3   OH225814   1.644   1.590  17.990 -0.1740 -0.5155  0.3328
  540TIP3    H125815   1.673   1.611  17.901 -0.9633 -2.3139 -0.4098
  540TIP3    H225816   1.725   1.585  18.041  0.3254  0.1792 -0.3637
  541TIP3   OH225817   1.418   1.595  18.620  1.1902 -0.7253  0.0935
  541TIP3    H125818   1.425   1.553  18.534  1.2334 -2.5956  0.9669
  541TIP3    H225819   1.333   1.567  18.653  0.0922  1.8853 -0.2385
  542TIP3   OH225820   6.364   7.437  18.739 -0.8420 -0.3356 -0.0555
  542TIP3    H125821   6.418   7.490  18.798 -1.2696 -0.7130  0.6809
  542TIP3    H225822   6.343   7.496  18.666 -1.1426  0.4370  0.6487
  543TIP3   OH225823   6.431   7.482  18.123  0.4972 -0.2309  0.4445
  543TIP3    H125824   6.390   7.419  18.063  0.2048 -0.2557  0.6666
  543TIP3    H225825   6.458   7.429  18.198  0.5460 -0.1431  0.4883
  544TIP3   OH225826   4.526   5.656  17.917  0.0116  0.0882  0.6990
  544TIP3    H125827   4.574   5.578  17.889 -0.2164  0.8238 -2.0436
  544TIP3    H225828   4.508   5.641  18.009  1.3975 -2.3479  0.6586
  545TIP3   OH225829   4.732   4.289  18.260  0.3468 -0.1819 -0.5866
  545TIP3    H125830   4.653   4.281  18.206  1.0428  2.8547 -2.3245
  545TIP3    H225831   4.722   4.372  18.306  1.7238 -0.6303  0.6191
  546TIP3   OH225832   5.133   0.574  17.373  0.3772 -0.1556 -0.6911
  546TIP3    H125833   5.194   0.505  17.397 -1.6597 -2.0238 -0.5906
  546TIP3    H225834   5.104   0.611  17.457  2.3987  1.7921 -0.7642
  547TIP3   OH225835   4.429   6.021  17.465  0.0195  0.9607 -0.3214
  547TIP3    H125836   4.347   6.009  17.417 -1.1831  0.6163  1.7331
  547TIP3    H225837   4.474   6.091  17.417 -1.5646  1.3251 -1.3530
  548TIP3   OH225838   0.698   3.329  18.850 -0.4245  0.0632  0.7513
  548TIP3    H125839   0.755   3.265  18.894 -0.7954 -0.4008  0.5566
  548TIP3    H225840   0.734   3.336  18.762 -0.8161 -0.4286  0.5447
  549TIP3   OH225841   4.981   0.879  16.642 -0.3053 -0.2188  0.1314
  549TIP3    H125842   4.971   0.974  16.637 -0.3476 -0.1971  0.5281
  549TIP3    H225843   4.982   0.849  16.552 -1.4195  0.0389  0.0247
  550TIP3   OH225844   2.341   2.076  17.351  0.8903 -0.5078  0.2606
  550TIP3    H125845   2.295   2.145  17.397  0.3950  0.6732 -1.8601
  550TIP3    H225846   2.364   2.013  17.419  0.0895  1.0266  2.0496
  551TIP3   OH225847   3.672   1.716  18.443 -0.2417 -1.0627  0.6131
  551TIP3    H125848   3.666   1.634  18.492 -1.3830 -0.2989  1.8290
  551TIP3    H225849   3.586   1.756  18.451  0.7571  1.1062  1.6135
  552TIP3   OH225850   4.623   3.030  17.364 -0.0866 -0.1850 -0.4508
  552TIP3    H125851   4.661   3.058  17.281 -0.0214 -1.2606 -0.7948
  552TIP3    H225852   4.610   3.111  17.413  0.3829  0.4109 -1.2911
  553TIP3   OH225853   2.171   6.300  17.973 -0.2524 -0.0788 -0.1506
  553TIP3    H125854   2.210   6.239  18.036 -1.7865 -1.1350 -0.1588
  553TIP3    H225855   2.240   6.314  17.908  0.0755 -2.1004 -0.3304
  554TIP3   OH225856   7.398   2.515  18.049  0.0903  0.1362  0.0635
  554TIP3    H125857   7.377   2.505  18.142 -1.0467 -0.2055 -0.2043
  554TIP3    H225858   7.370   2.433  18.009 -0.7049  0.7850 -0.7733
  555TIP3   OH225859   4.830   1.730  18.935 -0.1740 -0.1654  0.4010
  555TIP3    H125860   4.809   1.675  19.010  1.9267 -2.9903 -0.9065
  555TIP3    H225861   4.767   1.801  18.940 -1.5175 -1.3685  3.5805
  556TIP3   OH225862   7.214   5.693  18.179  0.2539  0.5402  0.1536
  556TIP3    H125863   7.263   5.741  18.112  0.8118  1.7664  1.4106
  556TIP3    H225864   7.135   5.745  18.193 -0.5460 -0.4465 -0.5084
  557TIP3   OH225865   0.844   6.459  17.871  0.1529  0.2783 -0.3783
  557TIP3    H125866   0.940   6.462  17.866  0.3379 -0.7535  1.5875
  557TIP3    H225867   0.815   6.467  17.780  2.1330 -0.3996 -1.1187
  558TIP3   OH225868   4.578   3.782  19.551 -0.5969  0.0893  0.4638
  558TIP3    H125869   4.489   3.752  19.572 -0.9821  1.8101  1.4655
  558TIP3    H225870   4.565   3.849  19.484  0.1688 -1.1739 -1.0163
  559TIP3   OH225871   0.045   1.652  19.027  0.0452  0.1149 -0.1138
  559TIP3    H125872  -0.005   1.656  19.109  1.4252  1.0707  0.7224
  559TIP3    H225873   0.038   1.560  19.000 -1.3211  0.0125  0.4801
  560TIP3   OH225874   6.987   6.462  19.013  0.2181  0.4219  0.3442
  560TIP3    H125875   6.960   6.428  18.927  1.4663  0.6514 -0.1594
  560TIP3    H225876   6.906   6.491  19.053 -0.5948 -1.0525 -0.1381
  561TIP3   OH225877   0.714   5.491  18.575  0.4001 -0.3579  0.3344
  561TIP3    H125878   0.787   5.449  18.621  1.4825  2.0826  1.0338
  561TIP3    H225879   0.728   5.585  18.588 -1.3867  0.3127 -1.8189
  562TIP3   OH225880   2.631   6.898  17.298 -0.1093 -0.2485  0.1509
  562TIP3    H125881   2.634   6.809  17.263 -0.3126 -0.3265  0.3290
  562TIP3    H225882   2.540   6.909  17.327 -0.6780  0.7663 -1.8410
  563TIP3   OH225883   4.698   2.208  17.970 -0.2948 -0.4222  0.3876
  563TIP3    H125884   4.663   2.266  17.902  0.2870  0.7054  1.0180
  563TIP3    H225885   4.752   2.145  17.922 -2.7000 -1.8934 -0.5550
  564TIP3   OH225886   5.436   7.146  18.215 -0.2616 -0.0826 -0.5156
  564TIP3    H125887   5.521   7.114  18.188  0.5746  1.1212  0.5595
  564TIP3    H225888   5.444   7.158  18.310 -0.8931  2.0632 -0.6743
  565TIP3   OH225889   7.117   5.958  18.999  0.1801  0.1421  0.0048
  565TIP3    H125890   7.190   5.937  19.057 -0.8933 -0.2986  1.2191
  565TIP3    H225891   7.045   5.982  19.057 -0.0887  2.5941 -1.2108
  566TIP3   OH225892   1.350   5.284  18.014 -0.2185 -0.0657 -0.9789
  566TIP3    H125893   1.377   5.375  18.025  0.8778 -0.5528  0.8924
  566TIP3    H225894   1.359   5.267  17.920 -0.3517  1.7032 -1.3429
  567TIP3   OH225895   5.184   6.399  17.283 -0.0114 -0.0723  0.0616
  567TIP3    H125896   5.207   6.416  17.375 -1.9170 -0.6154  0.6956
  567TIP3    H225897   5.190   6.485  17.241  0.0494  0.3540  0.9041
  568TIP3   OH225898   1.718   5.757  18.556  0.4669 -0.3588 -0.2724
  568TIP3    H125899   1.656   5.811  18.508  1.3401  1.5768  0.6825
  568TIP3    H225900   1.804   5.788  18.527  0.9998  0.1042  1.7057
  569TIP3   OH225901   1.516   6.497  16.883  0.6027  0.3811 -0.0253
  569TIP3    H125902   1.611   6.497  16.872  0.4109 -0.0559 -1.9371
  569TIP3    H225903   1.502   6.448  16.965  1.9326 -1.7513 -0.9799
  570TIP3   OH225904   2.258   4.332  18.099  0.2009  0.1310 -0.2332
  570TIP3    H125905   2.312   4.351  18.176 -0.5085 -0.1607  0.3406
  570TIP3    H225906   2.213   4.250  18.120  0.6327 -0.4097 -1.3031
  571TIP3   OH225907   3.680   0.326  17.556  0.0216 -0.3540  0.1649
  571TIP3    H125908   3.740   0.365  17.619  1.3652 -1.2019 -0.5439
  571TIP3    H225909   3.635   0.400  17.516  0.5364  0.2904  0.7554
  572TIP3   OH225910   7.554   3.368  17.399 -0.1096  0.2404 -0.8420
  572TIP3    H125911   7.621   3.350  17.333  0.0732  1.1318 -0.9114
  572TIP3    H225912   7.510   3.284  17.413  2.8772 -1.1651  1.3278
  573TIP3   OH225913   0.685   4.563  19.125 -0.0044 -0.3371 -0.2638
  573TIP3    H125914   0.672   4.637  19.183  0.7623 -1.2679  1.1646
  573TIP3    H225915   0.642   4.490  19.169 -1.2532 -0.6533 -1.9217
  574TIP3   OH225916   6.624   1.862  17.563  0.9123 -0.1910 -0.5193
  574TIP3    H125917   6.559   1.796  17.538 -0.2877  0.7733 -0.0654
  574TIP3    H225918   6.619   1.866  17.658 -2.1899  3.4241 -0.5558
  575TIP3   OH225919   6.245   6.973  18.520 -0.4200 -0.4345  0.6820
  575TIP3    H125920   6.197   6.951  18.440 -0.2164 -0.7150  0.6326
  575TIP3    H225921   6.244   7.069  18.523 -2.0033 -0.4396  1.3072
  576TIP3   OH225922   5.143   6.328  16.645  0.0280  0.0308 -0.5206
  576TIP3    H125923   5.055   6.337  16.609  0.3166  2.3721 -0.7842
  576TIP3    H225924   5.174   6.243  16.612 -1.4953 -0.0708 -1.7989
  577TIP3   OH225925   3.206   4.112  17.675 -0.0427  0.1697 -0.0622
  577TIP3    H125926   3.264   4.035  17.675 -0.5985 -0.2586 -0.3055
  577TIP3    H225927   3.231   4.161  17.596  2.3525  1.8470  1.5915
  578TIP3   OH225928   6.866   6.238  17.119 -0.1591 -0.4624  0.2165
  578TIP3    H125929   6.897   6.147  17.115 -2.2495 -1.1987 -0.3471
  578TIP3    H225930   6.777   6.235  17.085 -0.2484  1.8475  0.0580
  579TIP3   OH225931   6.180   2.807  19.063  0.0073 -0.2796 -0.0758
  579TIP3    H125932   6.121   2.882  19.072  1.0044  0.2879  2.4624
  579TIP3    H225933   6.121   2.732  19.053 -1.0171  0.6962 -2.1255
  580TIP3   OH225934   1.240   6.493  19.256  0.1297  0.0399  0.4340
  580TIP3    H125935   1.284   6.573  19.228  1.2890 -0.2896  1.2219
  580TIP3    H225936   1.303   6.423  19.237 -0.6608 -0.6195  0.2217
  581TIP3   OH225937   6.470   3.037  18.107  0.2672 -0.3567  0.2854
  581TIP3    H125938   6.493   3.119  18.151 -1.8896 -0.0937  1.0552
  581TIP3    H225939   6.403   2.998  18.164 -1.6872 -0.6538 -2.0747
  582TIP3   OH225940   7.250   4.173  17.103  0.1046 -0.3198  0.4070
  582TIP3    H125941   7.320   4.111  17.126 -0.7441 -1.6244 -0.3564
  582TIP3    H225942   7.237   4.160  17.009  0.1444  1.3168  0.1597
  583TIP3   OH225943   7.540   3.166  18.213 -0.7386 -0.4259  0.3419
  583TIP3    H125944   7.553   3.164  18.118 -0.3932 -0.1411  0.3802
  583TIP3    H225945   7.539   3.259  18.235 -0.0563 -0.4948  0.7075
  584TIP3   OH225946   6.655   2.380  17.986  0.0904  0.8478 -1.2629
  584TIP3    H125947   6.562   2.363  18.000  0.5385 -1.5749 -0.8102
  584TIP3    H225948   6.677   2.446  18.052 -1.1156  0.8785 -0.8574
  585TIP3   OH225949   5.129   2.448  18.634  0.6268  0.4293 -0.0567
  585TIP3    H125950   5.158   2.498  18.557  0.0054 -0.8147 -1.1423
  585TIP3    H225951   5.063   2.388  18.599 -0.0117  0.1625  1.5531
  586TIP3   OH225952   1.476   7.112  16.091 -0.3660  0.3501  0.0675
  586TIP3    H125953   1.565   7.086  16.115 -0.7254  0.9652  2.2305
  586TIP3    H225954   1.441   7.035  16.045  1.0336 -0.1471 -0.2189
  587TIP3   OH225955   5.360   2.559  19.103  0.0992 -0.3393  0.4142
  587TIP3    H125956   5.378   2.498  19.175  1.6650 -0.7204 -0.2697
  587TIP3    H225957   5.397   2.516  19.026 -0.9651  0.3749 -0.5211
  588TIP3   OH225958   2.318   4.361  17.812 -0.5788 -0.0641  0.5974
  588TIP3    H125959   2.326   4.275  17.771  1.1310 -0.1341  1.0019
  588TIP3    H225960   2.260   4.347  17.887 -0.7366 -0.7424  0.3526
  589TIP3   OH225961   4.144   3.791  19.182 -0.2932 -0.0547 -0.4115
  589TIP3    H125962   4.232   3.775  19.148 -0.7315 -1.7484 -0.8033
  589TIP3    H225963   4.155   3.867  19.240  0.6128  2.5106 -3.6540
  590TIP3   OH225964   6.451   5.773  17.374 -0.2445  0.1059  0.1861
  590TIP3    H125965   6.533   5.821  17.373 -0.4373  0.4441  0.4912
  590TIP3    H225966   6.438   5.749  17.466 -0.1521 -0.5268  0.0388
  591TIP3   OH225967   2.633   3.682  16.739 -0.2942 -0.9017 -0.3848
  591TIP3    H125968   2.708   3.728  16.775 -0.3095 -1.8449  0.9151
  591TIP3    H225969   2.631   3.708  16.646  1.1946 -0.3182 -0.2807
  592TIP3   OH225970   3.496   6.174  17.323  0.1129 -0.1005  0.2986
  592TIP3    H125971   3.541   6.094  17.351  0.5593  0.6014  1.6880
  592TIP3    H225972   3.567   6.234  17.300 -0.2276 -0.2006 -1.0687
  593TIP3   OH225973   0.756   5.259  18.452  0.2326  0.2625  0.4639
  593TIP3    H125974   0.692   5.327  18.472  2.2201  2.2803  0.3510
  593TIP3    H225975   0.811   5.255  18.530  1.2502  0.0988 -0.2547
  594TIP3   OH225976   1.877   4.188  18.905 -0.0540  0.1197 -0.4948
  594TIP3    H125977   1.909   4.176  18.995  0.0949  1.6642 -0.3157
  594TIP3    H225978   1.913   4.113  18.857  1.7798  0.4732  0.2458
  595TIP3   OH225979   2.516   4.147  18.150 -0.2486  0.0058 -0.6030
  595TIP3    H125980   2.579   4.219  18.142 -1.3350  0.9776 -0.5927
  595TIP3    H225981   2.497   4.142  18.243 -0.2919 -0.2042 -0.6224
  596TIP3   OH225982   1.459   7.547  17.900  0.4493  0.0508  0.3002
  596TIP3    H125983   1.454   7.549  17.804 -1.5506  0.5955  0.3589
  596TIP3    H225984   1.474   7.638  17.925 -0.3031  0.1136  0.5331
  597TIP3   OH225985   5.212   6.978  18.988 -0.2505 -0.2515 -0.1828
  597TIP3    H125986   5.124   6.975  18.951  0.1315 -1.5110 -1.0580
  597TIP3    H225987   5.270   6.985  18.912  0.4016  0.9369  0.4043
  598TIP3   OH225988   2.029   5.499  17.282 -0.3530  0.3334 -0.1250
  598TIP3    H125989   1.951   5.553  17.285 -0.7676 -0.1996 -0.9659
  598TIP3    H225990   2.078   5.522  17.361 -1.7646  0.0456  0.8600
  599TIP3   OH225991   3.913   4.409  18.077 -0.0269  0.3280 -0.3213
  599TIP3    H125992   3.918   4.473  18.007  0.8560  0.2060 -0.3778
  599TIP3    H225993   3.831   4.361  18.060  0.1239  0.3694 -1.2006
  600TIP3   OH225994   2.875   6.092  18.055 -0.1652  0.3619  0.6106
  600TIP3    H125995   2.893   6.011  18.103 -1.4093  0.4002  1.1699
  600TIP3    H225996   2.825   6.064  17.979 -1.6225  0.6974  1.4122
  601TIP3   OH225997   4.722   6.691  18.619 -0.2200  0.5376  0.4805
  601TIP3    H125998   4.732   6.731  18.533 -2.9565 -1.3310 -0.8699
  601TIP3    H225999   4.793   6.627  18.624 -0.2247  0.4335 -0.5704
  602TIP3   OH226000   0.000   2.409  18.395 -0.2384 -0.3559 -0.0351
  602TIP3    H126001   0.079   2.357  18.384 -0.9841 -1.2639 -1.3606
  602TIP3    H226002  -0.004   2.427  18.489  2.0183  0.5250 -0.0401
  603TIP3   OH226003   4.301   5.471  17.428  0.0111 -0.2945 -0.0829
  603TIP3    H126004   4.267   5.442  17.343  0.7702 -1.2900 -0.0707
  603TIP3    H226005   4.313   5.565  17.418 -1.9069 -0.0368 -0.3565
  604TIP3   OH226006   1.714   4.725  19.204  0.5532 -0.6661 -1.0028
  604TIP3    H126007   1.649   4.752  19.269  2.5427  0.3424  0.6994
  604TIP3    H226008   1.712   4.793  19.137  2.0618  1.2497  0.7443
  605TIP3   OH226009   2.537   0.421  18.459 -0.1636  0.3984 -0.6144
  605TIP3    H126010   2.596   0.407  18.533  1.4154  0.8795 -1.7315
  605TIP3    H226011   2.449   0.423  18.499  0.4513 -1.3171  0.9633
  606TIP3   OH226012   7.187   0.166  18.293 -0.3785 -0.7581  0.0721
  606TIP3    H126013   7.211   0.210  18.212  0.5275 -0.6750  0.3733
  606TIP3    H226014   7.108   0.116  18.272 -0.9423  0.3482 -0.4901
  607TIP3   OH226015   6.452   5.405  18.700 -0.0644 -0.2683 -0.2986
  607TIP3    H126016   6.474   5.403  18.793  1.2571  0.0327 -0.5882
  607TIP3    H226017   6.523   5.357  18.657  0.5343  1.4774 -1.3657
  608TIP3   OH226018   7.358   6.762  17.714  0.2974  0.2158 -0.8860
  608TIP3    H126019   7.335   6.806  17.795 -0.6265 -0.6409 -0.6608
  608TIP3    H226020   7.439   6.714  17.734  0.2820  0.3176 -0.5910
  609TIP3   OH226021   0.365   6.167  16.318  0.4182  0.3382  0.2340
  609TIP3    H126022   0.397   6.142  16.231  0.3305 -1.5456  0.7117
  609TIP3    H226023   0.292   6.227  16.299 -0.0231 -0.5419 -1.0386
  610TIP3   OH226024   0.434   4.083  18.609 -0.3078 -0.1940  0.4257
  610TIP3    H126025   0.347   4.115  18.634  0.0823  0.4268  1.0251
  610TIP3    H226026   0.457   4.134  18.532 -1.3224 -1.7954 -1.0012
  611TIP3   OH226027   1.186   4.877  18.101  0.1624  0.1636  0.0249
  611TIP3    H126028   1.243   4.955  18.102 -0.6570  0.8179 -1.2246
  611TIP3    H226029   1.176   4.853  18.193 -0.1512  1.9947  0.5067
  612TIP3   OH226030   4.992   5.604  17.169  0.1956  0.2764  0.0707
  612TIP3    H126031   4.986   5.627  17.076 -0.4426  0.3297  0.1215
  612TIP3    H226032   5.085   5.587  17.184  0.3732  0.7516 -0.4633
  613TIP3   OH226033   1.861   6.300  16.342  0.4055 -0.4425 -0.7110
  613TIP3    H126034   1.861   6.385  16.300  1.2150  0.0378  0.2118
  613TIP3    H226035   1.771   6.286  16.370  0.4336  0.5046 -0.1210
  614TIP3   OH226036   4.047   6.526  16.987  0.0046 -0.0966  0.9440
  614TIP3    H126037   4.123   6.512  16.931  0.2592  0.5737  1.1095
  614TIP3    H226038   3.973   6.531  16.927  0.4436  2.0055  0.5062
  615TIP3   OH226039   2.606   1.645  18.752  0.3008  0.2399 -0.1241
  615TIP3    H126040   2.614   1.668  18.844  0.2290 -0.0264 -0.0527
  615TIP3    H226041   2.690   1.672  18.714 -0.0616  1.3252 -0.1920
  616TIP3   OH226042   6.503   4.669  19.147 -0.1724  0.2277 -0.4495
  616TIP3    H126043   6.517   4.682  19.241 -2.1562  0.6436 -0.1680
  616TIP3    H226044   6.536   4.749  19.107  1.6280 -0.3689 -0.2490
  617TIP3   OH226045   0.806   6.338  17.185 -0.2164 -0.1214  0.1533
  617TIP3    H126046   0.887   6.385  17.205 -0.2238 -0.5684  1.3294
  617TIP3    H226047   0.763   6.391  17.118 -0.5561  1.9548  1.8972
  618TIP3   OH226048   4.091   3.781  19.606 -0.2657  0.3001 -0.1078
  618TIP3    H126049   4.041   3.710  19.567 -0.1395  1.4052 -2.4738
  618TIP3    H226050   4.031   3.856  19.605 -0.2262  0.4214  1.8589
  619TIP3   OH226051   1.347   5.346  17.233 -0.2614  0.3638  0.3198
  619TIP3    H126052   1.307   5.309  17.312 -0.8182  0.2489 -0.0118
  619TIP3    H226053   1.440   5.331  17.245 -0.2556  1.1307  1.3622
  620TIP3   OH226054   7.370   0.297  17.523  0.4366  0.2125  0.4203
  620TIP3    H126055   7.378   0.326  17.433  0.7223  0.8066  0.6341
  620TIP3    H226056   7.367   0.378  17.575 -1.3035 -0.0504  0.8210
  621TIP3   OH226057   0.252   6.468  19.295 -0.1345  0.4380 -0.0416
  621TIP3    H126058   0.163   6.487  19.265 -1.4087 -2.0642  1.7630
  621TIP3    H226059   0.305   6.541  19.263 -2.7914  1.9449 -1.2930
  622TIP3   OH226060   6.335   7.191  18.810 -0.0141  0.3826 -0.2000
  622TIP3    H126061   6.311   7.174  18.901 -0.0182  0.4658 -0.1870
  622TIP3    H226062   6.355   7.284  18.808  0.9601  0.1929 -0.0663
  623TIP3   OH226063   2.904   2.566  19.015  0.0621 -0.1336 -0.0622
  623TIP3    H126064   2.848   2.558  19.092 -0.8599 -0.7175 -0.7818
  623TIP3    H226065   2.985   2.606  19.049 -0.7779  0.7468  0.9851
  624TIP3   OH226066   4.910   2.977  19.068  0.3282 -0.6049  0.0801
  624TIP3    H126067   4.889   3.043  19.135  0.0949 -1.7563  1.1901
  624TIP3    H226068   4.909   2.894  19.116 -1.5692 -1.6899 -1.6897
  625TIP3   OH226069   4.078   7.384  18.474 -1.1891 -0.8144  0.3684
  625TIP3    H126070   4.116   7.300  18.449 -0.0752 -0.6947  1.5781
  625TIP3    H226071   4.036   7.367  18.558  0.0399  0.0869  1.1908
  626TIP3   OH226072   5.526   2.553  17.248  0.1063 -0.3463 -0.0965
  626TIP3    H126073   5.456   2.608  17.285 -1.4825 -1.6173 -1.0641
  626TIP3    H226074   5.547   2.595  17.164 -0.3216 -0.5871 -0.3285
  627TIP3   OH226075   4.531   3.036  19.411  0.4001  0.0641  0.2081
  627TIP3    H126076   4.574   3.119  19.391  1.3467  0.5993  3.7725
  627TIP3    H226077   4.602   2.972  19.412 -0.3967 -1.0530 -3.0591
  628TIP3   OH226078   4.405   6.589  16.528 -0.1380  0.0153 -0.0079
  628TIP3    H126079   4.374   6.605  16.439  0.9276  0.0461 -0.3896
  628TIP3    H226080   4.358   6.653  16.582  0.7664  1.4604 -0.8687
  629TIP3   OH226081   6.108   5.083  18.661  0.3498 -0.2024 -0.1020
  629TIP3    H126082   6.179   5.022  18.681  0.1903 -0.2304  0.3953
  629TIP3    H226083   6.028   5.036  18.684  0.2341  0.2664  0.5113
  630TIP3   OH226084   3.973   5.152  17.066 -0.1563 -0.0639 -0.2507
  630TIP3    H126085   3.965   5.211  16.991 -0.4715  0.0729 -0.1119
  630TIP3    H226086   3.974   5.210  17.142  2.0311 -0.0624 -0.2154
  631TIP3   OH226087   5.383   5.897  18.046  0.0438 -0.2256  0.5134
  631TIP3    H126088   5.342   5.811  18.056  0.8967 -0.6512  0.3686
  631TIP3    H226089   5.412   5.920  18.134 -1.4269  0.5705  0.8390
  632TIP3   OH226090   1.300   6.187  17.591 -0.4395 -0.0151  0.2798
  632TIP3    H126091   1.265   6.259  17.538  1.0529 -0.7943 -1.9483
  632TIP3    H226092   1.354   6.230  17.657 -1.4759  0.9644  0.5329
  633TIP3   OH226093   4.918   3.090  17.365  0.4336  0.0900 -0.3333
  633TIP3    H126094   4.868   3.068  17.286 -1.9867  1.2496  0.7634
  633TIP3    H226095   4.927   3.008  17.412  0.7308 -0.3728 -1.1772
  634TIP3   OH226096   0.582   2.070  18.186 -0.5756 -0.0909  0.5150
  634TIP3    H126097   0.547   2.101  18.270  0.1703 -2.1136  1.6333
  634TIP3    H226098   0.550   2.134  18.122 -1.7465  1.1298  2.2268
  635TIP3   OH226099   4.861   7.131  18.086  0.1240  0.4214 -0.4872
  635TIP3    H126100   4.859   7.152  18.179 -0.3200  3.3657 -1.0607
  635TIP3    H226101   4.947   7.162  18.057  0.0672 -0.0242 -1.1429
  636TIP3   OH226102   2.962   0.282  16.628 -0.6878 -0.3757 -0.3446
  636TIP3    H126103   2.953   0.356  16.689 -0.8068 -0.8012  0.1582
  636TIP3    H226104   3.057   0.272  16.616 -0.6845  0.1621 -0.7896
  637TIP3   OH226105   2.314   1.801  19.210  0.4433  0.0056 -0.1833
  637TIP3    H126106   2.314   1.736  19.139 -1.4886 -0.2647 -0.0096
  637TIP3    H226107   2.226   1.840  19.205  0.7456  0.9150  1.2350
  638TIP3   OH226108   4.434   4.068  17.202 -0.5087 -0.0679 -0.1433
  638TIP3    H126109   4.423   4.109  17.288  0.6588  1.2351 -0.5948
  638TIP3    H226110   4.383   4.123  17.142  0.8251  0.5840 -0.7060
  639TIP3   OH226111   0.573   2.418  17.063  0.0501  0.5126 -0.1920
  639TIP3    H126112   0.651   2.462  17.030  0.4170  1.1380  1.4248
  639TIP3    H226113   0.555   2.349  16.998  0.9789  1.3847 -1.4139
  640TIP3   OH226114   2.743   1.730  19.407 -0.2019 -0.0964 -0.3225
  640TIP3    H126115   2.725   1.747  19.499 -0.2792  1.5880 -0.6163
  640TIP3    H226116   2.686   1.655  19.385  0.1507 -0.8074  1.0817
  641TIP3   OH226117   4.466   1.728  17.365 -0.5406  0.0082 -0.0569
  641TIP3    H126118   4.375   1.723  17.392 -0.7232 -0.9780 -0.8134
  641TIP3    H226119   4.466   1.697  17.274  0.8396 -2.1487  0.6013
  642TIP3   OH226120   2.692   5.033  19.275 -0.5989 -0.0908 -0.2194
  642TIP3    H126121   2.627   4.963  19.275 -1.6022  0.8140 -0.6176
  642TIP3    H226122   2.774   4.989  19.297 -1.6312 -0.9958  2.2221
  643TIP3   OH226123   3.313   6.339  17.884 -0.6413 -0.7249  0.1209
  643TIP3    H126124   3.247   6.270  17.893 -2.3619  0.7654 -0.4796
  643TIP3    H226125   3.267   6.412  17.842  1.8817 -0.2788 -2.1545
  644TIP3   OH226126   5.367   5.451  17.933  0.7100 -0.7381  0.4703
  644TIP3    H126127   5.325   5.520  17.985  0.7009 -1.4162  1.3954
  644TIP3    H226128   5.426   5.497  17.873  2.1187 -0.0065  2.3404
  645TIP3   OH226129   1.084   4.366  16.858  0.4550  0.2379 -0.3903
  645TIP3    H126130   1.019   4.312  16.813  1.2201 -1.4378  0.4003
  645TIP3    H226131   1.090   4.327  16.946 -0.9016  3.3054  1.2038
  646TIP3   OH226132   6.901   4.403  17.570 -0.1731  0.2444 -0.3059
  646TIP3    H126133   6.904   4.475  17.632 -1.8288  1.2667 -1.3363
  646TIP3    H226134   6.953   4.334  17.611  2.0915  2.2165  0.3775
  647TIP3   OH226135   0.345   5.434  19.594 -0.2789  0.2870  0.1796
  647TIP3    H126136   0.418   5.490  19.569  0.6839 -1.1269 -0.2726
  647TIP3    H226137   0.289   5.430  19.516  0.6806 -0.9421 -0.4749
  648TIP3   OH226138   0.828   2.535  18.573  0.1542 -0.1076 -1.0292
  648TIP3    H126139   0.764   2.606  18.563  0.2666  0.6391  2.2129
  648TIP3    H226140   0.786   2.459  18.533 -2.4094  0.5765  0.1186
  649TIP3   OH226141   4.478   6.277  19.091 -0.9786 -0.0050 -0.0664
  649TIP3    H126142   4.505   6.185  19.089 -1.6094 -0.1983  0.2580
  649TIP3    H226143   4.511   6.310  19.174  1.1288  0.6576 -1.0907
  650TIP3   OH226144   6.905   2.518  17.655  0.3752 -0.2847  0.2728
  650TIP3    H126145   6.870   2.601  17.624  1.0200  0.2356  0.9041
  650TIP3    H226146   6.965   2.489  17.586  2.7670  1.4815  1.4581
  651TIP3   OH226147   1.019   4.196  18.868 -0.0808 -0.2335  0.3389
  651TIP3    H126148   1.028   4.102  18.886 -1.7768 -0.9242 -1.8389
  651TIP3    H226149   0.944   4.223  18.920 -0.2873 -0.3713  0.1153
  652TIP3   OH226150   4.610   7.295  19.208  0.3316  0.0197 -0.0562
  652TIP3    H126151   4.531   7.309  19.155 -0.8295 -0.2818  1.5152
  652TIP3    H226152   4.682   7.318  19.149 -0.9061  0.2327 -1.5758
  653TIP3   OH226153   0.791   3.640  18.880 -0.3800  0.1221 -0.0084
  653TIP3    H126154   0.759   3.611  18.795 -1.0018 -0.7600  0.5065
  653TIP3    H226155   0.886   3.650  18.869 -0.4889  0.2451 -0.8542
  654TIP3   OH226156   0.316   0.860  18.429 -0.0507 -0.3573 -0.3404
  654TIP3    H126157   0.403   0.879  18.464 -0.2584 -0.7368  0.3977
  654TIP3    H226158   0.255   0.891  18.497 -0.6325  2.5269 -1.9869
  655TIP3   OH226159   4.739   5.786  18.904  0.1882 -0.0472 -0.0274
  655TIP3    H126160   4.645   5.797  18.917  0.3188  1.5387 -0.1885
  655TIP3    H226161   4.773   5.766  18.991 -0.2728 -0.5147  0.0506
  656TIP3   OH226162   2.608   6.106  16.967 -0.1391 -0.6479 -0.8635
  656TIP3    H126163   2.610   6.055  17.047 -0.6077 -0.4947 -0.7493
  656TIP3    H226164   2.616   6.197  16.995 -2.6661 -0.3797 -0.7539
  657TIP3   OH226165   0.879   5.308  18.212  0.2310  0.3553  1.0607
  657TIP3    H126166   0.968   5.284  18.238  0.1681 -0.4926  0.5452
  657TIP3    H226167   0.824   5.281  18.285  0.4216  1.0863  1.4753
  658TIP3   OH226168   1.614   6.273  17.178  0.0365 -0.3514 -0.1967
  658TIP3    H126169   1.542   6.219  17.146 -0.4668  1.1515 -1.7253
  658TIP3    H226170   1.693   6.223  17.158 -0.4170 -0.5094 -1.6453
  659TIP3   OH226171   3.773   2.796  19.320  0.1808 -0.0814 -0.2717
  659TIP3    H126172   3.716   2.863  19.281  0.0110  1.2387  2.0371
  659TIP3    H226173   3.805   2.837  19.401  1.0224 -2.3838  0.6274
  660TIP3   OH226174   6.609   3.385  18.573 -0.0171  0.1222  0.7042
  660TIP3    H126175   6.597   3.296  18.605  0.1555 -0.7428 -1.4695
  660TIP3    H226176   6.704   3.397  18.571 -0.0492  0.6920  1.7730
  661TIP3   OH226177   6.316   6.667  16.869  0.2198  0.0270 -0.4407
  661TIP3    H126178   6.224   6.682  16.893  0.9084  0.9806  1.8309
  661TIP3    H226179   6.337   6.581  16.906  0.0959 -0.5183 -1.5711
  662TIP3   OH226180   3.890   3.042  19.530  0.0297 -0.4492 -0.3342
  662TIP3    H126181   3.914   3.049  19.622 -0.5466  0.1456 -0.2241
  662TIP3    H226182   3.814   3.099  19.520  1.1910  0.9665 -1.5862
  663TIP3   OH226183   7.537   5.341  18.250  0.3415  0.3420 -0.2199
  663TIP3    H126184   7.573   5.331  18.339  0.3829 -2.9760 -0.4673
  663TIP3    H226185   7.612   5.328  18.192 -0.1847 -0.5251 -0.7245
  664TIP3   OH226186   7.335   1.359  17.013  0.2572  0.2568 -0.0433
  664TIP3    H126187   7.275   1.285  17.013 -0.3037  0.6576 -2.0358
  664TIP3    H226188   7.420   1.322  16.989  0.1129  0.1425 -0.3884
  665TIP3   OH226189   1.345   4.869  18.670 -0.0471  0.1607 -0.0956
  665TIP3    H126190   1.386   4.820  18.599 -1.3693 -0.4874 -0.4462
  665TIP3    H226191   1.342   4.807  18.743 -0.9750 -0.0175 -0.2795
  666TIP3   OH226192   1.155   0.773  18.683 -0.4034  0.4930 -0.0911
  666TIP3    H126193   1.079   0.807  18.731 -0.6763  1.2481 -1.0254
  666TIP3    H226194   1.143   0.806  18.593  1.6787  1.6963  0.0152
  667TIP3   OH226195   0.534   6.862  18.591  0.3147 -0.1277 -0.1664
  667TIP3    H126196   0.622   6.825  18.579  0.9964  1.4866 -0.4038
  667TIP3    H226197   0.547   6.957  18.589 -1.3790  0.1535  0.2941
  668TIP3   OH226198   6.254   6.360  19.036  0.5595 -0.6439  0.1298
  668TIP3    H126199   6.191   6.394  18.972  0.1728 -2.7498 -0.6881
  668TIP3    H226200   6.340   6.381  18.999  0.3443 -2.1037 -1.2816
  669TIP3   OH226201   6.442   1.622  19.468 -0.0519 -0.2645 -0.3827
  669TIP3    H126202   6.386   1.595  19.396 -0.8910  2.1986 -0.7369
  669TIP3    H226203   6.529   1.632  19.429 -0.8017  2.5447 -1.5069
  670TIP3   OH226204   3.516   1.369  17.943  0.2429 -0.2792 -0.3590
  670TIP3    H126205   3.519   1.402  17.854 -1.7979  1.3875  0.1396
  670TIP3    H226206   3.570   1.430  17.994 -1.1278  0.6323  0.0487
  671TIP3   OH226207   5.861   4.037  18.179 -0.0829  0.6381 -0.6384
  671TIP3    H126208   5.938   4.012  18.127  0.7160 -0.2623  0.9101
  671TIP3    H226209   5.845   4.128  18.154  1.6871  0.9532 -0.7949
  672TIP3   OH226210   6.171   7.422  17.331  0.2637  0.3350 -0.2794
  672TIP3    H126211   6.199   7.416  17.422  1.0423  0.5026 -0.5013
  672TIP3    H226212   6.244   7.463  17.286 -1.0444  2.5853 -0.5407
  673TIP3   OH226213   2.385   0.878  18.180 -0.0932  0.1584  0.4602
  673TIP3    H126214   2.480   0.891  18.183 -0.1997  1.5898  4.7879
  673TIP3    H226215   2.358   0.925  18.101  2.6470  0.9538 -0.1379
  674TIP3   OH226216   6.780   0.243  16.973  0.0130  0.7366 -0.2520
  674TIP3    H126217   6.709   0.301  17.002 -0.5059  0.3877 -0.8281
  674TIP3    H226218   6.753   0.156  17.002 -0.1345  0.4989 -1.0823
  675TIP3   OH226219   5.901   2.587  18.302 -0.8152 -0.4554 -0.3732
  675TIP3    H126220   5.979   2.549  18.262 -0.2592  1.7781 -1.6442
  675TIP3    H226221   5.828   2.557  18.247 -0.2252  1.3232 -2.2651
  676TIP3   OH226222   3.528   3.493  18.954  0.6191  0.3979  0.3991
  676TIP3    H126223   3.565   3.546  19.024 -0.9124 -0.2524  1.7503
  676TIP3    H226224   3.462   3.549  18.913  0.7842  0.4138  0.1511
  677TIP3   OH226225   4.421   3.763  19.172 -0.2211 -0.0847  0.1732
  677TIP3    H126226   4.451   3.785  19.260  1.0241 -0.6337 -0.1051
  677TIP3    H226227   4.471   3.686  19.147  0.9053  1.1718 -1.7623
  678TIP3   OH226228   4.219   5.997  18.778 -0.2722  0.3163 -0.0178
  678TIP3    H126229   4.173   5.913  18.781  1.7967 -0.8886 -0.1976
  678TIP3    H226230   4.230   6.015  18.685  2.3751 -1.0727 -0.0503
  679TIP3   OH226231   3.918   3.292  19.098  0.0169  0.1430 -0.3546
  679TIP3    H126232   3.869   3.339  19.031 -1.8408 -2.6190 -1.0892
  679TIP3    H226233   3.986   3.245  19.050 -0.7699 -1.1575 -0.2271
  680TIP3   OH226234   5.563   0.540  19.301  0.3270  0.2995  0.0507
  680TIP3    H126235   5.593   0.451  19.289  1.8660  0.7113  0.6415
  680TIP3    H226236   5.550   0.549  19.396 -0.9102  0.3872 -0.1050
  681TIP3   OH226237   6.926   6.934  17.720  0.0882 -0.1401 -0.0869
  681TIP3    H126238   6.996   6.884  17.763  0.9343  0.4005 -0.8185
  681TIP3    H226239   6.971   6.988  17.655 -1.1679 -0.9338 -1.6677
  682TIP3   OH226240   0.683   0.999  18.339 -0.3113 -0.0427  0.1194
  682TIP3    H126241   0.661   1.045  18.258  1.0342 -0.3596 -0.4501
  682TIP3    H226242   0.650   0.911  18.327  1.2484 -0.5558 -0.7881
  683TIP3   OH226243   6.338   0.535  18.157  0.1035  0.1235 -0.0252
  683TIP3    H126244   6.249   0.501  18.149  1.1273 -2.3006 -3.3132
  683TIP3    H226245   6.388   0.463  18.193  1.3913 -0.1463 -2.1746
  684TIP3   OH226246   1.059   5.027  17.791  0.3760  0.0448 -0.4513
  684TIP3    H126247   1.043   4.991  17.703 -2.3054 -0.8686  0.3131
  684TIP3    H226248   0.972   5.051  17.823  1.1129 -0.7846  2.4207
  685TIP3   OH226249   4.598   6.215  17.323 -0.5461 -0.0566  0.0492
  685TIP3    H126250   4.689   6.239  17.305 -0.6272  1.1390  1.0715
  685TIP3    H226251   4.547   6.266  17.260 -0.5647  0.4162  0.4326
  686TIP3   OH226252   1.198   1.307  18.442  0.8679  0.2110  0.0665
  686TIP3    H126253   1.230   1.250  18.372 -0.0130 -0.8549  0.4911
  686TIP3    H226254   1.113   1.270  18.466 -0.3057  2.4370 -0.4436
  687TIP3   OH226255   7.591   0.868  18.789 -0.4522  0.1001 -0.2639
  687TIP3    H126256   7.504   0.884  18.752  0.2604  2.5447 -1.0796
  687TIP3    H226257   7.587   0.906  18.877  0.1028  1.3959 -0.7663
  688TIP3   OH226258   4.276   1.429  17.295  0.0093 -0.4110 -0.0577
  688TIP3    H126259   4.254   1.461  17.208  0.1042  0.2546  0.1528
  688TIP3    H226260   4.368   1.402  17.288  0.0315 -0.3122 -0.1466
  689TIP3   OH226261   1.778   4.953  17.260  0.3762 -0.8490  0.1766
  689TIP3    H126262   1.787   4.884  17.325 -0.1193 -1.9603 -0.8954
  689TIP3    H226263   1.849   5.014  17.279  0.3442 -1.2470  1.6248
  690TIP3   OH226264   0.297   3.227  16.466 -0.2130 -0.6360 -0.2835
  690TIP3    H126265   0.339   3.147  16.434  0.4434 -0.6888  0.6771
  690TIP3    H226266   0.369   3.290  16.475 -0.4980 -0.4105  0.4351
  691TIP3   OH226267   6.064   7.076  17.599 -0.2218 -0.1812 -0.2433
  691TIP3    H126268   6.156   7.060  17.580 -0.5789 -0.6953 -1.6597
  691TIP3    H226269   6.026   6.989  17.613 -0.5098  0.0214  0.2907
  692TIP3   OH226270   2.539   0.693  19.015  0.0183  0.7163 -0.3000
  692TIP3    H126271   2.502   0.616  18.972 -0.6154  1.4963 -1.1913
  692TIP3    H226272   2.468   0.726  19.070  0.5018  0.3036  0.5956
  693TIP3   OH226273   3.215   7.251  18.562  0.3358  0.0335 -0.0703
  693TIP3    H126274   3.255   7.318  18.507 -1.2073 -0.5370 -2.0026
  693TIP3    H226275   3.277   7.238  18.634  1.1243  2.8263 -0.1375
  694TIP3   OH226276   6.231   0.425  19.227  0.3939  0.7693  0.5639
  694TIP3    H126277   6.269   0.357  19.283  0.2710 -0.2775 -0.5922
  694TIP3    H226278   6.137   0.421  19.245 -0.1502 -1.9349 -2.0795
  695TIP3   OH226279   4.203   1.685  18.442 -0.2142 -0.5142 -0.6842
  695TIP3    H126280   4.121   1.724  18.472 -0.3043 -0.5250 -0.9148
  695TIP3    H226281   4.182   1.648  18.356  0.1847  0.0291 -1.0235
  696TIP3   OH226282   5.445   4.005  17.822  0.1109 -0.2059 -0.3630
  696TIP3    H126283   5.431   3.968  17.909 -0.3553  0.1058 -0.3049
  696TIP3    H226284   5.539   4.022  17.819 -0.1585  1.8210  0.9204
  697TIP3   OH226285   6.153   1.808  18.530 -0.1552 -0.3703  0.2472
  697TIP3    H126286   6.176   1.854  18.449 -0.6206 -1.3637 -0.4610
  697TIP3    H226287   6.149   1.878  18.596  1.3755  0.3023 -0.3266
  698TIP3   OH226288   5.404   2.489  17.577 -0.0234  0.3070 -0.1843
  698TIP3    H126289   5.333   2.462  17.635  1.3802  0.6056  1.7431
  698TIP3    H226290   5.360   2.513  17.495 -1.8845 -1.9295  0.0613
  699TIP3   OH226291   1.560   2.981  17.792 -0.0080  0.1932 -0.3102
  699TIP3    H126292   1.564   2.886  17.776 -1.4173 -0.2023  1.3876
  699TIP3    H226293   1.651   3.006  17.808  0.5615 -0.5995 -2.0528
  700TIP3   OH226294   1.974   4.385  16.601  0.0449  0.0253  0.1725
  700TIP3    H126295   1.922   4.451  16.647  1.2356  0.4589  0.9370
  700TIP3    H226296   1.945   4.302  16.637 -1.1640  0.1416 -0.4857
  701TIP3   OH226297   2.316   2.469  17.499 -0.1866 -0.6041  0.1215
  701TIP3    H126298   2.244   2.499  17.554 -0.8934 -3.5001  0.9205
  701TIP3    H226299   2.358   2.550  17.469 -1.7182  1.1306  2.3076
  702TIP3   OH226300   3.625   2.346  17.240  0.0111  0.3470  0.5258
  702TIP3    H126301   3.593   2.256  17.232 -0.6808  0.4983  1.3549
  702TIP3    H226302   3.561   2.388  17.297  0.4407  1.3118  0.3067
  703TIP3   OH226303   5.241   3.034  19.339  0.3907  0.2706 -0.0241
  703TIP3    H126304   5.153   3.034  19.302 -0.0806  0.8786  1.0155
  703TIP3    H226305   5.280   2.952  19.310 -0.7054 -0.2475 -0.0968
  704TIP3   OH226306   2.447   0.094  17.987  0.5506 -0.4464 -0.3458
  704TIP3    H126307   2.365   0.134  18.013  0.6078 -1.2196  1.1293
  704TIP3    H226308   2.490   0.070  18.069  2.2703 -0.0416 -1.0756
  705TIP3   OH226309   6.419   3.239  18.332 -0.5230  0.1573  0.1531
  705TIP3    H126310   6.512   3.260  18.326 -0.7261  1.6493  1.5773
  705TIP3    H226311   6.385   3.297  18.399 -2.1998 -1.4370  0.7801
  706TIP3   OH226312   7.512   4.493  16.852 -0.2385  0.3951  0.3069
  706TIP3    H126313   7.526   4.563  16.916  0.9874 -0.3266  0.8561
  706TIP3    H226314   7.600   4.461  16.832 -0.8404 -1.8740  1.0565
  707TIP3   OH226315   1.418   4.147  18.603 -0.0446  0.1661  1.0869
  707TIP3    H126316   1.431   4.240  18.586 -0.3849  0.2505  1.2795
  707TIP3    H226317   1.496   4.120  18.652  0.9559 -0.0845 -0.5480
  708TIP3   OH226318   3.950   7.674  18.100 -0.2818 -0.4648  0.3965
  708TIP3    H126319   3.943   7.677  18.004  0.5079 -1.2395  0.3026
  708TIP3    H226320   3.980   7.761  18.125  2.1812 -1.0330 -0.3197
  709TIP3   OH226321   3.623   2.982  19.210  0.1416  0.2626  0.0609
  709TIP3    H126322   3.626   3.003  19.116 -0.1295  0.7964  0.1639
  709TIP3    H226323   3.624   3.068  19.253  0.2774  0.0173  0.5456
  710TIP3   OH226324   0.563   6.065  17.481 -0.2551  0.2094 -0.2717
  710TIP3    H126325   0.614   5.987  17.506 -1.1724 -0.5271 -0.6610
  710TIP3    H226326   0.498   6.074  17.550 -0.4306  0.3762 -0.4603
  711TIP3   OH226327   6.910   6.711  17.120  0.4670  0.0868 -0.1332
  711TIP3    H126328   6.989   6.705  17.066  1.4173  0.7814  1.1529
  711TIP3    H226329   6.902   6.804  17.141 -1.4536  0.2548 -1.2987
  712TIP3   OH226330   4.556   0.508  18.885 -0.4625  0.4635  0.1410
  712TIP3    H126331   4.586   0.438  18.943 -1.1790  0.7216  0.8319
  712TIP3    H226332   4.597   0.587  18.920  0.8640  0.3332 -1.0139
  713TIP3   OH226333   0.366   7.268  18.711 -0.2000  0.3679  0.4104
  713TIP3    H126334   0.286   7.256  18.661  0.4608  0.6180 -0.7547
  713TIP3    H226335   0.370   7.362  18.729  0.7751  0.6912 -1.2538
  714TIP3   OH226336   4.506   5.690  18.188 -0.8910 -0.1469  0.2177
  714TIP3    H126337   4.547   5.765  18.145 -0.8574 -0.4425 -0.2750
  714TIP3    H226338   4.536   5.695  18.278  0.4131 -0.4753 -0.1727
  715TIP3   OH226339   6.761   2.627  18.906 -0.5939 -0.0745 -0.0232
  715TIP3    H126340   6.669   2.608  18.925 -0.5610  0.1406  0.3570
  715TIP3    H226341   6.807   2.605  18.987 -0.3623  0.2126 -0.0769
  716TIP3   OH226342   4.430   7.398  16.931  0.0426 -0.3954 -0.1462
  716TIP3    H126343   4.422   7.445  16.848  0.4024  1.1915  0.6790
  716TIP3    H226344   4.485   7.322  16.910  0.0138 -0.0890 -1.3898
  717TIP3   OH226345   7.223   7.644  17.490 -0.1391 -0.5818 -0.0829
  717TIP3    H126346   7.306   7.673  17.527 -0.4087  0.7990 -0.4744
  717TIP3    H226347   7.208   7.703  17.416 -0.9243 -1.5368 -0.7133
  718TIP3   OH226348   3.423   1.314  18.873  0.5339  0.1390  0.2606
  718TIP3    H126349   3.351   1.251  18.879  0.2962  0.0054 -2.5348
  718TIP3    H226350   3.501   1.260  18.859  0.9545  0.3569  1.6240
  719TIP3   OH226351   6.522   0.132  17.984  0.1720  0.0159 -0.1883
  719TIP3    H126352   6.446   0.192  17.983  0.3489  0.3145  1.5367
  719TIP3    H226353   6.484   0.046  18.000  0.2127  0.2796  1.5387
  720TIP3   OH226354   7.240   1.047  18.985  0.1366  0.1724 -0.2756
  720TIP3    H126355   7.176   1.084  18.923  0.3439  1.7948  0.4447
  720TIP3    H226356   7.228   1.098  19.065  1.3628 -0.4746  0.3347
  721TIP3   OH226357   7.614   5.917  19.435 -0.4207 -0.1242 -0.3012
  721TIP3    H126358   7.662   5.969  19.500  0.6518 -1.9606  0.4676
  721TIP3    H226359   7.593   5.978  19.365  1.9575  1.0631 -0.0625
  722TIP3   OH226360   4.105   7.443  18.117 -0.2501 -0.1746  0.1234
  722TIP3    H126361   4.070   7.355  18.103  0.1582 -0.3907  0.4151
  722TIP3    H226362   4.030   7.501  18.105 -0.8435 -0.6603  1.2647
  723TIP3   OH226363   0.833   3.056  16.886  0.2309  0.4085 -0.1169
  723TIP3    H126364   0.872   3.101  16.811 -1.2263 -0.3628 -1.3912
  723TIP3    H226365   0.764   3.002  16.848 -0.5796  0.0262  1.7961
  724TIP3   OH226366   4.059   3.545  16.940 -0.2358  0.0486 -0.1639
  724TIP3    H126367   4.092   3.467  16.985  1.8290  1.6485  1.2875
  724TIP3    H226368   4.136   3.583  16.898 -1.3197  0.9870 -1.4083
  725TIP3   OH226369   0.239   2.731  18.082 -0.2600 -0.3533 -0.0012
  725TIP3    H126370   0.244   2.688  17.997 -1.4110 -1.7932  0.6083
  725TIP3    H226371   0.330   2.750  18.105  0.0525  0.2943 -1.6288
  726TIP3   OH226372   2.165   2.662  16.959  0.2048 -0.1268 -0.1279
  726TIP3    H126373   2.207   2.736  17.001  0.4263 -0.5245  0.3622
  726TIP3    H226374   2.220   2.587  16.981 -0.6374 -0.6222  0.3488
  727TIP3   OH226375   1.082   6.170  17.140  0.3907 -0.2570 -0.2870
  727TIP3    H126376   1.036   6.245  17.101 -0.2735 -0.3391  0.3368
  727TIP3    H226377   1.056   6.096  17.086  1.9580  0.1089 -1.6373
  728TIP3   OH226378   3.748   3.279  17.379  0.3207  0.4256  0.1997
  728TIP3    H126379   3.783   3.207  17.430  0.1985  0.2971  0.1003
  728TIP3    H226380   3.820   3.342  17.373  0.6079  0.0585 -0.1956
  729TIP3   OH226381   3.815   6.370  18.735  0.2496 -0.0442  0.3629
  729TIP3    H126382   3.890   6.424  18.709 -0.2301 -0.0732 -1.1731
  729TIP3    H226383   3.842   6.331  18.818  1.7639  0.2955  0.0707
  730TIP3   OH226384   4.850   1.704  18.339  0.0040  0.9206  0.0186
  730TIP3    H126385   4.828   1.676  18.250 -2.8377 -1.0752  1.1717
  730TIP3    H226386   4.924   1.763  18.328  0.2255  0.2322 -3.5809
  731TIP3   OH226387   6.413   4.444  17.435 -0.3903  0.3954 -0.4343
  731TIP3    H126388   6.431   4.527  17.479  0.8966 -0.7279  1.3209
  731TIP3    H226389   6.320   4.428  17.451 -0.2326  0.6306  0.8663
  732TIP3   OH226390   4.733   5.027  17.360  0.3921 -0.5028 -0.3576
  732TIP3    H126391   4.779   5.012  17.443 -1.1252 -0.1919  0.5914
  732TIP3    H226392   4.654   4.973  17.367 -0.1117  0.0939 -1.2955
  733TIP3   OH226393   5.589   6.040  19.347  0.0767 -0.1448  0.6165
  733TIP3    H126394   5.501   6.012  19.374  0.4936 -2.1158  0.1532
  733TIP3    H226395   5.604   5.994  19.264  1.1709  0.9470  0.1740
  734TIP3   OH226396   1.477   2.787  18.681  0.7665  0.2446 -0.0693
  734TIP3    H126397   1.514   2.815  18.597  0.5120  0.0552 -0.2454
  734TIP3    H226398   1.387   2.762  18.660  0.8236 -0.1830  0.1888
  735TIP3   OH226399   0.711   1.552  17.048 -0.2705  0.4140  0.0828
  735TIP3    H126400   0.755   1.470  17.072  0.8857  1.1480  0.5352
  735TIP3    H226401   0.771   1.595  16.988 -1.7842  0.0177 -1.8116
  736TIP3   OH226402   0.191   4.322  17.213 -0.8099  0.0671 -0.2069
  736TIP3    H126403   0.101   4.292  17.225 -0.6270 -0.2209  0.4784
  736TIP3    H226404   0.244   4.242  17.217 -0.3956  0.3874  0.8004
  737TIP3   OH226405   0.405   2.391  18.969 -0.0620 -1.2215 -0.2149
  737TIP3    H126406   0.428   2.475  19.007  1.4841 -2.0982  0.9278
  737TIP3    H226407   0.320   2.369  19.008  0.6894 -1.2982  1.4574
  738TIP3   OH226408   0.471   1.329  19.007 -0.3865  0.0606 -0.1096
  738TIP3    H126409   0.391   1.377  19.028  0.5991  1.3810  0.7835
  738TIP3    H226410   0.540   1.396  19.010  0.7821 -1.0955 -0.6019
  739TIP3   OH226411   6.783   5.342  16.603  0.2888 -0.1998 -0.6338
  739TIP3    H126412   6.812   5.261  16.646 -0.6265 -1.1146 -1.6728
  739TIP3    H226413   6.860   5.398  16.603  0.6270 -0.6011  1.1694
  740TIP3   OH226414   1.340   1.835  17.413  0.0121 -0.1638  0.1718
  740TIP3    H126415   1.258   1.789  17.394 -1.1308  1.8996 -0.1603
  740TIP3    H226416   1.352   1.894  17.339  2.2420 -0.9342 -0.1637
  741TIP3   OH226417   3.397   0.195  17.755 -0.0656 -0.5862  0.1179
  741TIP3    H126418   3.302   0.181  17.756 -0.6560  2.6384 -0.2898
  741TIP3    H226419   3.414   0.251  17.830  1.5943 -1.1930  0.2451
  742TIP3   OH226420   7.274   5.682  17.265  0.0050  0.4373  0.6325
  742TIP3    H126421   7.207   5.699  17.199 -0.3535  0.2809  0.9507
  742TIP3    H226422   7.297   5.590  17.252 -1.0495  0.0081  1.5921
  743TIP3   OH226423   6.190   4.439  17.984 -0.2514 -0.1056 -0.1664
  743TIP3    H126424   6.152   4.467  18.067  0.6758 -0.3371  0.3489
  743TIP3    H226425   6.276   4.405  18.007  1.1366  2.2097 -1.5207
  744TIP3   OH226426   1.333   2.631  17.238 -0.0328  0.1421  0.2333
  744TIP3    H126427   1.251   2.585  17.221  0.2630 -0.1757 -0.3522
  744TIP3    H226428   1.309   2.703  17.297 -0.9388  0.7787 -0.8708
  745TIP3   OH226429   3.800   2.298  19.376 -0.2821  0.1282  0.2366
  745TIP3    H126430   3.745   2.274  19.302  0.0586 -1.6591  0.5115
  745TIP3    H226431   3.881   2.331  19.336  0.3447 -1.8662 -0.2684
  746TIP3   OH226432   5.714   5.132  18.211 -0.2119  0.0195 -0.0213
  746TIP3    H126433   5.784   5.081  18.172  0.7247  0.2844  1.2515
  746TIP3    H226434   5.642   5.126  18.148  0.2954 -1.8050 -0.4781
  747TIP3   OH226435   5.990   2.937  17.497 -0.1957 -0.1187 -0.7004
  747TIP3    H126436   6.081   2.921  17.473 -0.0977  1.0296 -1.1603
  747TIP3    H226437   5.976   2.883  17.576  1.5237  1.2633  0.6355
  748TIP3   OH226438   5.047   5.025  17.464 -0.3701 -0.1906  0.1629
  748TIP3    H126439   4.994   4.954  17.501  0.6281 -0.9441  0.2017
  748TIP3    H226440   5.035   5.098  17.524 -2.6431  0.2080 -0.7035
  749TIP3   OH226441   0.216   0.065  18.605  0.2427  0.4129 -0.4985
  749TIP3    H126442   0.233   0.008  18.529 -2.1351  0.3785 -1.0821
  749TIP3    H226443   0.217   0.153  18.568 -1.1557  0.3801 -0.6425
  750TIP3   OH226444   4.448   0.902  18.040  0.2995  0.3292 -0.7308
  750TIP3    H126445   4.438   0.982  18.091 -2.8675 -0.8490  0.7853
  750TIP3    H226446   4.505   0.926  17.967  0.0400  3.7241  0.0490
  751TIP3   OH226447   5.769   3.430  18.846 -0.1838  0.2415 -0.5263
  751TIP3    H126448   5.693   3.425  18.788 -1.5094  0.0642  1.1250
  751TIP3    H226449   5.768   3.520  18.880 -0.8004 -0.2632  0.8942
  752TIP3   OH226450   5.596   6.123  17.119  0.1686  0.1153  0.2652
  752TIP3    H126451   5.612   6.029  17.127 -2.0363 -0.2304  1.6443
  752TIP3    H226452   5.580   6.136  17.026 -0.7100 -1.1445  0.2073
  753TIP3   OH226453   2.533   4.849  17.199  0.6701  0.2606  0.0946
  753TIP3    H126454   2.550   4.802  17.118  2.3189  0.1323  0.4646
  753TIP3    H226455   2.521   4.940  17.172 -0.2649 -0.0016 -0.4124
  754TIP3   OH226456   2.632   4.824  18.261  0.2506  0.3285 -0.3492
  754TIP3    H126457   2.596   4.738  18.242  0.3119  0.4780 -1.1957
  754TIP3    H226458   2.598   4.880  18.192  1.0794  0.7427 -0.4416
  755TIP3   OH226459   5.101   7.434  16.714 -0.0202  0.1925 -0.3811
  755TIP3    H126460   5.151   7.402  16.639 -0.6545 -1.1771 -0.2463
  755TIP3    H226461   5.162   7.429  16.787 -0.5333 -2.4798  0.0014
  756TIP3   OH226462   0.194   4.786  16.858 -0.5733  0.4322  0.0936
  756TIP3    H126463   0.201   4.729  16.935 -0.7166  0.0009 -0.2115
  756TIP3    H226464   0.119   4.752  16.809  0.1984  0.0058 -0.8122
  757TIP3   OH226465   3.244   2.238  18.743  0.4724  0.4289  0.1286
  757TIP3    H126466   3.157   2.216  18.778 -0.1586  0.2571 -1.4652
  757TIP3    H226467   3.261   2.326  18.776 -1.5015  1.5517 -1.5686
  758TIP3   OH226468   5.994   6.117  17.507 -0.3806 -0.4375  0.0937
  758TIP3    H126469   5.977   6.152  17.594 -0.5213 -1.0757  0.3265
  758TIP3    H226470   5.914   6.070  17.483 -0.4686  0.0153 -0.5204
  759TIP3   OH226471   1.475   5.533  19.010 -0.0938  0.2313 -0.3588
  759TIP3    H126472   1.565   5.566  19.007 -0.1730  0.3884 -1.7208
  759TIP3    H226473   1.474   5.458  18.950 -0.2263 -1.5354  1.7458
  760TIP3   OH226474   7.067   2.368  16.477  0.2170 -1.0812  0.0813
  760TIP3    H126475   6.976   2.338  16.477  0.4971 -1.9690  1.1567
  760TIP3    H226476   7.116   2.299  16.521  1.1569  0.1429  1.0533
  761TIP3   OH226477   2.477   1.998  19.028  0.1044 -0.2262 -0.4075
  761TIP3    H126478   2.383   1.987  19.019  0.4475 -3.2986 -1.6078
  761TIP3    H226479   2.506   2.029  18.942  0.2103  0.9351  0.0272
  762TIP3   OH226480   7.074   7.574  18.556 -0.3387 -0.3455  0.4675
  762TIP3    H126481   7.133   7.576  18.632  0.2334  1.0103  0.0175
  762TIP3    H226482   7.012   7.645  18.573  1.3273  1.7122 -1.4835
  763TIP3   OH226483   2.903   1.812  19.010 -0.5914 -0.1668  0.1184
  763TIP3    H126484   2.906   1.746  18.941 -0.7637 -0.6566  0.5667
  763TIP3    H226485   2.912   1.896  18.965  1.0675 -0.5613 -0.3220
  764TIP3   OH226486   4.137   4.229  18.036 -0.5334 -0.3045  0.0107
  764TIP3    H126487   4.131   4.316  17.997 -1.3711  0.4881  1.7868
  764TIP3    H226488   4.162   4.245  18.127  0.0400 -1.9806  0.1757
  765TIP3   OH226489   3.602   2.034  17.226  0.1229 -0.2338 -0.3781
  765TIP3    H126490   3.522   2.026  17.175  1.0338 -0.6530 -1.8095
  765TIP3    H226491   3.656   1.961  17.198  0.6948 -0.4476  1.1777
  766TIP3   OH226492   5.783   0.642  18.629  0.0757  0.0631  0.4715
  766TIP3    H126493   5.862   0.604  18.667  0.3579 -0.0922 -0.2441
  766TIP3    H226494   5.773   0.597  18.545  1.2577  2.5005 -1.1266
  767TIP3   OH226495   4.101   3.028  16.616  0.3290 -0.0780 -0.5909
  767TIP3    H126496   4.095   3.057  16.706  0.8123 -0.8979 -0.2797
  767TIP3    H226497   4.013   3.041  16.580 -0.0643 -0.4290  0.2131
  768TIP3   OH226498   3.995   5.556  19.008  0.2268  0.0515 -0.5309
  768TIP3    H126499   3.904   5.528  19.011 -0.0904  1.0993  1.1266
  768TIP3    H226500   4.042   5.480  18.974 -0.8666 -1.7098  1.6153
  769TIP3   OH226501   3.937   6.775  18.778 -0.5218  0.1030  0.1743
  769TIP3    H126502   3.857   6.725  18.794  0.1511 -1.6276 -1.5062
  769TIP3    H226503   4.007   6.716  18.806  0.2303  1.5802  1.5902
  770TIP3   OH226504   6.717   3.273  17.953  0.0248 -0.1713  0.4845
  770TIP3    H126505   6.779   3.344  17.937  0.9292 -1.2109 -0.9453
  770TIP3    H226506   6.656   3.278  17.880 -1.1663  0.3786  1.4878
  771TIP3   OH226507   3.203   6.075  18.768  0.6555 -0.3802  0.3006
  771TIP3    H126508   3.203   6.163  18.806 -0.2622 -0.3139  0.1632
  771TIP3    H226509   3.118   6.067  18.725  1.0336 -1.0598 -0.3405
  772TIP3   OH226510   6.471   1.431  18.972 -0.0489  0.1531  0.7695
  772TIP3    H126511   6.421   1.495  18.921  1.2066  0.8815  0.4320
  772TIP3    H226512   6.528   1.388  18.909  1.6997  1.2318  1.5548
  773TIP3   OH226513   7.323   6.282  19.363 -0.5216  0.4876  0.1411
  773TIP3    H126514   7.391   6.218  19.341  0.0501  0.9892  0.4209
  773TIP3    H226515   7.267   6.285  19.285  0.9041  1.4979 -0.9156
  774TIP3   OH226516   5.155   0.826  17.203  0.0453 -0.1501  0.2809
  774TIP3    H126517   5.207   0.814  17.282 -0.2622 -1.2719  0.3245
  774TIP3    H226518   5.216   0.812  17.131  0.2936  0.7340  0.3054
  775TIP3   OH226519   2.459   5.476  18.850 -0.4151 -0.5003 -0.0668
  775TIP3    H126520   2.415   5.518  18.923  3.0426 -1.6179  2.9514
  775TIP3    H226521   2.432   5.384  18.855 -3.0125 -0.0210 -2.6830
  776TIP3   OH226522   6.860   2.190  18.025 -0.4042 -0.4992  0.3031
  776TIP3    H126523   6.803   2.266  18.020 -1.4616 -1.2659  0.4734
  776TIP3    H226524   6.948   2.227  18.033 -0.9137  0.7024  0.6036
  777TIP3   OH226525   2.377   3.764  16.831  0.6366  0.3832  0.6488
  777TIP3    H126526   2.361   3.694  16.894  0.6536  0.0950  0.3370
  777TIP3    H226527   2.469   3.756  16.808  0.7887  0.8846  1.0567
  778TIP3   OH226528   4.455   6.631  17.807  0.2819  0.6915  0.4141
  778TIP3    H126529   4.426   6.672  17.726  0.5031  2.7385  1.3019
  778TIP3    H226530   4.502   6.552  17.779 -0.2801  0.9435 -1.3734
  779TIP3   OH226531   5.171   2.134  18.528 -0.0423  0.1136 -0.2671
  779TIP3    H126532   5.121   2.124  18.609  2.2159 -0.0032  1.2000
  779TIP3    H226533   5.125   2.202  18.479 -2.4348 -1.0069  0.2909
  780TIP3   OH226534   0.532   5.772  17.843 -0.2187 -0.0174 -0.5536
  780TIP3    H126535   0.574   5.703  17.894 -0.0912  0.6935  0.3211
  780TIP3    H226536   0.459   5.728  17.799  0.2865 -0.8552 -0.5794
  781TIP3   OH226537   6.911   2.259  17.345  0.5298  0.5426 -0.3946
  781TIP3    H126538   6.916   2.212  17.429 -0.6632 -0.2874 -0.7643
  781TIP3    H226539   6.964   2.207  17.285  0.8779  0.8001 -0.3164
  782TIP3   OH226540   6.695   0.246  17.592 -0.0941 -0.0059 -0.1600
  782TIP3    H126541   6.736   0.203  17.517  0.1518  2.2422 -1.3957
  782TIP3    H226542   6.622   0.188  17.616  0.0084 -0.9286 -1.9416
  783TIP3   OH226543   3.155   3.531  18.311 -0.0935  0.0679 -0.0960
  783TIP3    H126544   3.084   3.529  18.246 -0.3550 -1.1984  0.2136
  783TIP3    H226545   3.168   3.624  18.329 -0.4201  0.4094 -1.5196
  784TIP3   OH226546   1.806   1.873  18.062  0.0124  0.5843  0.3153
  784TIP3    H126547   1.892   1.897  18.029 -0.4010 -0.8317 -2.0340
  784TIP3    H226548   1.759   1.841  17.985 -2.3434  0.5439  1.6781
  785TIP3   OH226549   1.601   0.400  18.727  0.3555  0.3995  0.1519
  785TIP3    H126550   1.506   0.409  18.729  0.1044 -1.8259  1.6351
  785TIP3    H226551   1.634   0.484  18.758 -0.9872  1.9223 -2.2155
  786TIP3   OH226552   0.656   6.080  19.334  0.4431  0.1815  0.0965
  786TIP3    H126553   0.687   6.051  19.420  0.1385  0.3415  0.2620
  786TIP3    H226554   0.606   6.160  19.352 -0.1014 -0.0985 -0.1595
  787TIP3   OH226555   4.801   2.345  18.488  0.1856  0.6493 -0.0331
  787TIP3    H126556   4.806   2.250  18.499 -1.4928  0.7641  2.3955
  787TIP3    H226557   4.887   2.369  18.452  1.3845 -1.5587  1.1492
  788TIP3   OH226558   7.139   6.686  17.000 -0.1408  0.4564  0.3770
  788TIP3    H126559   7.194   6.623  17.046  0.1832 -0.6971 -1.4894
  788TIP3    H226560   7.197   6.725  16.935 -0.8053  1.3759  0.3169
  789TIP3   OH226561   5.227   1.589  18.510 -0.2667 -0.2864  0.4016
  789TIP3    H126562   5.136   1.574  18.537 -1.1971  1.9765 -1.1353
  789TIP3    H226563   5.263   1.643  18.580 -0.6898  0.3175  0.1631
  790TIP3   OH226564   4.119   4.993  16.879  0.0063 -0.0728 -0.1173
  790TIP3    H126565   4.044   5.041  16.914 -0.2768  0.2699 -1.1478
  790TIP3    H226566   4.081   4.913  16.844 -0.0194  0.4603 -1.3649
  791TIP3   OH226567   2.687   4.635  18.934 -0.4004 -0.2430 -0.1413
  791TIP3    H126568   2.739   4.701  18.981 -0.8597  0.8386 -1.1138
  791TIP3    H226569   2.604   4.680  18.914  0.1590 -0.2776 -2.8932
  792TIP3   OH226570   0.599   2.073  17.376  0.1311 -0.0185  0.1742
  792TIP3    H126571   0.594   2.124  17.295 -3.1222  0.7899  0.7669
  792TIP3    H226572   0.692   2.076  17.400  0.4973  3.5955 -1.1167
  793TIP3   OH226573   4.135   4.208  18.337 -0.0814 -0.6844  0.1497
  793TIP3    H126574   4.120   4.156  18.416  0.6651 -0.4250  0.4825
  793TIP3    H226575   4.229   4.200  18.321 -0.3548 -1.4133 -1.2155
  794TIP3   OH226576   0.827   5.607  16.741  1.0601  0.3052  0.0802
  794TIP3    H126577   0.774   5.684  16.719 -0.5889  0.1964  3.1533
  794TIP3    H226578   0.857   5.574  16.656 -1.2291  2.1887 -1.6149
  795TIP3   OH226579   1.016   5.539  18.065 -0.0276 -0.6874 -0.5261
  795TIP3    H126580   1.028   5.486  17.986 -1.9815 -0.2136 -1.1986
  795TIP3    H226581   0.967   5.616  18.036  0.4535  0.2045  0.9028
  796TIP3   OH226582   5.179   6.069  16.617  0.1452  0.3993 -0.1548
  796TIP3    H126583   5.144   6.008  16.552  1.2157 -0.6635  0.2347
  796TIP3    H226584   5.250   6.021  16.660 -0.7061  0.9576  2.0024
  797TIP3   OH226585   6.864   7.236  17.933 -0.4553 -0.5245  0.1658
  797TIP3    H126586   6.880   7.151  17.975  1.6437 -1.0934 -1.6064
  797TIP3    H226587   6.825   7.214  17.848 -0.9132  0.3813  0.1264
  798TIP3   OH226588   5.417   5.006  18.173 -0.0434  0.2640 -0.1178
  798TIP3    H126589   5.335   4.958  18.163  0.3720 -1.0023  1.9088
  798TIP3    H226590   5.462   4.996  18.088  0.0405 -3.0642  0.2134
  799TIP3   OH226591   6.846   4.871  17.125  0.3014  0.1571  0.3126
  799TIP3    H126592   6.921   4.897  17.071  0.5016  1.9361  1.3675
  799TIP3    H226593   6.787   4.827  17.064  0.7370  1.6567 -1.2629
  800TIP3   OH226594   7.511   3.964  19.281  0.6169  0.2035 -0.2020
  800TIP3    H126595   7.521   3.877  19.242  0.8364  0.9931 -2.0130
  800TIP3    H226596   7.462   4.014  19.216 -0.5487  1.1360  1.3234
  801TIP3   OH226597   5.840   2.437  19.205  0.7310 -0.0271  0.7147
  801TIP3    H126598   5.870   2.528  19.205 -0.2415  0.4488 -2.7190
  801TIP3    H226599   5.915   2.387  19.173  0.5213 -0.0518  0.2498
  802TIP3   OH226600   2.227   0.244  18.864  0.2141 -0.4368 -0.0217
  802TIP3    H126601   2.221   0.327  18.911  1.3109 -0.7030  0.6370
  802TIP3    H226602   2.236   0.268  18.772 -1.1999  0.1159 -0.0367
  803TIP3   OH226603   6.173   4.798  16.948 -0.1506  0.7153  0.3371
  803TIP3    H126604   6.235   4.733  16.980 -1.1815 -0.6330 -0.3213
  803TIP3    H226605   6.107   4.748  16.901 -0.4222  2.3366 -1.1181
  804TIP3   OH226606   4.414   0.639  18.076 -0.0845 -0.0039  0.5066
  804TIP3    H126607   4.419   0.733  18.056  1.0928  0.6531  3.3813
  804TIP3    H226608   4.493   0.622  18.127 -0.1580 -2.6687 -0.1281
  805TIP3   OH226609   5.719   6.974  17.609 -0.1502  0.3268 -0.4697
  805TIP3    H126610   5.705   7.005  17.519  1.4276  2.1888 -0.1258
  805TIP3    H226611   5.804   6.931  17.606  0.1607  0.8788  0.2401
  806TIP3   OH226612   2.986   2.454  19.458  0.2962 -0.5558 -0.4739
  806TIP3    H126613   2.930   2.377  19.467  0.0223 -0.1298  1.8899
  806TIP3    H226614   3.072   2.418  19.437 -0.3589 -1.3104 -2.0791
  807TIP3   OH226615   5.788   6.517  17.088  0.0008  0.4439 -0.4997
  807TIP3    H126616   5.734   6.546  17.161 -0.6129 -1.5517 -0.0854
  807TIP3    H226617   5.872   6.492  17.128 -0.7571 -1.8726 -0.1684
  808TIP3   OH226618   3.664   3.042  18.963 -0.1121  0.2917 -0.1780
  808TIP3    H126619   3.662   2.982  18.889  1.1022  0.7439 -0.6097
  808TIP3    H226620   3.663   3.129  18.923 -0.9483  0.5611  0.4043
  809TIP3   OH226621   2.256   4.650  18.851 -0.0225 -0.4629  0.0106
  809TIP3    H126622   2.234   4.682  18.764 -2.0301  0.2962  0.7353
  809TIP3    H226623   2.258   4.729  18.906  2.3486 -0.7748  0.4903
  810TIP3   OH226624   0.041   1.160  17.283 -0.3980 -0.5179 -0.3455
  810TIP3    H126625   0.127   1.160  17.241 -0.9579 -1.9919 -1.5587
  810TIP3    H226626   0.031   1.249  17.316  2.1131 -0.6273  0.9697
  811TIP3   OH226627   7.398   0.603  18.844  0.7021  0.4179  0.2512
  811TIP3    H126628   7.441   0.683  18.876 -0.2047  0.3027  1.9033
  811TIP3    H226629   7.319   0.596  18.897  0.2506 -1.0466 -0.5619
  812TIP3   OH226630   5.602   5.523  17.173 -0.1644 -0.2078  0.3080
  812TIP3    H126631   5.604   5.436  17.212 -0.0107  0.5807  2.1305
  812TIP3    H226632   5.558   5.510  17.089 -2.2275 -1.6520  1.5116
  813TIP3   OH226633   7.313   2.346  16.936 -0.3776  0.1187 -0.2004
  813TIP3    H126634   7.270   2.305  16.861  0.5430 -0.1871 -0.5656
  813TIP3    H226635   7.361   2.419  16.899  2.6877 -1.8660 -0.4428
  814TIP3   OH226636   1.638   5.730  19.403  0.6421 -0.2370 -0.5025
  814TIP3    H126637   1.727   5.753  19.429  0.2494 -0.3528  1.0266
  814TIP3    H226638   1.605   5.674  19.474 -2.2554  3.5249  1.4909
  815TIP3   OH226639   6.774   0.017  17.834  0.5695 -0.1288  0.6953
  815TIP3    H126640   6.723  -0.064  17.823 -0.3684  0.2191  2.2378
  815TIP3    H226641   6.711   0.081  17.865  1.7414  0.6170  1.6063
  816TIP3   OH226642   2.796   2.532  19.274 -0.0137  0.5737 -0.1373
  816TIP3    H126643   2.855   2.515  19.348 -1.3038  1.6822  1.2114
  816TIP3    H226644   2.755   2.447  19.256 -0.1915  0.4231  0.9019
  817TIP3   OH226645   2.993   1.200  18.584  0.1081 -0.2732 -0.0455
  817TIP3    H126646   3.043   1.120  18.571  0.6906 -0.0471  0.7728
  817TIP3    H226647   2.902   1.170  18.585  0.2737 -0.8253 -0.4563
  818TIP3   OH226648   5.742   1.338  17.512 -0.3323 -0.4290  0.4218
  818TIP3    H126649   5.700   1.258  17.481 -1.0623  0.8237 -2.0450
  818TIP3    H226650   5.670   1.393  17.542 -0.1153  0.2605 -0.2853
  819TIP3   OH226651   1.146   6.383  19.026  0.0251 -0.3868  0.1526
  819TIP3    H126652   1.115   6.473  19.017 -1.0811 -0.6462  1.2532
  819TIP3    H226653   1.098   6.348  19.100  1.9685 -1.2480  1.0779
  820TIP3   OH226654   3.635   6.122  18.451  0.0266 -0.7985  0.4274
  820TIP3    H126655   3.542   6.100  18.456 -0.7885  1.5298 -2.2115
  820TIP3    H226656   3.677   6.044  18.415 -0.8849 -1.7800  1.4118
  821TIP3   OH226657   6.286   4.453  16.764  0.7017  0.3281 -0.2730
  821TIP3    H126658   6.207   4.403  16.783  1.0160  0.6106  2.0190
  821TIP3    H226659   6.271   4.489  16.676 -0.0529 -2.6821 -1.4875
  822TIP3   OH226660   5.755   1.129  17.764 -0.6408  0.0087 -0.3449
  822TIP3    H126661   5.789   1.217  17.752  1.0935 -0.8367 -2.3569
  822TIP3    H226662   5.820   1.087  17.821 -1.5070  0.0320  0.6816
  823TIP3   OH226663   1.223   5.395  16.983 -0.2773 -0.2872 -0.3498
  823TIP3    H126664   1.262   5.392  17.070 -1.8039  0.6203  0.4106
  823TIP3    H226665   1.231   5.487  16.956 -1.1709 -0.2465 -0.5038
  824TIP3   OH226666   4.403   7.504  17.449 -0.3662  0.1973 -0.3784
  824TIP3    H126667   4.327   7.548  17.487  0.1748 -0.4676  1.5836
  824TIP3    H226668   4.378   7.489  17.357 -2.0449  1.1920 -0.1293
  825TIP3   OH226669   0.977   1.280  18.622  0.0749 -0.2482 -0.0210
  825TIP3    H126670   0.915   1.276  18.549 -1.0348  2.2086  0.6784
  825TIP3    H226671   0.927   1.249  18.697  0.4846 -0.5814  0.1161
  826TIP3   OH226672   1.444   4.039  18.325  0.6137  0.6953 -0.0630
  826TIP3    H126673   1.374   3.975  18.313  0.4302  1.0039 -0.7184
  826TIP3    H226674   1.417   4.091  18.400  0.1411  0.8063 -0.3066
  827TIP3   OH226675   7.475   0.962  17.015 -0.1897  0.5189 -0.3646
  827TIP3    H126676   7.535   0.934  17.084  0.4215  2.4072 -0.0892
  827TIP3    H226677   7.388   0.941  17.048  0.1894 -0.1630  0.2157
  828TIP3   OH226678   0.312   4.534  17.343 -0.1454 -0.0405 -0.5222
  828TIP3    H126679   0.317   4.442  17.315 -2.1467 -0.5217  0.5620
  828TIP3    H226680   0.306   4.530  17.438 -0.1773  1.2305 -0.4578
  829TIP3   OH226681   5.508   2.208  17.636 -0.6423 -0.1933 -0.2062
  829TIP3    H126682   5.496   2.290  17.683  1.5048 -0.2687  0.6007
  829TIP3    H226683   5.539   2.146  17.703  1.3803 -0.6126 -1.4311
  830TIP3   OH226684   2.489   2.963  17.258 -0.0000 -0.3786  0.1832
  830TIP3    H126685   2.582   2.944  17.269  0.1471  1.2161  2.4194
  830TIP3    H226686   2.458   2.984  17.346 -1.9006  1.5105 -0.8240
  831TIP3   OH226687   6.853   2.231  16.663 -0.3287  0.0198  0.4050
  831TIP3    H126688   6.793   2.160  16.640  1.8537 -1.7421 -0.1905
  831TIP3    H226689   6.821   2.265  16.746 -1.2990 -1.8450  0.8319
  832TIP3   OH226690   7.624   5.278  17.403  0.1588  0.5218 -0.0331
  832TIP3    H126691   7.644   5.280  17.496  1.8263 -0.6420 -0.3204
  832TIP3    H226692   7.699   5.234  17.363 -1.1280 -0.2288 -1.7671
  833TIP3   OH226693   6.047   6.898  16.786 -0.2367  0.2447  0.5062
  833TIP3    H126694   6.060   6.817  16.736  0.3161 -0.0961  1.1823
  833TIP3    H226695   6.072   6.968  16.726  1.9405 -0.2323  0.7756
  834TIP3   OH226696   7.525   5.409  16.938  0.9542  0.4432 -0.0030
  834TIP3    H126697   7.586   5.341  16.909  0.5258 -1.0505  2.3039
  834TIP3    H226698   7.438   5.372  16.922  0.7166  0.0244  1.9887
  835TIP3   OH226699   2.299   2.463  16.684  0.1773 -0.1361 -0.1378
  835TIP3    H126700   2.238   2.390  16.675  0.5999 -0.4358 -0.6049
  835TIP3    H226701   2.307   2.476  16.779  0.1667 -0.7552 -0.0506
  836TIP3   OH226702   1.758   3.496  18.327  0.3283 -0.2808  0.4935
  836TIP3    H126703   1.676   3.472  18.370  0.0504  3.2046  2.2729
  836TIP3    H226704   1.731   3.543  18.248  0.4818  1.8131  1.6273
  837TIP3   OH226705   5.426   4.078  17.369  0.0433 -0.4728 -0.1750
  837TIP3    H126706   5.358   4.081  17.302  1.0875  0.8552 -1.2402
  837TIP3    H226707   5.405   4.000  17.420 -1.7938 -0.5580 -0.9561
  838TIP3   OH226708   6.550   2.393  16.703 -0.6145  0.0382 -0.0087
  838TIP3    H126709   6.625   2.400  16.762 -1.5594  1.4980  1.0779
  838TIP3    H226710   6.474   2.386  16.761 -1.4666  0.1695 -1.0753
  839TIP3   OH226711   0.195   5.953  19.143 -0.4669  0.2988  0.1198
  839TIP3    H126712   0.181   6.047  19.142 -0.8715  0.2380 -0.7681
  839TIP3    H226713   0.290   5.943  19.149 -0.4442  0.7526  0.5942
  840TIP3   OH226714   1.399   6.268  16.188 -0.2627 -0.1745  0.1145
  840TIP3    H126715   1.483   6.287  16.146  0.2781 -1.7801  0.3777
  840TIP3    H226716   1.372   6.350  16.228  1.7628  0.1037  1.0022
  841TIP3   OH226717   6.586   6.431  19.370 -0.4621 -0.5314 -0.3711
  841TIP3    H126718   6.608   6.386  19.288  0.6963  0.6422 -0.7358
  841TIP3    H226719   6.494   6.410  19.384 -1.0713  0.2937 -2.6855
  842TIP3   OH226720   3.364   2.941  18.177  0.5944  0.1689 -0.3207
  842TIP3    H126721   3.286   2.995  18.193  0.2917 -0.2188 -0.4435
  842TIP3    H226722   3.437   2.992  18.212  0.0120 -0.5172  2.0940
  843TIP3   OH226723   4.471   0.468  16.602  0.0988  0.1567 -0.2288
  843TIP3    H126724   4.537   0.401  16.619  1.6479  1.7444  0.3306
  843TIP3    H226725   4.494   0.505  16.517  0.3294  1.1136  0.2281
  844TIP3   OH226726   5.320   4.948  17.839  0.5258  0.6547 -0.0959
  844TIP3    H126727   5.321   4.985  17.750 -0.4224 -0.8723 -0.7935
  844TIP3    H226728   5.227   4.938  17.859  0.7371 -0.3942  0.4429
  845TIP3   OH226729   5.315   2.363  18.369  0.3627  0.9000 -0.6046
  845TIP3    H126730   5.384   2.411  18.415  1.9138  1.9000 -3.7265
  845TIP3    H226731   5.341   2.271  18.376 -0.0661  0.8854  1.3679
  846TIP3   OH226732   4.089   3.616  18.681  0.3890  0.1856  0.4165
  846TIP3    H126733   4.137   3.683  18.632  0.1958 -1.0349 -1.5611
  846TIP3    H226734   4.013   3.596  18.625  0.6755 -1.9656  0.7059
  847TIP3   OH226735   0.800   1.805  18.045  0.1578  0.3317 -0.5329
  847TIP3    H126736   0.706   1.805  18.063  0.5873 -0.1519  2.0899
  847TIP3    H226737   0.811   1.742  17.974 -1.2585 -1.6083  0.8744
  848TIP3   OH226738   3.711   7.445  18.353  0.2781  0.1033  0.4601
  848TIP3    H126739   3.691   7.430  18.446  1.1624 -3.6383  0.2017
  848TIP3    H226740   3.803   7.422  18.344 -0.1907 -1.2293 -1.5928
  849TIP3   OH226741   2.872   4.275  17.467 -1.0611 -0.0448  0.1172
  849TIP3    H126742   2.864   4.347  17.404 -1.5735 -0.3282 -0.1505
  849TIP3    H226743   2.924   4.311  17.539  1.1758 -0.2745 -1.2910
  850TIP3   OH226744   4.988   1.122  18.951  0.8860  0.0711  0.0970
  850TIP3    H126745   5.041   1.071  18.889 -0.1716 -1.0751  0.0849
  850TIP3    H226746   4.978   1.064  19.027  0.6337  0.7292  0.5749
  851TIP3   OH226747   1.939   3.128  18.485  0.3616  0.7281  0.1891
  851TIP3    H126748   2.002   3.192  18.519  0.6212 -0.7051  2.6806
  851TIP3    H226749   1.993   3.060  18.444  0.1231  1.6664 -1.7904
  852TIP3   OH226750   4.673   1.216  18.368 -0.2460 -0.0294 -0.4451
  852TIP3    H126751   4.718   1.205  18.284  0.3875  2.0682 -0.4445
  852TIP3    H226752   4.629   1.301  18.360  0.3169  0.4939  1.5428
  853TIP3   OH226753   2.628   1.940  16.988 -0.1421  0.6163  0.3809
  853TIP3    H126754   2.546   1.986  17.009 -1.7178 -1.9330  0.3007
  853TIP3    H226755   2.662   1.911  17.073 -0.9253 -0.7917  0.2429
  854TIP3   OH226756   2.152   5.133  19.057  0.1030 -0.1006  0.8173
  854TIP3    H126757   2.071   5.108  19.013 -0.1168  1.5970  0.1798
  854TIP3    H226758   2.135   5.220  19.093  2.4060  1.5367 -1.6324
  855TIP3   OH226759   6.192   3.989  18.499  0.1833 -0.2251  0.3761
  855TIP3    H126760   6.142   3.913  18.530 -1.8128  1.7167  2.2248
  855TIP3    H226761   6.244   4.015  18.575  2.5940 -0.9542 -0.9048
  856TIP3   OH226762   3.198   3.506  17.849 -0.3343  0.0707 -0.2337
  856TIP3    H126763   3.288   3.520  17.878 -0.4889 -1.2433  1.0319
  856TIP3    H226764   3.144   3.540  17.920 -0.8841  1.2653 -1.1795
  857TIP3   OH226765   4.531   4.796  17.206 -0.1118  0.2175  0.0738
  857TIP3    H126766   4.587   4.802  17.129 -1.6296 -0.0366 -1.0839
  857TIP3    H226767   4.442   4.806  17.173 -0.7740  0.7074  1.8777
  858TIP3   OH226768   1.388   6.038  17.872  0.1104  0.7711 -0.0883
  858TIP3    H126769   1.464   6.066  17.821  0.2284  0.1572 -0.2472
  858TIP3    H226770   1.329   5.999  17.808  0.7868 -1.1225  0.3928
  859TIP3   OH226771   3.162   4.822  17.524  0.4193 -0.0574  0.4501
  859TIP3    H126772   3.073   4.817  17.487  0.0684 -0.5114  1.3262
  859TIP3    H226773   3.169   4.910  17.559  0.8062  0.4299 -0.7827
  860TIP3   OH226774   2.467   5.638  17.952 -0.4489 -0.1815 -0.3275
  860TIP3    H126775   2.429   5.602  18.032  0.3608 -1.2952 -0.4286
  860TIP3    H226776   2.556   5.665  17.977 -0.0309 -0.9533 -0.9452
  861TIP3   OH226777   5.818   0.347  18.071 -0.0916  0.4142  0.3314
  861TIP3    H126778   5.821   0.369  18.164  0.9974  0.9508  0.1866
  861TIP3    H226779   5.794   0.430  18.028  1.8152  0.8274 -0.0366
  862TIP3   OH226780   0.083   4.390  16.824 -0.0401  0.0312 -0.6918
  862TIP3    H126781   0.093   4.297  16.843  0.1166  0.3250  0.7978
  862TIP3    H226782   0.136   4.405  16.746 -0.9049 -1.3176 -1.5708
  863TIP3   OH226783   1.487   5.692  17.787 -0.2163  0.5975 -0.3865
  863TIP3    H126784   1.392   5.683  17.798 -0.4739  1.9450 -1.1988
  863TIP3    H226785   1.496   5.765  17.725  1.2682 -1.3039 -2.5698
  864TIP3   OH226786   1.894   3.725  18.755  0.0950 -0.3314 -0.2559
  864TIP3    H126787   1.859   3.711  18.667 -1.8776  0.5522  0.3444
  864TIP3    H226788   1.817   3.724  18.812  1.1645  0.7136  1.2689
  865TIP3   OH226789   5.334   2.198  17.402  0.0149  0.1972 -0.5628
  865TIP3    H126790   5.301   2.276  17.358 -0.4407  0.9655  1.0629
  865TIP3    H226791   5.401   2.231  17.463 -1.0049 -0.4764  0.9982
  866TIP3   OH226792   5.654   0.177  18.526  0.0217  0.1232  0.2050
  866TIP3    H126793   5.689   0.147  18.610  0.4875 -0.8281 -0.3065
  866TIP3    H226794   5.592   0.245  18.549 -0.0920 -0.3341  1.3451
  867TIP3   OH226795   1.925   1.480  17.792  0.4757  0.0411 -0.2533
  867TIP3    H126796   1.878   1.558  17.763 -2.7835 -1.6216  0.0706
  867TIP3    H226797   1.928   1.489  17.888  0.1042 -0.2061 -0.2158
  868TIP3   OH226798   0.417   6.653  18.822 -0.4553 -0.1388 -0.5150
  868TIP3    H126799   0.463   6.734  18.802 -0.8214  0.1717 -0.1349
  868TIP3    H226800   0.333   6.682  18.858  0.1730 -0.6358  1.5104
  869TIP3   OH226801   4.439   1.338  19.270 -0.0383  0.2125  0.0999
  869TIP3    H126802   4.480   1.416  19.306 -0.1161 -0.2835  1.3000
  869TIP3    H226803   4.487   1.321  19.189  1.6862  0.0344  1.1182
  870TIP3   OH226804   7.277   4.330  18.883  0.1220  0.9095 -0.1104
  870TIP3    H126805   7.349   4.317  18.945  1.2411  3.2148 -0.8279
  870TIP3    H226806   7.314   4.306  18.798 -0.4126  0.8063 -0.3192
  871TIP3   OH226807   6.212   2.651  17.150 -0.2408 -1.1510  0.1329
  871TIP3    H126808   6.260   2.696  17.081 -2.0590  0.3742 -0.2138
  871TIP3    H226809   6.251   2.564  17.154  0.2557 -1.1102 -2.4530
  872TIP3   OH226810   3.178   5.918  18.418  0.3800  0.2362  0.3728
  872TIP3    H126811   3.219   5.851  18.364 -0.3546 -0.3486  0.5275
  872TIP3    H226812   3.115   5.870  18.472 -0.4982  1.1082  0.1557
  873TIP3   OH226813   4.353   7.240  17.364  0.1759  0.0608  0.3328
  873TIP3    H126814   4.385   7.294  17.435  1.1493  1.5465 -1.1632
  873TIP3    H226815   4.367   7.150  17.393  1.1054  0.6435  1.7464
  874TIP3   OH226816   3.991   6.538  18.574 -0.1177 -0.2003  0.1124
  874TIP3    H126817   4.082   6.540  18.546  0.0355 -0.3322  0.5909
  874TIP3    H226818   3.949   6.609  18.526  0.3791  0.2664  0.3594
  875TIP3   OH226819   6.957   1.177  18.335 -0.2118  0.3501 -0.9718
  875TIP3    H126820   6.876   1.217  18.303 -0.3798  0.4553 -0.4097
  875TIP3    H226821   7.027   1.230  18.295 -0.4266  0.7713 -0.7984
  876TIP3   OH226822   7.543   7.066  17.661  0.1400 -0.2508 -0.2185
  876TIP3    H126823   7.465   7.010  17.667 -1.1012  1.3295 -0.7810
  876TIP3    H226824   7.604   7.029  17.725 -1.3421 -1.1589  0.7336
  877TIP3   OH226825   1.124   7.272  17.765 -0.5686  0.2170  0.3732
  877TIP3    H126826   1.070   7.333  17.815 -2.3631 -0.5869 -0.4861
  877TIP3    H226827   1.157   7.324  17.691 -0.6067  0.5816  0.6122
  878TIP3   OH226828   3.898   4.277  19.426  0.5067  0.0066 -0.6038
  878TIP3    H126829   3.951   4.335  19.480  0.0073  1.6164 -1.7772
  878TIP3    H226830   3.810   4.282  19.464  0.6128 -0.5433 -0.2811
  879TIP3   OH226831   3.651   1.811  19.360 -0.1019  0.0776  0.2562
  879TIP3    H126832   3.619   1.900  19.376 -0.9174 -0.1654  0.0395
  879TIP3    H226833   3.597   1.756  19.418  1.0070 -0.1914  1.0550
  880TIP3   OH226834   1.001   7.437  18.568 -0.5075  0.2458  0.5037
  880TIP3    H126835   1.006   7.361  18.627 -0.2506  0.3672  0.6427
  880TIP3    H226836   0.924   7.420  18.513 -0.4596 -0.1070  0.5433
  881TIP3   OH226837   3.605   4.346  18.123  0.1429  0.1776 -0.0859
  881TIP3    H126838   3.636   4.270  18.173 -0.8087  0.4174  0.9081
  881TIP3    H226839   3.578   4.409  18.190 -2.3247  0.0399 -0.8476
  882TIP3   OH226840   4.175   5.732  18.309  0.0766  0.0342  0.2041
  882TIP3    H126841   4.119   5.739  18.232 -0.4501 -0.2701  0.5555
  882TIP3    H226842   4.250   5.789  18.289 -0.3874  0.5039 -0.2401
  883TIP3   OH226843   5.160   6.942  19.489 -0.2032  0.4058  0.2940
  883TIP3    H126844   5.071   6.915  19.466 -0.1148  0.6421 -0.3566
  883TIP3    H226845   5.185   6.884  19.561 -0.1828 -0.9560 -0.7655
  884TIP3   OH226846   5.080   1.089  18.329  0.0545  0.4288  0.3687
  884TIP3    H126847   5.153   1.119  18.274 -0.6244  0.7430 -0.3874
  884TIP3    H226848   5.093   1.134  18.412 -0.1714  1.7558 -0.2921
  885TIP3   OH226849   0.798   2.613  17.698  0.3975 -0.6099  0.3333
  885TIP3    H126850   0.847   2.692  17.676 -0.4601  0.5234  2.1972
  885TIP3    H226851   0.706   2.639  17.690  0.0874 -1.0509  2.0382
  886TIP3   OH226852   3.326   2.320  18.149  0.7221  0.4590 -0.1775
  886TIP3    H126853   3.296   2.344  18.237  1.5688 -0.3494  0.3465
  886TIP3    H226854   3.250   2.279  18.109  0.9239 -1.0878  0.9516
  887TIP3   OH226855   3.767   3.503  19.548 -0.5866 -0.0751 -0.0796
  887TIP3    H126856   3.785   3.514  19.642 -0.0745  1.6820 -0.3369
  887TIP3    H226857   3.850   3.474  19.511 -0.6228 -0.1822 -0.0767
  888TIP3   OH226858   6.825   0.226  18.125  0.5348  0.0211  0.2751
  888TIP3    H126859   6.769   0.151  18.145 -0.1511  0.4375 -0.0560
  888TIP3    H226860   6.849   0.261  18.211 -0.8323  0.6517  0.4265
  889TIP3   OH226861   5.436   4.285  17.785  0.1047  0.5687 -0.5096
  889TIP3    H126862   5.460   4.200  17.822  0.2557  0.7810 -0.1121
  889TIP3    H226863   5.341   4.289  17.792  0.1878  0.8951  0.5021
  890TIP3   OH226864   4.724   6.083  17.845  0.2902 -0.1570 -0.1344
  890TIP3    H126865   4.770   6.135  17.779  1.7226 -1.1444  0.0333
  890TIP3    H226866   4.771   6.101  17.927  0.7229 -1.5569 -0.0448
  891TIP3   OH226867   6.211   2.472  18.620  0.0331  0.3505 -0.1715
  891TIP3    H126868   6.182   2.547  18.568 -0.4145  0.9426  0.8812
  891TIP3    H226869   6.141   2.407  18.609  0.7466 -0.2034 -1.6307
  892TIP3   OH226870   0.666   0.090  17.824  0.6577  0.0375  0.3526
  892TIP3    H126871   0.709   0.130  17.749 -0.6964  1.4653  0.2684
  892TIP3    H226872   0.683  -0.004  17.815  0.6874  0.1900 -1.6319
  893TIP3   OH226873   2.265   3.360  18.267  0.0482  0.3173  0.1523
  893TIP3    H126874   2.360   3.368  18.267  0.0691  0.1517 -0.6020
  893TIP3    H226875   2.244   3.318  18.183 -0.6911  0.3959  0.2883
  894TIP3   OH226876   6.300   3.071  19.234 -0.5668  0.1241 -0.2723
  894TIP3    H126877   6.273   2.980  19.236  1.8455 -0.6747 -0.9692
  894TIP3    H226878   6.337   3.084  19.146  1.9088  0.8404  0.7782
  895TIP3   OH226879   4.933   3.380  18.229 -0.2574 -0.0464  0.4745
  895TIP3    H126880   4.976   3.429  18.298 -0.4951  2.0571 -0.7681
  895TIP3    H226881   4.841   3.374  18.257  0.0159 -0.9379  1.2195
  896TIP3   OH226882   4.467   1.897  16.745 -0.9220 -0.0594 -0.1265
  896TIP3    H126883   4.394   1.951  16.776  0.2424  0.3206  2.1525
  896TIP3    H226884   4.541   1.957  16.739 -0.3362 -0.8031 -0.5740
  897TIP3   OH226885   7.223   1.053  17.775 -0.5333  0.0232 -0.2146
  897TIP3    H126886   7.257   1.096  17.854  1.1595 -0.5303 -0.5950
  897TIP3    H226887   7.246   1.113  17.704 -1.3848  0.1667 -0.3750
  898TIP3   OH226888   7.536   4.110  18.764  0.4460 -0.0980 -0.1711
  898TIP3    H126889   7.475   4.166  18.717  2.6767  1.1944 -1.6752
  898TIP3    H226890   7.622   4.134  18.731  1.9053 -1.1959  2.5275
  899TIP3   OH226891   5.916   1.753  18.649  0.1910  0.6681 -0.1376
  899TIP3    H126892   5.845   1.725  18.591 -0.5099 -0.5677  1.2346
  899TIP3    H226893   5.993   1.756  18.594 -0.8267  1.6681 -1.5960
  900TIP3   OH226894   7.358   4.615  18.832  0.7235  0.0317  0.1793
  900TIP3    H126895   7.314   4.536  18.865  2.0588 -1.1042 -0.6363
  900TIP3    H226896   7.301   4.646  18.761  0.6986 -0.8171 -0.1868
  901TIP3   OH226897   4.341   7.616  19.155 -0.1712 -0.2703 -0.3057
  901TIP3    H126898   4.389   7.673  19.215  0.5230 -0.2302 -0.8881
  901TIP3    H226899   4.400   7.603  19.081 -0.5959 -1.1853 -0.5006
  902TIP3   OH226900   0.712   6.215  19.088  0.1934  0.0901  0.1265
  902TIP3    H126901   0.676   6.166  19.162  0.1303  1.7932  1.2836
  902TIP3    H226902   0.656   6.192  19.014 -2.4708  1.5279  1.5284
  903TIP3   OH226903   0.099   3.035  18.371  0.0915  0.0626  0.2041
  903TIP3    H126904   0.015   3.023  18.327  0.5061 -2.1893 -0.0955
  903TIP3    H226905   0.150   3.088  18.310  0.2868 -2.0976 -1.6357
  904TIP3   OH226906   0.914   7.143  18.148 -0.1529 -0.0153 -0.0500
  904TIP3    H126907   0.843   7.139  18.085  0.4565 -0.4505 -0.7216
  904TIP3    H226908   0.949   7.053  18.151  0.2113  0.1345  0.4569
  905TIP3   OH226909   7.018   3.783  18.148 -0.3387 -0.5609  0.3781
  905TIP3    H126910   6.935   3.791  18.100  0.6936  0.6430 -1.3392
  905TIP3    H226911   7.056   3.702  18.115 -0.0220 -0.1768 -0.2166
  906TIP3   OH226912   5.388   3.847  17.065 -0.3548 -0.1706  0.0091
  906TIP3    H126913   5.456   3.819  17.126  0.2830  0.1298 -0.5496
  906TIP3    H226914   5.380   3.941  17.080 -0.4890 -0.1680 -0.0784
  907TIP3   OH226915   2.439   4.098  18.393  0.2245  0.0846  0.5442
  907TIP3    H126916   2.389   4.022  18.362 -0.7451  1.3140 -1.0300
  907TIP3    H226917   2.507   4.060  18.449  1.7054 -2.3249 -2.4983
  908TIP3   OH226918   5.363   0.932  17.824 -0.5912 -0.0330  0.0705
  908TIP3    H126919   5.277   0.972  17.812 -1.3314 -1.8914 -1.3894
  908TIP3    H226920   5.414   0.997  17.873 -2.4727  1.5584  0.0167
  909TIP3   OH226921   6.350   4.606  16.988 -0.3382 -0.6206 -0.0359
  909TIP3    H126922   6.397   4.552  17.052 -1.3240 -1.3358  0.1071
  909TIP3    H226923   6.343   4.552  16.910 -0.4155 -0.3038 -0.2537
  910TIP3   OH226924   6.149   4.472  17.691  0.2854  0.0666  0.3547
  910TIP3    H126925   6.054   4.480  17.701  0.3488 -1.1324  2.6934
  910TIP3    H226926   6.183   4.558  17.715 -0.1801  0.3061  0.1697
  911TIP3   OH226927   5.837   2.376  17.703 -0.0220 -0.1684 -0.6778
  911TIP3    H126928   5.901   2.376  17.633 -0.5475 -0.9078 -1.1772
  911TIP3    H226929   5.792   2.460  17.695  1.8638  1.0419  0.6306
  912TIP3   OH226930   0.908   1.552  18.516 -0.3216 -0.0904  0.1677
  912TIP3    H126931   0.983   1.611  18.522 -1.0254  0.7817  0.6632
  912TIP3    H226932   0.925   1.485  18.582 -0.1717  0.3414  0.5760
  913TIP3   OH226933   5.152   5.683  17.673  0.4078  0.0079 -0.6032
  913TIP3    H126934   5.135   5.753  17.736 -0.0770 -1.9089  1.5382
  913TIP3    H226935   5.102   5.707  17.595 -2.3585  0.5353  1.1932
  914TIP3   OH226936   6.647   4.899  18.294 -0.8434 -0.4856  0.1513
  914TIP3    H126937   6.575   4.929  18.239 -0.4777  0.4282  0.1554
  914TIP3    H226938   6.631   4.940  18.379  0.4301  0.9154 -0.2333
  915TIP3   OH226939   4.166   0.545  16.756 -0.0098  0.2512  0.4117
  915TIP3    H126940   4.111   0.470  16.778  1.4767 -0.8919  0.3872
  915TIP3    H226941   4.164   0.549  16.660 -0.3625  0.4470  0.4291
  916TIP3   OH226942   4.686   6.300  18.398  0.0865 -0.1373  0.5085
  916TIP3    H126943   4.769   6.288  18.353 -1.0499 -2.0469 -1.2719
  916TIP3    H226944   4.668   6.394  18.392  1.1458  0.0081 -0.8896
  917TIP3   OH226945   2.378   7.651  17.207 -0.6821 -0.3224 -0.0821
  917TIP3    H126946   2.435   7.591  17.255 -0.8816 -0.7221 -0.3465
  917TIP3    H226947   2.337   7.597  17.140 -0.8477  0.1141 -0.3348
  918TIP3   OH226948   4.209   1.383  18.309  0.1691  1.2898  0.3319
  918TIP3    H126949   4.139   1.357  18.369  0.7999 -2.1849 -0.2449
  918TIP3    H226950   4.164   1.420  18.234 -0.9876  0.4172  0.5634
  919TIP3   OH226951   0.896   7.280  17.573  0.1475  0.2931 -0.4486
  919TIP3    H126952   0.987   7.276  17.603 -0.1173 -2.9473  0.2176
  919TIP3    H226953   0.896   7.230  17.491 -0.7961  1.6534 -1.3307
  920TIP3   OH226954   3.936   2.562  18.057 -0.3703  0.0089 -0.1165
  920TIP3    H126955   4.022   2.526  18.076 -1.0172 -1.1936  0.6161
  920TIP3    H226956   3.874   2.499  18.094 -1.6507 -0.5983 -2.9945
  921TIP3   OH226957   1.046   0.199  17.189  0.2352  0.4387 -0.1111
  921TIP3    H126958   1.046   0.105  17.173  0.5488  0.4375 -0.1057
  921TIP3    H226959   1.069   0.208  17.281  0.0407  0.5161 -0.0680
  922TIP3   OH226960   7.373   7.178  19.419 -0.5819  0.1099 -0.1683
  922TIP3    H126961   7.314   7.150  19.489  0.7543 -2.0003  0.1937
  922TIP3    H226962   7.321   7.239  19.366 -2.2959  0.1165  1.4457
  923TIP3   OH226963   0.234   1.054  18.924  0.4154 -0.4222 -0.0683
  923TIP3    H126964   0.155   1.079  18.877  0.9174  2.0479  0.2473
  923TIP3    H226965   0.230   1.104  19.005  0.9290 -2.4762  1.2958
  924TIP3   OH226966   2.669   3.871  19.147 -0.2826 -0.2291 -0.4678
  924TIP3    H126967   2.667   3.882  19.242  0.9742  1.2690 -0.5636
  924TIP3    H226968   2.590   3.914  19.116 -1.0206 -1.2687 -0.0812
  925TIP3   OH226969   6.089   6.692  19.422 -0.0871  0.1026  0.2320
  925TIP3    H126970   6.028   6.765  19.419 -1.6404 -1.0734  1.6574
  925TIP3    H226971   6.064   6.642  19.500  0.3640 -2.3921 -1.1010
  926TIP3   OH226972   7.263   7.078  18.432  0.2077 -0.4965  0.5209
  926TIP3    H126973   7.273   7.157  18.485  1.0111 -2.2407  3.1936
  926TIP3    H226974   7.351   7.058  18.402  0.1196 -0.7220  0.4108
  927TIP3   OH226975   1.643   2.208  17.747 -0.0818 -0.5883  0.0956
  927TIP3    H126976   1.699   2.153  17.692  1.0463 -1.5174  2.0447
  927TIP3    H226977   1.592   2.145  17.799 -1.1249  0.2495  0.1083
  928TIP3   OH226978   6.234   5.872  18.764  0.4079 -0.6046 -0.4319
  928TIP3    H126979   6.225   5.811  18.691  1.2411 -0.9432 -0.2659
  928TIP3    H226980   6.310   5.840  18.813  0.9694  0.6539 -0.4272
  929TIP3   OH226981   1.491   0.045  18.417 -0.3734  0.1799 -0.7190
  929TIP3    H126982   1.574   0.047  18.370  0.4385  0.4779  0.7066
  929TIP3    H226983   1.495  -0.034  18.470 -1.2307 -0.0802 -1.0203
  930TIP3   OH226984   4.258   3.735  17.709 -0.4577 -0.0810  0.2233
  930TIP3    H126985   4.181   3.684  17.737 -0.9083 -0.0350 -0.8707
  930TIP3    H226986   4.269   3.801  17.777 -1.8544  0.3770  0.0374
  931TIP3   OH226987   4.868   4.588  18.627 -0.4524 -0.0547  0.3873
  931TIP3    H126988   4.905   4.663  18.580 -0.7709 -0.0015  0.2172
  931TIP3    H226989   4.930   4.517  18.611  0.0985  0.2920  0.9438
  932TIP3   OH226990   2.807   6.644  19.067 -0.0951  0.1661  0.3892
  932TIP3    H126991   2.895   6.624  19.098 -0.0315 -0.9931 -0.4484
  932TIP3    H226992   2.805   6.611  18.977 -1.9403 -1.5576  0.9837
  933TIP3   OH226993   5.138   4.212  16.369 -0.1031 -0.2550 -0.2143
  933TIP3    H126994   5.069   4.238  16.431 -0.0096 -2.0538  0.7386
  933TIP3    H226995   5.091   4.191  16.289 -0.5728 -0.5015  0.1162
  934TIP3   OH226996   1.623   7.588  17.335  0.2314  0.3151  0.3271
  934TIP3    H126997   1.714   7.593  17.364 -0.0388 -1.5069  1.6005
  934TIP3    H226998   1.621   7.516  17.273 -0.3156  0.4594  0.1678
  935TIP3   OH226999   1.072   2.885  19.208 -0.4041  0.1160 -0.0171
  935TIP3    H127000   1.064   2.904  19.301 -2.1799 -1.0755  0.1421
  935TIP3    H227001   1.054   2.968  19.164  1.0465  0.8215  0.6871
  936TIP3   OH227002   4.552   6.972  17.809  0.1595 -0.6060  0.0547
  936TIP3    H127003   4.547   6.989  17.903 -0.3644 -0.8712  0.0794
  936TIP3    H227004   4.467   6.998  17.775 -0.3076 -2.1651 -0.0620
  937TIP3   OH227005   5.843   7.378  19.448 -0.5236 -0.1348 -0.0726
  937TIP3    H127006   5.849   7.458  19.501  0.2553 -1.4960  2.0564
  937TIP3    H227007   5.753   7.348  19.459 -0.5548 -0.0381 -0.0701
  938TIP3   OH227008   2.706   4.181  19.151 -0.2444  0.4230 -0.0876
  938TIP3    H127009   2.662   4.199  19.234  1.2372  2.6490  0.3174
  938TIP3    H227010   2.677   4.252  19.093  3.2673  2.6132  0.4786
  939TIP3   OH227011   7.671   6.469  17.868 -0.2412 -0.1337  0.7237
  939TIP3    H127012   7.719   6.387  17.875  0.4895  0.1660 -0.4871
  939TIP3    H227013   7.715   6.527  17.930 -0.2033 -0.4032  0.9518
  940TIP3   OH227014   4.071   4.468  16.835 -0.1381 -0.2906  0.0038
  940TIP3    H127015   3.984   4.502  16.816 -0.4796 -1.3527 -0.4558
  940TIP3    H227016   4.075   4.463  16.931 -0.7642 -0.6478  0.0205
  941TIP3   OH227017   4.992   1.515  17.891 -0.1671 -0.0229  0.3214
  941TIP3    H127018   4.932   1.455  17.847  1.2944 -0.8124 -0.7145
  941TIP3    H227019   4.942   1.550  17.964 -1.7409 -0.9316 -0.2640
  942TIP3   OH227020   6.284   0.793  18.867  0.5270  0.7034  0.1404
  942TIP3    H127021   6.205   0.844  18.852 -0.0771 -0.6012 -1.3150
  942TIP3    H227022   6.257   0.724  18.927  0.6250  0.4042 -0.1561
  943TIP3   OH227023   1.772   0.759  18.523 -0.6494 -0.5209 -0.3093
  943TIP3    H127024   1.745   0.677  18.480 -1.7183 -0.4893  0.2897
  943TIP3    H227025   1.691   0.807  18.538 -0.0556  0.5656 -0.4456
  944TIP3   OH227026   5.855   4.526  19.276  0.1936  0.0681 -0.2262
  944TIP3    H127027   5.783   4.586  19.297  0.7550  0.8943 -0.6373
  944TIP3    H227028   5.933   4.581  19.273  0.6594 -0.6099 -1.0413
  945TIP3   OH227029   7.461   3.618  17.384 -0.1109  0.4599 -0.3157
  945TIP3    H127030   7.432   3.623  17.475 -0.2582 -0.2316 -0.3197
  945TIP3    H227031   7.502   3.532  17.376  0.5216  0.7881 -0.7282
  946TIP3   OH227032   3.724   7.267  17.360  0.0998 -0.6025 -0.7716
  946TIP3    H127033   3.698   7.349  17.401 -0.3530 -1.0585 -0.1255
  946TIP3    H227034   3.820   7.268  17.361  0.1028 -0.6151  0.3425
  947TIP3   OH227035   5.051   5.391  16.898 -0.0663 -0.2904  0.1407
  947TIP3    H127036   5.086   5.396  16.987  0.0378  1.1282  0.0381
  947TIP3    H227037   5.010   5.476  16.883  1.1354  0.0418 -1.6450
  948TIP3   OH227038   0.430   6.175  18.510  0.2648 -0.5953  0.0186
  948TIP3    H127039   0.509   6.229  18.509  0.5057 -0.9371  0.3840
  948TIP3    H227040   0.446   6.109  18.578  1.3466 -3.0891 -2.4193
  949TIP3   OH227041   2.600   3.504  18.408 -0.2785 -0.3022  0.3924
  949TIP3    H127042   2.595   3.511  18.503 -1.1802 -1.4161  0.4376
  949TIP3    H227043   2.565   3.418  18.387 -0.2803 -0.0045 -0.9749
  950TIP3   OH227044   0.408   7.488  16.798 -0.0241  0.2042 -0.7859
  950TIP3    H127045   0.327   7.437  16.807 -0.3803  0.5847 -1.7059
  950TIP3    H227046   0.383   7.562  16.743  0.7013  0.9042 -0.1791
  951TIP3   OH227047   5.345   1.479  17.833 -0.1557  0.4363 -0.3374
  951TIP3    H127048   5.372   1.522  17.752 -0.1945 -0.0684 -0.6182
  951TIP3    H227049   5.425   1.473  17.885  0.6329 -2.2277 -1.6837
  952TIP3   OH227050   2.599   6.602  17.997  0.0111 -0.4890 -0.5309
  952TIP3    H127051   2.605   6.522  17.945  0.0426 -1.4931  0.9846
  952TIP3    H227052   2.619   6.575  18.086 -0.0535  1.1991  0.0268
  953TIP3   OH227053   5.887   4.803  17.593  0.2542 -0.2180  0.4561
  953TIP3    H127054   5.852   4.852  17.519 -0.5708 -0.6729  0.5335
  953TIP3    H227055   5.982   4.804  17.580  0.4924  3.0556  1.4918
  954TIP3   OH227056   0.691   1.265  17.893 -0.2081 -0.4696 -0.2266
  954TIP3    H127057   0.678   1.359  17.882 -1.5835 -0.7401 -1.2505
  954TIP3    H227058   0.665   1.228  17.808 -2.5168 -1.9941  1.0515
  955TIP3   OH227059   5.319   6.822  17.911 -0.2996 -0.5646  0.1128
  955TIP3    H127060   5.326   6.914  17.935 -0.9280 -0.1799 -1.1001
  955TIP3    H227061   5.370   6.814  17.830 -1.9128 -0.7991 -0.9343
  956TIP3   OH227062   3.878   3.005  16.930  0.1982  0.1303  0.0182
  956TIP3    H127063   3.959   3.041  16.894  0.2809 -0.7005 -0.6453
  956TIP3    H227064   3.857   2.931  16.873  0.4513 -1.3693  1.7673
  957TIP3   OH227065   6.328   4.679  18.930 -0.3407 -0.1345  0.6670
  957TIP3    H127066   6.265   4.607  18.935 -0.5033  0.0388  1.2468
  957TIP3    H227067   6.385   4.666  19.006  0.9415 -0.8490 -0.3972
  958TIP3   OH227068   3.816   1.292  17.282  0.2519  0.2131 -0.0563
  958TIP3    H127069   3.842   1.334  17.199  0.3806  2.4175  1.0258
  958TIP3    H227070   3.828   1.360  17.348  0.2641 -1.5206  1.8287
  959TIP3   OH227071   4.364   6.734  19.330 -0.0532  0.4310 -0.2948
  959TIP3    H127072   4.326   6.647  19.336  0.7866  0.1523  1.6659
  959TIP3    H227073   4.455   6.719  19.305 -0.2469  0.8477 -1.2864
  960TIP3   OH227074   5.756   4.705  18.298  0.2583  0.1754 -0.1009
  960TIP3    H127075   5.707   4.690  18.218  0.7018  0.3832 -0.4180
  960TIP3    H227076   5.796   4.621  18.319 -2.6466 -0.8319  1.8470
  961TIP3   OH227077   4.071   7.458  17.466  0.1911 -0.0274 -0.9868
  961TIP3    H127078   4.123   7.528  17.506  2.6543 -1.5917 -1.2498
  961TIP3    H227079   3.992   7.454  17.520  1.4909  0.7187  1.1210
  962TIP3   OH227080   4.800   5.985  18.384 -0.4134  0.3190  0.0417
  962TIP3    H127081   4.734   6.050  18.407  0.7768  1.7800 -0.4850
  962TIP3    H227082   4.872   6.036  18.346  0.3904 -1.3565 -0.8088
  963TIP3   OH227083   6.636   7.177  19.259  0.1614 -0.2891  1.0080
  963TIP3    H127084   6.562   7.117  19.260  0.8573 -1.1734  0.8433
  963TIP3    H227085   6.613   7.242  19.193 -0.1492 -0.9839  0.4140
  964TIP3   OH227086   7.424   2.325  18.299  0.3638  0.1089 -0.3276
  964TIP3    H127087   7.425   2.234  18.270  1.0362 -0.1070  0.3383
  964TIP3    H227088   7.517   2.350  18.301  0.3209  0.2482  1.1931
  965TIP3   OH227089   3.590   2.071  17.998 -0.6433 -0.4434 -0.3021
  965TIP3    H127090   3.590   1.989  17.949 -0.3830  0.1141 -1.2624
  965TIP3    H227091   3.544   2.051  18.080 -1.3045 -1.3317 -0.8769
  966TIP3   OH227092   0.029   3.013  17.283  0.5670  0.0545 -0.3165
  966TIP3    H127093   0.070   2.927  17.269 -1.6385 -0.8996 -1.4064
  966TIP3    H227094  -0.007   3.008  17.372  3.3441  1.2130  0.9860
  967TIP3   OH227095   2.790   6.139  16.753  0.1904 -0.2510  0.2543
  967TIP3    H127096   2.736   6.125  16.831 -1.4299 -3.7159 -1.2514
  967TIP3    H227097   2.746   6.210  16.707  0.3650  0.8936  1.7622
  968TIP3   OH227098   7.492   6.510  19.261 -0.1393  0.1749 -0.7179
  968TIP3    H127099   7.413   6.522  19.207 -0.1277 -1.1484 -1.0672
  968TIP3    H227100   7.460   6.475  19.343  0.0882 -0.4694 -0.9005
  969TIP3   OH227101   6.793   6.159  17.503  0.0421  0.5040  0.3157
  969TIP3    H127102   6.876   6.152  17.455 -0.8483  1.9988 -1.5661
  969TIP3    H227103   6.802   6.240  17.554 -0.5157  1.0619 -0.4610
  970TIP3   OH227104   7.600   5.864  18.032 -0.1016  0.0372  0.0053
  970TIP3    H127105   7.639   5.812  18.102 -1.0700 -1.1617 -0.3144
  970TIP3    H227106   7.674   5.901  17.984  0.5894 -0.4089  0.7194
  971TIP3   OH227107   1.538   2.444  17.867 -0.6775 -0.3284  0.0534
  971TIP3    H127108   1.580   2.374  17.817 -1.7560 -0.9399 -0.0252
  971TIP3    H227109   1.509   2.402  17.948  0.7942  0.5865  1.1067
  972TIP3   OH227110   1.050   6.409  16.711 -0.3465 -0.6489 -0.2383
  972TIP3    H127111   1.065   6.371  16.625  0.8059 -1.2299  0.1962
  972TIP3    H227112   1.024   6.500  16.693  0.6422 -0.5359 -1.1712
  973TIP3   OH227113   5.496   4.309  17.494  0.4705 -0.6186 -0.1485
  973TIP3    H127114   5.490   4.219  17.463 -1.0972 -0.9622  1.0092
  973TIP3    H227115   5.470   4.304  17.587  0.6799  0.9637  0.0242
  974TIP3   OH227116   4.729   4.859  18.331  0.1451  0.2216 -0.4439
  974TIP3    H127117   4.772   4.775  18.314  2.0538  0.8019  1.2079
  974TIP3    H227118   4.787   4.924  18.290  0.2508  0.9354  0.8011
  975TIP3   OH227119   5.696   4.356  18.532  0.1877 -0.4446  0.1485
  975TIP3    H127120   5.606   4.349  18.564  0.8770 -0.8208  2.1363
  975TIP3    H227121   5.723   4.265  18.517  0.1950 -0.3212 -0.6292
  976TIP3   OH227122   0.389   4.069  16.923  0.0765  0.1262 -0.1408
  976TIP3    H127123   0.348   3.986  16.948  1.0709 -0.0166  1.1194
  976TIP3    H227124   0.442   4.093  16.999  0.8683  1.2345 -1.0195
  977TIP3   OH227125   0.003   0.330  19.346 -0.4238  0.1872  0.4438
  977TIP3    H127126   0.080   0.334  19.402  0.5685  1.7001 -0.9307
  977TIP3    H227127  -0.058   0.393  19.386 -0.0538  0.6387  0.3096
  978TIP3   OH227128   7.063   0.334  19.347  0.4195  0.0350  0.2575
  978TIP3    H127129   7.038   0.295  19.263 -0.5394  1.6943 -0.2748
  978TIP3    H227130   7.068   0.428  19.329 -0.3868  0.4902  2.1726
  979TIP3   OH227131   0.608   0.743  18.419 -0.1654  0.1757  0.6816
  979TIP3    H127132   0.689   0.692  18.419  0.5494  1.2656  0.1164
  979TIP3    H227133   0.539   0.678  18.415  0.6967 -0.7591  0.4743
  980TIP3   OH227134   0.017   5.226  16.787  0.0741 -0.1531  0.4520
  980TIP3    H127135  -0.025   5.147  16.753  0.1409  0.0932 -0.2147
  980TIP3    H227136   0.103   5.196  16.817  0.3962 -0.2032 -0.4927
  981TIP3   OH227137   4.694   0.366  18.139  0.3042  0.1083 -0.3414
  981TIP3    H127138   4.660   0.455  18.136 -1.7132 -0.5511  0.5981
  981TIP3    H227139   4.698   0.345  18.233  0.4450 -0.8942 -0.5546
  982TIP3   OH227140   2.870   5.532  17.997  0.5290  0.4514  0.4859
  982TIP3    H127141   2.805   5.549  18.065 -0.5102 -0.8282 -0.1586
  982TIP3    H227142   2.883   5.437  17.999  0.9785  0.4743 -0.6516
  983TIP3   OH227143   0.440   6.028  17.754 -0.4341  0.3686 -0.2167
  983TIP3    H127144   0.492   6.107  17.770 -0.7985  0.6619 -0.4807
  983TIP3    H227145   0.484   5.960  17.806 -0.8699  1.0217  1.0545
  984TIP3   OH227146   4.234   4.411  16.613  0.2624 -0.5304  0.3374
  984TIP3    H127147   4.215   4.445  16.701  1.4439 -0.0853  0.4391
  984TIP3    H227148   4.261   4.321  16.628  0.5711 -0.4204  0.4395
  985TIP3   OH227149   3.720   5.343  18.140 -0.4668 -0.0798 -0.2158
  985TIP3    H127150   3.708   5.401  18.215 -1.9956 -0.5064 -0.0927
  985TIP3    H227151   3.706   5.255  18.175 -0.2433 -0.3589 -0.8126
  986TIP3   OH227152   0.405   3.202  18.536 -1.0133 -0.2371 -0.1213
  986TIP3    H127153   0.356   3.200  18.454 -1.2249 -0.1986  0.0053
  986TIP3    H227154   0.463   3.279  18.527 -3.6109  2.0634  1.2382
  987TIP3   OH227155   1.784   2.168  16.296  0.3033 -0.2388 -1.1081
  987TIP3    H127156   1.693   2.177  16.323  0.1688  0.4640 -1.7451
  987TIP3    H227157   1.822   2.255  16.309  1.6048 -1.1127  1.5778
  988TIP3   OH227158   5.349   1.937  17.406  0.1791 -0.2727  0.1568
  988TIP3    H127159   5.353   2.031  17.423 -2.2659 -0.2342  0.9301
  988TIP3    H227160   5.357   1.929  17.311 -0.9595  0.8595 -0.0651
  989TIP3   OH227161   4.700   1.019  16.587 -0.2940 -0.3272  0.5099
  989TIP3    H127162   4.780   1.071  16.589 -0.5086  0.0042  0.6322
  989TIP3    H227163   4.682   1.006  16.494 -2.1604  2.8476  0.2643
  990TIP3   OH227164   4.191   3.332  18.740  0.0737 -0.2496 -0.2443
  990TIP3    H127165   4.241   3.412  18.722  0.3137 -0.4113 -0.3110
  990TIP3    H227166   4.101   3.354  18.717  0.3630 -0.4490 -1.6939
  991TIP3   OH227167   6.798   5.790  19.392 -0.0595 -0.4723 -0.6188
  991TIP3    H127168   6.739   5.865  19.397  0.6104  0.0160  0.2079
  991TIP3    H227169   6.774   5.735  19.466 -0.0320 -0.6916 -0.7716
  992TIP3   OH227170   3.712   3.912  18.309  1.1150  0.4152 -0.6868
  992TIP3    H127171   3.707   4.001  18.344  1.4532 -0.3459  1.4635
  992TIP3    H227172   3.656   3.861  18.367  3.5241 -1.3428  0.2212
  993TIP3   OH227173   5.081   6.491  18.918 -0.0350 -0.0043  0.0746
  993TIP3    H127174   5.110   6.495  18.827  0.6973  0.7706  0.3282
  993TIP3    H227175   5.162   6.478  18.968 -0.5323 -1.3736  0.5549
  994TIP3   OH227176   7.276   4.157  16.828  0.4263 -0.2947 -0.0604
  994TIP3    H127177   7.300   4.244  16.793 -1.1909 -0.4314 -1.6447
  994TIP3    H227178   7.348   4.100  16.800  1.0046  0.3303  0.1194
  995TIP3   OH227179   5.063   0.286  18.042 -0.1951  0.2320 -0.1163
  995TIP3    H127180   5.007   0.218  18.004  0.3520 -0.1859 -0.1816
  995TIP3    H227181   5.018   0.368  18.021 -0.6853 -0.0872 -0.3340
  996TIP3   OH227182   3.617   7.507  19.017 -0.0478 -0.1835  0.3746
  996TIP3    H127183   3.540   7.510  18.962  1.7812  1.0875 -2.3263
  996TIP3    H227184   3.649   7.597  19.020  3.0270 -1.0731 -1.2842
  997TIP3   OH227185   4.030   1.635  17.093 -0.3856 -0.4308 -0.7902
  997TIP3    H127186   3.951   1.596  17.056 -1.2290  0.8535 -0.3980
  997TIP3    H227187   4.099   1.571  17.075 -1.3976 -1.3182 -1.6392
  998TIP3   OH227188   3.948   1.164  18.930 -0.3259  0.1187 -0.3806
  998TIP3    H127189   3.873   1.125  18.974 -0.4744  0.4769 -0.3173
  998TIP3    H227190   3.986   1.092  18.879 -1.4602  0.2524 -1.4375
  999TIP3   OH227191   2.051   2.371  18.526 -0.3514 -0.1190 -0.2774
  999TIP3    H127192   1.975   2.420  18.496 -0.3377  0.4112  0.5144
  999TIP3    H227193   2.105   2.359  18.447 -0.6264  0.6483 -0.5864
 1000TIP3   OH227194   0.887   2.980  18.818  0.8122 -0.0749  0.0065
 1000TIP3    H127195   0.936   2.911  18.862  0.2528  1.1814  2.8469
 1000TIP3    H227196   0.921   3.061  18.856 -0.8837  1.0148 -0.6866
 1001TIP3   OH227197   0.794   1.583  18.266 -0.0102 -0.5410  0.0242
 1001TIP3    H127198   0.823   1.599  18.356 -0.9584 -2.4308  0.7108
 1001TIP3    H227199   0.767   1.669  18.234 -0.2341  0.0721  1.7513
 1002TIP3   OH227200   7.569   2.658  16.824  0.0979  0.0472 -0.1228
 1002TIP3    H127201   7.583   2.577  16.874  1.0676 -0.0612 -0.5308
 1002TIP3    H227202   7.656   2.698  16.819 -0.2056  0.6622 -0.6858
 1003TIP3   OH227203   2.021   6.637  17.083 -0.1413 -0.0242 -0.6849
 1003TIP3    H127204   2.076   6.659  17.008 -0.1646 -1.3818 -1.1297
 1003TIP3    H227205   2.017   6.542  17.083  0.3528 -0.0873  1.4266
 1004TIP3   OH227206   3.476   3.466  17.983 -0.2909  0.0369 -0.0428
 1004TIP3    H127207   3.417   3.422  18.045 -2.0664  1.0369 -0.9403
 1004TIP3    H227208   3.473   3.412  17.904  1.0901 -0.6339  0.3445
 1005TIP3   OH227209   6.226   5.178  17.416  0.2522 -0.2354  0.1974
 1005TIP3    H127210   6.302   5.120  17.412  0.8537  0.2355  2.9850
 1005TIP3    H227211   6.156   5.128  17.374  1.6819 -1.3307 -0.9927
 1006TIP3   OH227212   1.789   1.240  17.272 -0.0781 -0.2113  0.4521
 1006TIP3    H127213   1.804   1.170  17.209  0.8553  0.7462 -0.4381
 1006TIP3    H227214   1.875   1.257  17.310 -0.2864  0.4397  0.6517
 1007TIP3   OH227215   1.931   2.421  18.102 -0.1697  1.4110 -0.0354
 1007TIP3    H127216   1.876   2.346  18.078  1.0434  0.0462  1.2380
 1007TIP3    H227217   1.870   2.486  18.137 -1.1303  0.5976 -0.1602
 1008TIP3   OH227218   3.177   0.073  16.929 -0.2791 -0.1410 -0.1246
 1008TIP3    H127219   3.130   0.045  17.008 -0.5162  2.4524  0.7690
 1008TIP3    H227220   3.157   0.166  16.922  2.5753  0.4837 -1.2397
 1009TIP3   OH227221   6.112   6.652  17.775  0.1794  0.7678  0.2686
 1009TIP3    H127222   6.106   6.710  17.850  0.4894  2.2409 -0.7876
 1009TIP3    H227223   6.204   6.658  17.748  0.2676 -0.3981  0.2566
 1010TIP3   OH227224   3.364   7.425  17.312 -0.4135 -0.4844 -0.6786
 1010TIP3    H127225   3.424   7.488  17.271 -0.6014  0.1006 -0.0718
 1010TIP3    H227226   3.366   7.446  17.405 -1.0517 -0.8907 -0.5634
 1011TIP3   OH227227   5.796   6.610  17.492 -0.4655 -0.4766  1.0377
 1011TIP3    H127228   5.753   6.640  17.412 -0.1845 -1.4861  0.4959
 1011TIP3    H227229   5.809   6.516  17.480 -0.3278 -0.6348  2.2324
 1012TIP3   OH227230   6.064   4.243  19.059 -0.2802 -0.0877 -0.3962
 1012TIP3    H127231   6.018   4.170  19.016 -0.6323 -0.5078  0.6483
 1012TIP3    H227232   6.002   4.274  19.126  0.0556  0.8728 -0.5191
 1013TIP3   OH227233   3.641   0.311  19.061  0.0104  0.3501 -0.0362
 1013TIP3    H127234   3.686   0.279  18.982  0.5648 -1.5427  0.9803
 1013TIP3    H227235   3.548   0.300  19.041 -0.0077  2.3464 -1.3654
 1014TIP3   OH227236   3.551   4.573  19.267  0.2789  1.1509  0.0031
 1014TIP3    H127237   3.492   4.562  19.193 -0.0494  2.9024 -0.0493
 1014TIP3    H227238   3.604   4.493  19.268  0.0807  0.9478 -1.9129
 1015TIP3   OH227239   1.644   5.735  18.210  0.2973 -0.1757  0.1311
 1015TIP3    H127240   1.732   5.727  18.246  0.4888  1.3613  0.0946
 1015TIP3    H227241   1.605   5.809  18.256 -1.5000 -1.6206  1.0871
 1016TIP3   OH227242   6.211   1.099  18.315 -0.3590 -0.0399  0.0973
 1016TIP3    H127243   6.159   1.022  18.336  0.0411 -0.1677  0.6619
 1016TIP3    H227244   6.301   1.068  18.315 -0.2979  0.1081 -1.2183
 1017TIP3   OH227245   7.431   0.523  17.662 -0.6192  0.1466 -0.0865
 1017TIP3    H127246   7.484   0.510  17.741 -1.9232 -0.5166  0.6995
 1017TIP3    H227247   7.426   0.618  17.652 -0.8051  0.2458  0.8774
 1018TIP3   OH227248   0.328   6.869  18.095 -0.3068 -0.0835 -0.1507
 1018TIP3    H127249   0.291   6.955  18.114 -2.2440 -0.6974 -0.9560
 1018TIP3    H227250   0.391   6.886  18.024  0.3828  0.8426  0.6516
 1019TIP3   OH227251   1.180   1.946  19.150 -0.1128 -0.3182 -0.0406
 1019TIP3    H127252   1.100   1.970  19.103 -0.0027  0.1281 -0.0059
 1019TIP3    H227253   1.225   2.029  19.163  0.8593 -0.6785 -0.9728
 1020TIP3   OH227254   0.358   7.244  17.498  0.1619  0.5101  0.7429
 1020TIP3    H127255   0.412   7.232  17.420  1.8914  0.4753  1.9033
 1020TIP3    H227256   0.364   7.337  17.517 -2.6272  1.1226 -0.7413
 1021TIP3   OH227257   4.401   4.953  17.993  0.3305  0.3224  0.0377
 1021TIP3    H127258   4.401   5.036  18.041 -0.1201  0.6628 -0.5354
 1021TIP3    H227259   4.441   4.890  18.054  1.0760  1.0444  0.3136
 1022TIP3   OH227260   4.284   7.484  17.162 -0.0781  0.1496 -0.2990
 1022TIP3    H127261   4.339   7.436  17.100  0.4806  0.0364  0.2736
 1022TIP3    H227262   4.248   7.557  17.111  1.1788  0.6506 -0.5080
 1023TIP3   OH227263   0.220   6.482  17.345 -0.5867 -0.0298 -0.3350
 1023TIP3    H127264   0.134   6.470  17.385 -0.7938 -2.3925 -1.2736
 1023TIP3    H227265   0.203   6.531  17.265 -0.8909  0.4954  0.0515
 1024TIP3   OH227266   0.594   3.260  16.972  0.0347 -0.0740 -0.2182
 1024TIP3    H127267   0.638   3.179  16.947  0.4401 -0.4330  1.5445
 1024TIP3    H227268   0.578   3.305  16.889  2.2620 -0.6870 -1.0507
 1025TIP3   OH227269   1.321   5.114  16.881  0.0251  0.1993 -0.0128
 1025TIP3    H127270   1.246   5.088  16.828  1.9470  0.3508 -3.1070
 1025TIP3    H227271   1.318   5.210  16.882  0.8423  0.2586 -1.3060
 1026TIP3   OH227272   0.076   7.032  17.869 -0.0240 -0.5630  0.6223
 1026TIP3    H127273   0.138   7.100  17.843 -1.2511  0.3860  0.0750
 1026TIP3    H227274   0.101   6.955  17.817  2.2194 -0.9998  2.2347
 1027TIP3   OH227275   1.919   3.751  17.587 -0.0852 -0.6289  0.0144
 1027TIP3    H127276   1.865   3.682  17.627 -1.8402  0.4162 -0.4616
 1027TIP3    H227277   1.913   3.735  17.493 -0.6238  0.2398 -0.1086
 1028TIP3   OH227278   1.497   7.583  18.656  0.2000  0.0002  0.5437
 1028TIP3    H127279   1.529   7.673  18.656  0.0207  0.1054 -1.4801
 1028TIP3    H227280   1.459   7.571  18.744  0.6886  1.7010  1.0297
 1029TIP3   OH227281   6.764   6.559  17.281  0.4784 -0.6760 -0.2659
 1029TIP3    H127282   6.682   6.536  17.236  1.3621 -3.8615 -0.4599
 1029TIP3    H227283   6.802   6.627  17.226 -2.2266  1.3286  0.1246
 1030TIP3   OH227284   3.251   6.580  18.392  0.3685  0.3238  0.1225
 1030TIP3    H127285   3.325   6.580  18.332  0.2930 -2.1861 -0.0797
 1030TIP3    H227286   3.174   6.568  18.335 -0.2033  2.4096  0.3687
 1031TIP3   OH227287   0.434   0.679  19.043  0.2826  0.0152 -0.0631
 1031TIP3    H127288   0.470   0.608  18.990  1.7694 -1.1959  2.4264
 1031TIP3    H227289   0.364   0.637  19.093  0.1673  0.6888  0.3399
 1032TIP3   OH227290   6.412   2.083  18.069 -0.7511 -0.0152  0.5246
 1032TIP3    H127291   6.425   2.167  18.026  2.5350  0.7507  2.5950
 1032TIP3    H227292   6.369   2.105  18.152 -3.1082 -0.9098 -0.3988
 1033TIP3   OH227293   5.033   1.390  18.280 -0.0122  0.8346  0.1548
 1033TIP3    H127294   4.978   1.315  18.258  0.3165  0.0947  1.7778
 1033TIP3    H227295   5.100   1.391  18.211  0.1896 -0.5831  0.3016
 1034TIP3   OH227296   7.639   7.256  16.494  0.8374  0.6252 -0.2753
 1034TIP3    H127297   7.669   7.199  16.423 -1.8285 -0.4228 -0.6622
 1034TIP3    H227298   7.550   7.226  16.514  0.1910  3.1538  1.1430
 1035TIP3   OH227299   5.992   1.251  17.469 -0.1354  0.2906  0.3317
 1035TIP3    H127300   6.013   1.288  17.383  0.8089 -1.0326 -0.0559
 1035TIP3    H227301   5.899   1.270  17.482 -0.3908  0.1945 -1.1722
 1036TIP3   OH227302   5.046   2.338  18.379 -0.4875 -0.1020  0.1777
 1036TIP3    H127303   5.136   2.368  18.373 -0.3845 -0.3897  0.2754
 1036TIP3    H227304   5.035   2.278  18.305 -0.5409 -0.2178  0.2795
 1037TIP3   OH227305   3.898   7.024  17.591 -0.4585  0.0724 -0.1621
 1037TIP3    H127306   3.904   6.946  17.645 -2.8757 -1.2408 -1.6125
 1037TIP3    H227307   3.818   7.068  17.620  0.8395  2.0885  0.6173
 1038TIP3   OH227308   3.205   3.194  16.797 -0.1408  0.1393 -0.6921
 1038TIP3    H127309   3.284   3.150  16.768 -0.3422 -0.2176 -0.7085
 1038TIP3    H227310   3.198   3.271  16.740  0.1844  0.1643 -0.6974
 1039TIP3   OH227311   7.294   2.873  17.681  0.1891 -0.4196  0.0940
 1039TIP3    H127312   7.261   2.881  17.591 -0.6010 -2.2821  0.1677
 1039TIP3    H227313   7.372   2.819  17.674  1.6738  1.6103  0.2692
 1040TIP3   OH227314   0.996   3.022  17.343 -0.2414 -0.0857  0.4503
 1040TIP3    H127315   1.092   3.024  17.351 -0.0194  1.1863 -1.6453
 1040TIP3    H227316   0.966   3.093  17.399  0.3537  1.6062 -1.2678
 1041TIP3   OH227317   1.295   1.218  17.462 -0.1423 -0.4850 -0.1035
 1041TIP3    H127318   1.210   1.253  17.488  0.3294  1.9130 -1.4933
 1041TIP3    H227319   1.298   1.228  17.367  1.9344  0.1079 -0.0301
 1042TIP3   OH227320   4.961   1.513  18.505  0.1966  0.3266  0.0209
 1042TIP3    H127321   4.983   1.454  18.432  0.2276 -0.2326  0.4780
 1042TIP3    H227322   4.912   1.584  18.463  1.0014  0.4928 -0.6868
 1043TIP3   OH227323   0.905   6.460  17.597  0.6072  0.0801 -0.2252
 1043TIP3    H127324   0.967   6.410  17.544  1.3023 -0.6467  1.2106
 1043TIP3    H227325   0.900   6.545  17.554  1.7651 -0.2228 -1.0075
 1044TIP3   OH227326   3.183   0.366  18.089 -0.5750 -0.3766  0.6268
 1044TIP3    H127327   3.173   0.271  18.083 -1.9626 -0.1609 -1.2409
 1044TIP3    H227328   3.273   0.379  18.120 -0.0025 -2.2769 -0.0990
 1045TIP3   OH227329   3.567   3.424  17.529 -0.3177  0.1086  0.0618
 1045TIP3    H127330   3.513   3.345  17.531  0.1492 -0.2164 -0.1199
 1045TIP3    H227331   3.639   3.403  17.469 -0.8802  1.1228 -1.0044
 1046TIP3   OH227332   1.387   5.550  16.055 -0.8925  0.3340  0.0255
 1046TIP3    H127333   1.397   5.455  16.048  0.8227  0.4372  0.8114
 1046TIP3    H227334   1.424   5.572  16.141 -1.6185  1.6811  0.0183
 1047TIP3   OH227335   2.513   1.304  19.181 -0.1230 -0.7575 -0.6585
 1047TIP3    H127336   2.464   1.369  19.131 -0.3645 -0.2902  0.1546
 1047TIP3    H227337   2.491   1.220  19.140 -2.3282 -0.6709  0.1880
 1048TIP3   OH227338   1.357   1.336  18.111 -0.1180  0.7055  0.3088
 1048TIP3    H127339   1.311   1.324  18.028  0.2768  0.0567  0.1764
 1048TIP3    H227340   1.446   1.306  18.094 -0.1992 -0.0431  1.1443
 1049TIP3   OH227341   5.580   5.619  18.157  0.0971  0.0671 -0.6548
 1049TIP3    H127342   5.489   5.598  18.180 -0.0253 -0.7497 -1.7817
 1049TIP3    H227343   5.627   5.614  18.240 -1.0741  1.6776  0.1647
 1050TIP3   OH227344   5.740   3.853  18.575  0.3336 -0.3658 -0.5070
 1050TIP3    H127345   5.646   3.859  18.562 -0.1230 -0.3411  2.1021
 1050TIP3    H227346   5.775   3.936  18.541 -1.0644  1.1261  1.4376
 1051TIP3   OH227347   7.010   6.087  17.352 -0.3408 -0.2257 -0.6376
 1051TIP3    H127348   7.013   6.048  17.265  0.9005 -0.4288 -0.5175
 1051TIP3    H227349   7.055   6.025  17.409  1.1782  1.0769 -0.3433
 1052TIP3   OH227350   6.451   0.608  17.907 -0.4444 -0.3468 -0.1418
 1052TIP3    H127351   6.356   0.603  17.903 -0.4825  0.3034 -0.1957
 1052TIP3    H227352   6.474   0.582  17.996 -0.6710 -0.5565 -0.1479
 1053TIP3   OH227353   4.545   1.859  18.623  0.0156  0.0105  0.0152
 1053TIP3    H127354   4.627   1.903  18.645  0.9330 -2.1227  1.2683
 1053TIP3    H227355   4.498   1.855  18.706 -0.5974 -0.2394 -0.3397
 1054TIP3   OH227356   0.306   5.912  18.632 -0.0487  0.6940  0.7476
 1054TIP3    H127357   0.355   5.853  18.689  0.5944  0.0943 -0.3889
 1054TIP3    H227358   0.253   5.855  18.577  0.8797  1.1091 -0.6360
 1055TIP3   OH227359   4.177   5.245  18.399 -0.4568 -0.1316  0.1693
 1055TIP3    H127360   4.175   5.340  18.394  1.7575 -0.0431  0.2741
 1055TIP3    H227361   4.085   5.220  18.407 -0.9697  2.1357  2.7421
 1056TIP3   OH227362   3.365   7.365  16.573  0.2831  0.2104 -0.3030
 1056TIP3    H127363   3.297   7.332  16.631  0.7134 -2.2728 -1.1025
 1056TIP3    H227364   3.374   7.298  16.506  2.1211  1.4332 -1.3735
 1057TIP3   OH227365   5.087   3.375  16.980  0.2010 -0.6592  0.5968
 1057TIP3    H127366   5.124   3.462  16.997  1.9434 -1.2133 -0.1633
 1057TIP3    H227367   4.996   3.382  17.009  0.6513  1.0244  1.7715
 1058TIP3   OH227368   0.519   4.909  16.890 -0.0515  0.0371 -0.1118
 1058TIP3    H127369   0.555   4.921  16.803 -1.5708  0.4242 -0.7101
 1058TIP3    H227370   0.533   4.992  16.935 -0.6317  0.3546 -0.5113
 1059TIP3   OH227371   2.921   0.459  18.932  0.4583 -0.3313  0.2028
 1059TIP3    H127372   2.947   0.501  18.850  0.2762  0.1291  0.3775
 1059TIP3    H227373   2.953   0.369  18.924 -0.5972 -0.6359 -0.8784
 1060TIP3   OH227374   5.396   6.438  18.318  0.1239  0.4018 -0.0498
 1060TIP3    H127375   5.374   6.518  18.271  0.5679 -0.4492 -1.7988
 1060TIP3    H227376   5.359   6.368  18.264  0.3774 -0.6146  1.0565
 1061TIP3   OH227377   0.665   5.591  17.991  0.0614  0.3975  0.2326
 1061TIP3    H127378   0.743   5.644  17.978 -0.0282  0.6804  0.8073
 1061TIP3    H227379   0.655   5.586  18.086 -0.7439  0.5477  0.1622
 1062TIP3   OH227380   2.282   6.539  18.049 -0.1345 -0.6504 -0.1652
 1062TIP3    H127381   2.221   6.485  17.999 -0.9988 -0.9530  1.1406
 1062TIP3    H227382   2.356   6.482  18.066 -0.5354 -1.0735  0.2177
 1063TIP3   OH227383   1.295   5.434  17.666 -0.2600 -0.3078 -0.3656
 1063TIP3    H127384   1.294   5.505  17.602 -0.8066  1.2520  1.2946
 1063TIP3    H227385   1.210   5.440  17.711 -0.3336 -2.0387 -0.1776
 1064TIP3   OH227386   2.673   3.911  17.797 -0.0439  0.3726  0.1833
 1064TIP3    H127387   2.631   3.996  17.784 -1.0229  0.2934  2.3774
 1064TIP3    H227388   2.603   3.847  17.785  0.8203 -0.2587 -2.1263
 1065TIP3   OH227389   1.627   5.238  16.899  0.4589  0.1825  0.2675
 1065TIP3    H127390   1.641   5.270  16.988 -0.3784 -1.9037  1.2339
 1065TIP3    H227391   1.572   5.305  16.857 -0.2906  0.5616  1.7950
 1066TIP3   OH227392   4.741   2.875  19.392  0.5076 -0.3240 -0.4689
 1066TIP3    H127393   4.792   2.825  19.328  0.3076 -1.4599  0.2386
 1066TIP3    H227394   4.741   2.821  19.471 -1.5759 -0.2401 -0.3511
 1067TIP3   OH227395   4.399   2.648  17.666  0.4256  0.8174  0.0756
 1067TIP3    H127396   4.433   2.715  17.725  3.9294 -0.3087 -0.4342
 1067TIP3    H227397   4.383   2.693  17.583  2.7876  1.1076 -0.2760
 1068TIP3   OH227398   0.069   2.211  17.209  0.3134 -0.1737 -0.4062
 1068TIP3    H127399  -0.025   2.229  17.206  0.7266  2.2733 -0.5490
 1068TIP3    H227400   0.078   2.140  17.273 -1.6505 -0.8126 -0.7841
 1069TIP3   OH227401   4.421   1.436  17.982 -0.1340  0.8351  0.2246
 1069TIP3    H127402   4.395   1.502  17.917  0.1855  0.5620 -0.1867
 1069TIP3    H227403   4.452   1.487  18.056  0.1545  1.1516 -0.1062
 1070TIP3   OH227404   2.890   7.629  19.191  0.4660  0.2010 -0.2458
 1070TIP3    H127405   2.816   7.642  19.132  1.8818  0.3961 -2.0891
 1070TIP3    H227406   2.853   7.587  19.268 -1.3640 -0.8406 -1.6103
 1071TIP3   OH227407   2.314   7.205  18.611 -0.1380  0.2980 -0.4324
 1071TIP3    H127408   2.284   7.154  18.535  0.6684  0.1106 -0.6288
 1071TIP3    H227409   2.376   7.268  18.575 -0.2487  0.6483 -0.0191
 1072TIP3   OH227410   4.097   2.805  17.387 -0.6168 -0.2640 -0.0204
 1072TIP3    H127411   4.164   2.847  17.441 -0.9845 -0.6740  0.7649
 1072TIP3    H227412   4.137   2.799  17.300 -0.0444  0.4574  0.1865
 1073TIP3   OH227413   2.990   2.040  18.303 -0.1483 -0.0651  0.8782
 1073TIP3    H127414   3.003   1.967  18.364 -1.2206 -0.6906  0.3846
 1073TIP3    H227415   2.895   2.049  18.296 -0.0404  0.4618 -0.1495
 1074TIP3   OH227416   7.206   6.015  18.460  0.1726 -0.5911 -0.7192
 1074TIP3    H127417   7.295   5.983  18.451 -0.5685 -2.4946 -1.7008
 1074TIP3    H227418   7.162   5.950  18.513 -0.9860 -0.4101 -1.4214
 1075TIP3   OH227419   6.667   4.281  17.926  0.2137 -0.8520  0.5918
 1075TIP3    H127420   6.688   4.221  17.997 -1.3002 -1.6082  0.4397
 1075TIP3    H227421   6.672   4.227  17.847  0.0883 -0.4702  0.3190
 1076TIP3   OH227422   6.256   1.358  17.293  0.2003 -0.4189 -0.1695
 1076TIP3    H127423   6.272   1.323  17.381 -1.5997 -2.3708 -0.5383
 1076TIP3    H227424   6.244   1.452  17.306  2.4116 -0.2563  1.2902
 1077TIP3   OH227425   3.828   4.120  19.197 -0.2256 -0.6412 -0.0799
 1077TIP3    H127426   3.918   4.106  19.166 -0.2831  1.2680 -1.2690
 1077TIP3    H227427   3.838   4.171  19.277 -0.2344  0.3785 -0.7070
 1078TIP3   OH227428   1.318   6.031  16.116 -0.4693  0.2182  0.2740
 1078TIP3    H127429   1.311   5.994  16.204  1.3529  0.1971  0.4658
 1078TIP3    H227430   1.337   6.124  16.131 -0.6248  0.3150 -0.1091
 1079TIP3   OH227431   6.178   3.319  19.274  0.7447 -0.0737 -0.3661
 1079TIP3    H127432   6.122   3.241  19.269 -0.0702  0.3055  1.8585
 1079TIP3    H227433   6.254   3.291  19.326  1.3071  0.1685 -1.0382
 1080TIP3   OH227434   1.126   0.381  16.933  0.1215  0.0528  0.3778
 1080TIP3    H127435   1.064   0.389  17.006  1.3889 -0.7016  1.5659
 1080TIP3    H227436   1.075   0.338  16.864 -1.0059  0.4853  0.9115
 1081TIP3   OH227437   2.190   3.706  17.598  0.5740  0.2531  1.3041
 1081TIP3    H127438   2.231   3.759  17.529  0.3257 -1.1994 -0.0158
 1081TIP3    H227439   2.099   3.734  17.598  0.4813 -0.0234  0.7317
 1082TIP3   OH227440   7.498   0.473  19.482  0.8097  0.1300 -0.0165
 1082TIP3    H127441   7.501   0.558  19.527 -0.7846 -1.1671  2.7863
 1082TIP3    H227442   7.436   0.421  19.533 -0.4213 -1.8755 -3.2670
 1083TIP3   OH227443   3.562   2.269  18.323  0.0856 -0.0026  0.3209
 1083TIP3    H127444   3.471   2.294  18.340 -0.2125  0.0437 -1.1892
 1083TIP3    H227445   3.605   2.275  18.409 -1.3767 -0.2644  1.1004
 1084TIP3   OH227446   2.077   2.920  18.365  0.4930  0.1469 -0.3399
 1084TIP3    H127447   2.060   2.836  18.408  1.0268 -0.7453 -1.8223
 1084TIP3    H227448   2.171   2.933  18.374  0.1935  1.5111  1.4474
 1085TIP3   OH227449   3.505   5.760  18.484  0.1845 -0.1428 -0.8730
 1085TIP3    H127450   3.494   5.845  18.527  0.1018 -0.2630 -0.6565
 1085TIP3    H227451   3.588   5.769  18.435 -0.1842  0.3026 -1.4323
 1086TIP3   OH227452   5.573   6.145  17.835  0.5572 -0.1112 -0.1770
 1086TIP3    H127453   5.635   6.073  17.825  0.7259  0.2287 -1.9505
 1086TIP3    H227454   5.488   6.104  17.818  0.4309 -0.2791  0.8065
 1087TIP3   OH227455   5.267   4.479  19.128  0.7989  0.1918 -0.5966
 1087TIP3    H127456   5.225   4.565  19.120 -0.6841 -0.5818 -1.5937
 1087TIP3    H227457   5.358   4.499  19.149  0.0913  1.9658  1.1687
 1088TIP3   OH227458   3.346   3.786  19.285  0.1263  0.2730 -0.2246
 1088TIP3    H127459   3.377   3.754  19.371  0.4233  1.7526  0.2442
 1088TIP3    H227460   3.320   3.707  19.239 -1.0099 -0.4912  1.6091
 1089TIP3   OH227461   5.252   5.665  17.250  0.5847 -0.3435 -0.2317
 1089TIP3    H127462   5.325   5.649  17.310  1.0863  0.6648 -0.5598
 1089TIP3    H227463   5.291   5.713  17.177 -0.3223 -0.1745 -0.6124
 1090TIP3   OH227464   0.317   1.760  17.891  0.0964  0.3347  0.6383
 1090TIP3    H127465   0.252   1.692  17.873  0.8427 -0.8748  2.2470
 1090TIP3    H227466   0.400   1.724  17.858 -0.0803  2.2960 -2.3809
 1091TIP3   OH227467   5.852   6.122  19.260  0.1569  0.0063  0.4531
 1091TIP3    H127468   5.910   6.157  19.327  2.4179 -1.5748 -0.5381
 1091TIP3    H227469   5.809   6.048  19.301  0.4853 -0.1234  0.5644
 1092TIP3   OH227470   6.208   6.641  17.399 -0.6508 -0.2679  0.2812
 1092TIP3    H127471   6.299   6.646  17.428 -0.3741  1.7233 -0.7843
 1092TIP3    H227472   6.206   6.567  17.339  0.1243 -0.6566  0.7155
 1093TIP3   OH227473   2.870   2.575  17.912 -0.2676 -0.1670  0.0096
 1093TIP3    H127474   2.816   2.605  17.839  0.7776 -0.1992 -0.7964
 1093TIP3    H227475   2.825   2.497  17.944 -1.4260  0.5714  0.2462
 1094TIP3   OH227476   1.682   7.391  18.013  0.6147  0.8857  0.5671
 1094TIP3    H127477   1.661   7.459  18.077  1.5080  0.3073  1.5167
 1094TIP3    H227478   1.629   7.316  18.040  0.7932  0.7222  0.4638
 1095TIP3   OH227479   1.761   7.162  18.374 -0.0264  0.3341  0.2539
 1095TIP3    H127480   1.749   7.235  18.434  1.0869  1.6561 -1.0479
 1095TIP3    H227481   1.694   7.175  18.306 -0.6750 -0.6162  0.6992
 1096TIP3   OH227482   3.549   6.811  17.642 -0.2191  0.3208 -0.0831
 1096TIP3    H127483   3.594   6.874  17.585  1.8639 -1.3050 -0.3676
 1096TIP3    H227484   3.559   6.847  17.730 -3.3550  2.7963 -0.5147
 1097TIP3   OH227485   6.544   1.913  17.903  0.1282 -0.6557  0.0177
 1097TIP3    H127486   6.620   1.968  17.886  1.8926 -2.9267  0.0142
 1097TIP3    H227487   6.494   1.960  17.969  0.3888  1.8861 -1.4502
 1098TIP3   OH227488   4.952   1.043  16.343  0.6249  0.7370  0.5448
 1098TIP3    H127489   4.996   1.096  16.277  0.0919  2.8082  1.7789
 1098TIP3    H227490   4.955   1.096  16.422 -0.4328 -0.8683  1.7074
 1099TIP3   OH227491   6.334   0.941  17.953  0.0639 -0.6001 -0.3070
 1099TIP3    H127492   6.359   0.876  18.019 -1.2776 -1.3516 -0.5126
 1099TIP3    H227493   6.301   1.015  18.003  1.7471  0.0334 -0.0631
 1100TIP3   OH227494   6.299   5.936  17.948  0.3322 -0.2645 -0.4764
 1100TIP3    H127495   6.347   5.987  18.014  1.2229  0.5818 -1.7404
 1100TIP3    H227496   6.366   5.882  17.906  0.0632  0.3045 -1.6888
 1101TIP3   OH227497   2.622   6.513  16.319  0.2111  0.0466  0.5334
 1101TIP3    H127498   2.626   6.454  16.243  4.2345 -1.4109  1.5949
 1101TIP3    H227499   2.582   6.460  16.387  1.7065 -0.7687  0.8418
 1102TIP3   OH227500   5.648   6.661  17.271 -0.1039 -0.1617 -0.1480
 1102TIP3    H127501   5.629   6.743  17.224  0.3304  1.0898  1.7333
 1102TIP3    H227502   5.568   6.644  17.321  0.3900  0.0425  0.7254
 1103TIP3   OH227503   3.825   1.409  18.874 -0.5339 -0.0432  0.2433
 1103TIP3    H127504   3.870   1.332  18.908  1.7721  1.7339  1.5738
 1103TIP3    H227505   3.782   1.447  18.951 -0.1913  0.8809  0.0000
 1104TIP3   OH227506   4.818   6.126  17.542 -0.2855  0.6346 -0.7832
 1104TIP3    H127507   4.852   6.042  17.572 -0.0020  1.1254  0.3721
 1104TIP3    H227508   4.850   6.135  17.452  0.3895 -0.1167 -0.6257
 1105TIP3   OH227509   4.294   6.438  19.234  0.4915  0.2426 -0.4002
 1105TIP3    H127510   4.337   6.380  19.171  0.5761  0.3200 -0.4151
 1105TIP3    H227511   4.209   6.459  19.193  0.0165 -0.6928  0.0726
 1106TIP3   OH227512   2.057   6.393  16.084  0.0719  0.2086 -0.0556
 1106TIP3    H127513   2.003   6.315  16.071 -0.5986  0.5974  0.3294
 1106TIP3    H227514   1.999   6.456  16.127  0.7043  0.7991 -0.0389
 1107TIP3   OH227515   6.881   0.876  18.676 -0.5676 -0.2842 -0.1005
 1107TIP3    H127516   6.912   0.962  18.648 -1.8741  1.0014  2.0562
 1107TIP3    H227517   6.952   0.816  18.654  0.2512  1.2560 -1.9639
 1108TIP3   OH227518   7.063   7.621  17.161 -0.1099  0.2281 -0.0672
 1108TIP3    H127519   7.022   7.666  17.087  0.3272 -1.0933 -1.1453
 1108TIP3    H227520   7.150   7.660  17.167  0.7166 -1.2168 -1.7672
 1109TIP3   OH227521   6.920   0.525  18.568  0.2288 -0.2254 -0.5357
 1109TIP3    H127522   6.876   0.505  18.651  0.8877 -1.6681 -0.4953
 1109TIP3    H227523   6.977   0.599  18.589 -1.4957  1.1353 -0.3864
 1110TIP3   OH227524   2.365   3.951  18.703  1.1263 -0.1665  0.6493
 1110TIP3    H127525   2.405   3.937  18.617  0.9407 -0.8327  0.6663
 1110TIP3    H227526   2.337   3.864  18.731 -2.1319  0.4763 -0.2001
 1111TIP3   OH227527   0.904   6.755  19.147 -0.2550 -0.3324  0.1108
 1111TIP3    H127528   0.955   6.699  19.089 -3.8478 -2.0024 -1.6956
 1111TIP3    H227529   0.891   6.702  19.226  1.2838  0.4083  0.9216
 1112TIP3   OH227530   3.989   6.778  17.704 -0.0416 -0.1351  0.2001
 1112TIP3    H127531   4.050   6.803  17.773 -0.8825 -0.4689  1.0962
 1112TIP3    H227532   3.918   6.734  17.750  0.0377 -1.6379 -1.0318
 1113TIP3   OH227533   0.743   6.687  17.229 -0.0849 -0.4078 -0.2490
 1113TIP3    H127534   0.720   6.616  17.169  1.3906 -0.2413 -1.0465
 1113TIP3    H227535   0.783   6.642  17.304 -0.4792 -0.5025 -0.0902
 1114TIP3   OH227536   4.349   0.076  18.363  0.9991 -0.3501 -0.5003
 1114TIP3    H127537   4.403   0.053  18.439  2.0418  0.5143 -0.9482
 1114TIP3    H227538   4.259   0.072  18.395  1.4115 -0.1588  0.7300
 1115TIP3   OH227539   6.492   3.832  18.193 -0.5490 -0.1156  0.1016
 1115TIP3    H127540   6.469   3.774  18.120  0.7234 -0.9785  0.3556
 1115TIP3    H227541   6.542   3.777  18.253  1.3698  1.4149 -0.0034
 1116TIP3   OH227542   6.362   1.418  16.868 -0.2712 -0.0938 -0.3013
 1116TIP3    H127543   6.354   1.506  16.907 -1.2321 -0.7887  1.1644
 1116TIP3    H227544   6.278   1.403  16.824 -0.0892 -0.2637 -0.5951
 1117TIP3   OH227545   5.842   3.101  17.987 -0.0104  0.1262  1.0662
 1117TIP3    H127546   5.844   3.146  18.071  1.6327 -2.0535  2.2965
 1117TIP3    H227547   5.931   3.065  17.977 -0.6515 -1.1039 -0.7904
 1118TIP3   OH227548   6.962   1.948  16.826  0.0022 -0.4537 -0.7759
 1118TIP3    H127549   6.874   1.952  16.864  0.8356 -0.2843  1.2402
 1118TIP3    H227550   7.012   1.894  16.888  1.9107  1.4100 -0.6025
 1119TIP3   OH227551   5.511   6.729  18.126  0.0561 -0.2520  0.1169
 1119TIP3    H127552   5.516   6.634  18.123  0.2993 -0.2722  0.9267
 1119TIP3    H227553   5.450   6.753  18.057 -1.1943 -1.0856  0.9137
 1120TIP3   OH227554   1.748   5.433  18.016 -0.5892  0.2167 -0.0573
 1120TIP3    H127555   1.744   5.479  17.932 -1.2202  0.2601 -0.0130
 1120TIP3    H227556   1.656   5.427  18.043 -0.4366 -0.3213  0.3420
 1121TIP3   OH227557   4.676   4.718  18.757  0.1017 -0.0454  0.4981
 1121TIP3    H127558   4.705   4.809  18.749  2.4616 -0.7411  0.3894
 1121TIP3    H227559   4.730   4.670  18.694  0.1539 -1.7633  1.7670
 1122TIP3   OH227560   0.702   3.609  18.604  0.4427 -0.0705 -0.5375
 1122TIP3    H127561   0.609   3.613  18.623  1.1553  1.1941  3.6721
 1122TIP3    H227562   0.722   3.695  18.567  0.1504  0.0975 -0.3058
 1123TIP3   OH227563   0.299   5.849  17.186 -0.0717  0.0648 -0.4840
 1123TIP3    H127564   0.380   5.797  17.193 -1.4202 -2.1340 -0.2454
 1123TIP3    H227565   0.230   5.788  17.212 -1.7154  2.2467  0.5101
 1124TIP3   OH227566   7.606   3.835  17.900 -0.6146  0.4705  0.2744
 1124TIP3    H127567   7.529   3.783  17.924 -0.6206  0.7295  0.8170
 1124TIP3    H227568   7.585   3.867  17.812 -0.7882 -0.1014  0.1007
 1125TIP3   OH227569   0.385   2.511  17.352  0.4243  0.0743  0.0407
 1125TIP3    H127570   0.441   2.581  17.386  0.7873 -0.6286  0.9395
 1125TIP3    H227571   0.378   2.449  17.425  0.2852 -0.9289 -0.8043
 1126TIP3   OH227572   7.297   3.359  16.780  0.1715 -0.0182 -0.5101
 1126TIP3    H127573   7.220   3.305  16.765  0.6246 -1.1359  0.8755
 1126TIP3    H227574   7.371   3.301  16.761  0.6800 -0.1561  1.5984
 1127TIP3   OH227575   2.362   2.607  19.009  0.0418 -0.0713 -0.3934
 1127TIP3    H127576   2.398   2.600  19.097  1.1374  1.4043 -0.6892
 1127TIP3    H227577   2.268   2.591  19.021 -0.1382  1.8605  1.3515
 1128TIP3   OH227578   4.049   1.010  18.553 -0.1427  0.0891 -0.2199
 1128TIP3    H127579   3.988   1.084  18.542  0.2064  0.3557 -0.4117
 1128TIP3    H227580   4.099   1.009  18.471  1.3591  1.0331  0.6216
 1129TIP3   OH227581   0.506   3.329  17.879  0.1448  0.0028 -0.1241
 1129TIP3    H127582   0.575   3.352  17.941  0.7811 -0.0503 -0.7948
 1129TIP3    H227583   0.426   3.361  17.920  0.1171 -2.5146  2.0463
 1130TIP3   OH227584   5.039   7.387  17.994 -0.1235 -0.4498 -0.0239
 1130TIP3    H127585   5.041   7.325  17.920 -1.9435 -0.3082 -0.2448
 1130TIP3    H227586   5.097   7.458  17.967  0.6154 -1.2332 -0.5423
 1131TIP3   OH227587   7.587   1.231  17.010  0.5143  0.4327  0.1210
 1131TIP3    H127588   7.629   1.223  17.095  1.8021 -0.4467 -0.5734
 1131TIP3    H227589   7.572   1.141  16.981 -0.5228  0.7222 -0.3037
 1132TIP3   OH227590   5.995   7.098  18.354 -0.2520  0.3017  0.1582
 1132TIP3    H127591   6.040   7.051  18.424  1.2738 -0.5412 -1.3269
 1132TIP3    H227592   6.037   7.068  18.273 -2.7490  0.3185 -1.2624
 1133TIP3   OH227593   5.268   7.174  17.619  0.6369 -0.4252 -0.1162
 1133TIP3    H127594   5.349   7.144  17.661  1.5360  0.6817 -0.9859
 1133TIP3    H227595   5.290   7.261  17.585  0.3994 -1.7205 -3.9886
 1134TIP3   OH227596   5.084   4.329  19.248 -0.5445  0.0219  0.2287
 1134TIP3    H127597   5.138   4.390  19.197  0.0757 -2.5480 -2.4887
 1134TIP3    H227598   5.146   4.285  19.306 -0.6780  0.6478  0.8617
 1135TIP3   OH227599   1.213   2.294  17.001  0.1065  0.8854  0.4876
 1135TIP3    H127600   1.298   2.296  17.046  0.6165  0.0836 -0.4171
 1135TIP3    H227601   1.220   2.361  16.933  0.9066 -0.7685 -1.1155
 1136TIP3   OH227602   4.256   1.328  18.722 -0.8063 -0.2977 -0.1625
 1136TIP3    H127603   4.281   1.420  18.706 -0.2628 -0.6585 -1.5343
 1136TIP3    H227604   4.273   1.315  18.815  2.2837  0.0970 -0.5517
 1137TIP3   OH227605   6.965   5.523  16.532  0.1689 -0.6870 -0.5022
 1137TIP3    H127606   7.038   5.476  16.491  1.7946 -0.2183  1.6481
 1137TIP3    H227607   6.981   5.615  16.512 -0.5659 -0.6641 -1.0464
 1138TIP3   OH227608   1.411   5.075  18.156  0.1696 -0.0015  0.4108
 1138TIP3    H127609   1.441   5.114  18.238 -0.9726 -0.4466  1.0676
 1138TIP3    H227610   1.399   5.149  18.097  3.6821  0.1403 -0.3475
 1139TIP3   OH227611   0.902   4.983  18.532 -0.4967  0.6499 -0.1325
 1139TIP3    H127612   0.983   5.024  18.563  0.1726 -0.1949 -0.7228
 1139TIP3    H227613   0.905   4.992  18.437 -1.6497  1.5899 -0.1028
 1140TIP3   OH227614   2.967   6.642  17.392  0.0282 -0.1135 -1.1425
 1140TIP3    H127615   2.890   6.586  17.391 -0.4094  0.4235  0.2597
 1140TIP3    H227616   2.952   6.705  17.322 -0.4686 -0.4572 -1.3491
 1141TIP3   OH227617   1.895   2.116  18.779  0.7812 -0.3848  0.7637
 1141TIP3    H127618   1.919   2.106  18.687 -1.6064 -0.3279  0.0760
 1141TIP3    H227619   1.929   2.202  18.804  1.9125 -0.6283  0.1000
 1142TIP3   OH227620   0.001   0.812  18.304  0.4972 -0.1774  0.2330
 1142TIP3    H127621  -0.008   0.778  18.393  2.5233 -0.9541  0.1836
 1142TIP3    H227622   0.087   0.853  18.303 -0.1078  1.1376 -0.9775
 1143TIP3   OH227623   3.054   6.250  17.952 -0.2206 -0.5599  0.4619
 1143TIP3    H127624   3.003   6.317  17.907 -0.4532 -1.1482 -0.1632
 1143TIP3    H227625   2.989   6.185  17.980  0.0853 -0.8954  0.4004
 1144TIP3   OH227626   0.779   0.458  16.919  0.0517  0.2623 -1.0707
 1144TIP3    H127627   0.784   0.380  16.864  0.3155  0.0123 -0.7031
 1144TIP3    H227628   0.689   0.458  16.952  0.1497 -0.0931 -0.7873
 1145TIP3   OH227629   6.296   4.915  17.329  0.4381 -0.1481 -0.1955
 1145TIP3    H127630   6.236   4.858  17.281  0.0273  0.7910 -0.8407
 1145TIP3    H227631   6.376   4.913  17.277  0.2127  0.3477 -0.5729
 1146TIP3   OH227632   1.665   3.133  18.390  0.2545  0.0266 -0.0230
 1146TIP3    H127633   1.656   3.058  18.448 -0.8915 -1.7955 -2.3694
 1146TIP3    H227634   1.758   3.156  18.396  0.1349  0.1233  2.6426
 1147TIP3   OH227635   7.234   5.889  17.444 -0.0845 -0.5829  0.0827
 1147TIP3    H127636   7.299   5.877  17.514  1.9310  1.2436 -1.3625
 1147TIP3    H227637   7.257   5.822  17.379 -0.6918 -0.9886  0.2828
 1148TIP3   OH227638   0.995   4.635  16.740 -0.1911 -0.2120  0.3366
 1148TIP3    H127639   1.076   4.668  16.702  0.5010 -1.7044  0.4383
 1148TIP3    H227640   1.022   4.560  16.794 -1.6356 -0.8489  0.2351
 1149TIP3   OH227641   7.588   4.673  17.046  0.2752 -0.2905 -0.3696
 1149TIP3    H127642   7.575   4.744  16.983 -1.9928 -2.5371 -2.7261
 1149TIP3    H227643   7.548   4.705  17.127  1.3539  1.8962 -0.6210
 1150TIP3   OH227644   5.233   0.435  18.410 -0.0591  0.1188 -0.2721
 1150TIP3    H127645   5.166   0.497  18.440  0.9964  1.0626  0.1956
 1150TIP3    H227646   5.183   0.363  18.372 -1.3483  0.7183  0.2163
 1151TIP3   OH227647   4.052   1.300  18.518 -0.1848 -0.3649 -0.3947
 1151TIP3    H127648   3.983   1.356  18.554 -1.0830 -1.9685  0.4740
 1151TIP3    H227649   4.115   1.292  18.590  0.8920  1.0084 -1.1498
 1152TIP3   OH227650   4.027   3.047  19.286  0.6218  0.4040  0.5322
 1152TIP3    H127651   3.967   3.019  19.355  0.7764 -0.1709  0.4378
 1152TIP3    H227652   4.068   2.966  19.255  0.5018  0.6443 -0.2799
 1153TIP3   OH227653   4.551   4.927  18.523  0.5402 -0.6335 -1.2408
 1153TIP3    H127654   4.510   4.842  18.540  0.2922 -0.5535 -1.4261
 1153TIP3    H227655   4.628   4.906  18.470  1.7877 -0.9642  0.6423
 1154TIP3   OH227656   3.380   4.295  18.811  0.5450  0.3080 -0.0908
 1154TIP3    H127657   3.442   4.285  18.739  0.0246  0.0923 -0.5212
 1154TIP3    H227658   3.294   4.282  18.770  0.2520 -0.0029  0.6090
 1155TIP3   OH227659   2.261   4.775  18.595  0.1372 -0.1505 -0.0413
 1155TIP3    H127660   2.198   4.756  18.526  0.6556  0.0752 -0.5907
 1155TIP3    H227661   2.341   4.731  18.567  0.0821 -0.9045  0.9252
 1156TIP3   OH227662   2.648   1.710  18.109 -0.0926 -0.4716  0.2466
 1156TIP3    H127663   2.655   1.805  18.115 -1.6308 -0.3723  0.8510
 1156TIP3    H227664   2.626   1.682  18.198 -1.0815 -1.2348 -0.2134
 1157TIP3   OH227665   1.446   4.700  18.873 -0.2254  0.3018 -0.6582
 1157TIP3    H127666   1.382   4.741  18.931  0.9441  0.3051  0.6770
 1157TIP3    H227667   1.431   4.606  18.884  0.9559  0.2407  0.8730
 1158TIP3   OH227668   4.343   3.635  19.580  0.5839  0.3189  0.1929
 1158TIP3    H127669   4.273   3.689  19.616  0.8523  1.2096 -0.5880
 1158TIP3    H227670   4.309   3.545  19.585 -0.4410  0.6945  0.2235
 1159TIP3   OH227671   2.336   2.989  16.862  0.4231 -0.2296  0.7127
 1159TIP3    H127672   2.321   3.059  16.798  1.4670 -0.2965  0.3707
 1159TIP3    H227673   2.350   2.911  16.808 -0.5172 -0.6693  1.0875
 1160TIP3   OH227674   1.605   5.876  18.940 -0.2812 -0.4110  0.3564
 1160TIP3    H127675   1.565   5.877  18.853 -3.3700 -4.3863  1.4274
 1160TIP3    H227676   1.580   5.960  18.978  1.1336  1.4376 -2.4128
 1161TIP3   OH227677   1.358   4.901  16.653 -0.3224  0.2613 -0.5125
 1161TIP3    H127678   1.314   4.950  16.583  1.9726  0.6506 -1.7988
 1161TIP3    H227679   1.352   4.810  16.626  1.4251  0.4815 -1.8577
 1162TIP3   OH227680   1.749   1.781  17.180 -0.1816  0.0354 -0.3199
 1162TIP3    H127681   1.737   1.856  17.239  0.5962  0.6750 -0.9394
 1162TIP3    H227682   1.671   1.781  17.124  0.1335  0.8448 -0.7878
 1163TIP3   OH227683   4.112   0.070  19.038  0.2615 -0.5247 -0.1648
 1163TIP3    H127684   4.184   0.106  18.987  1.2862 -0.7435  1.0890
 1163TIP3    H227685   4.153   0.037  19.118 -1.1879 -0.9328  0.4407
 1164TIP3   OH227686   3.509   3.616  19.484  0.3882 -0.2976  0.2076
 1164TIP3    H127687   3.585   3.576  19.527 -0.9363 -1.4329  1.5786
 1164TIP3    H227688   3.444   3.546  19.481 -1.1604  1.0832  0.4939
 1165TIP3   OH227689   5.653   4.711  17.026 -0.1793  0.1390 -0.3989
 1165TIP3    H127690   5.602   4.631  17.041 -1.1170  0.2925 -2.5448
 1165TIP3    H227691   5.603   4.780  17.070 -0.9547  0.0060 -1.0491
 1166TIP3   OH227692   4.902   0.699  16.819  0.0402 -0.0856 -0.2327
 1166TIP3    H127693   4.874   0.627  16.763  0.2498  0.6763 -1.3383
 1166TIP3    H227694   4.941   0.762  16.760 -0.9529  1.3588  0.5842
 1167TIP3   OH227695   1.133   5.092  18.949  0.1462 -0.0416 -0.8606
 1167TIP3    H127696   1.039   5.093  18.935 -0.1583  0.3295  0.9382
 1167TIP3    H227697   1.149   5.161  19.013  1.5537 -0.4843 -0.6867
 1168TIP3   OH227698   7.207   2.091  18.801 -0.6260 -0.0094 -0.1212
 1168TIP3    H127699   7.267   2.046  18.860  0.8561 -0.5793 -1.9636
 1168TIP3    H227700   7.171   2.163  18.853  2.8825  1.3864  0.6822
 1169TIP3   OH227701   6.014   5.659  17.384  0.0006  0.2682  0.3527
 1169TIP3    H127702   6.025   5.572  17.422 -1.5003  0.3665  1.0830
 1169TIP3    H227703   6.030   5.719  17.457  3.4657  0.7986 -0.6605
 1170TIP3   OH227704   0.956   5.293  17.039 -0.1802  1.1733  0.5595
 1170TIP3    H127705   0.932   5.367  16.984 -0.4476 -0.5964 -1.8457
 1170TIP3    H227706   1.051   5.294  17.041 -0.1843  1.5842  0.5347
 1171TIP3   OH227707   7.650   5.435  17.188 -0.6639 -0.2432  0.5183
 1171TIP3    H127708   7.612   5.394  17.266 -0.5015 -0.6493  0.3838
 1171TIP3    H227709   7.629   5.376  17.116 -1.4449  0.4850  0.1221
 1172TIP3   OH227710   6.821   1.783  17.398 -0.9536 -0.4387 -0.1453
 1172TIP3    H127711   6.798   1.789  17.306 -3.1020 -1.0946  0.2791
 1172TIP3    H227712   6.738   1.796  17.444  0.3352  1.7036  1.7962
 1173TIP3   OH227713   3.368   1.857  16.732  0.2003  0.0495  0.0574
 1173TIP3    H127714   3.394   1.772  16.698  1.0322  0.5416 -0.5721
 1173TIP3    H227715   3.445   1.891  16.777  0.2160  0.9112 -0.5896
 1174TIP3   OH227716   5.272   0.666  17.826 -0.1677  0.7282 -0.0901
 1174TIP3    H127717   5.293   0.759  17.837 -0.6158  0.8585 -0.3051
 1174TIP3    H227718   5.218   0.644  17.902 -0.6829  0.8406 -0.4118
 1175TIP3   OH227719   4.961   7.469  17.199  0.1245  0.0291  0.3766
 1175TIP3    H127720   4.894   7.400  17.199  0.2597 -0.1064  0.1909
 1175TIP3    H227721   4.967   7.495  17.107 -0.2027  0.5645  0.5044
 1176TIP3   OH227722   0.617   3.629  18.336 -0.2182  0.0003 -0.1250
 1176TIP3    H127723   0.638   3.659  18.248  0.5890 -1.2207 -0.3709
 1176TIP3    H227724   0.635   3.704  18.392 -0.3010  0.6458 -0.9425
 1177TIP3   OH227725   5.901   5.052  19.231  0.0389 -0.3419 -0.5118
 1177TIP3    H127726   5.848   5.009  19.164 -2.4464  1.5240  0.0766
 1177TIP3    H227727   5.967   5.101  19.182 -0.4676 -0.6130 -1.4886
 1178TIP3   OH227728   1.350   7.371  18.193  0.0552  0.1392  0.1129
 1178TIP3    H127729   1.366   7.335  18.106 -1.1536  0.9813 -0.4926
 1178TIP3    H227730   1.299   7.304  18.237  0.0711  0.0029 -0.0721
 1179TIP3   OH227731   6.632   5.609  19.193  0.0761 -0.6138  0.7268
 1179TIP3    H127732   6.631   5.698  19.228  0.3386 -0.2176 -0.2409
 1179TIP3    H227733   6.675   5.617  19.107 -0.0090 -1.6479  0.5700
 1180TIP3   OH227734   1.775   3.213  18.103 -0.5441  0.3515 -0.1833
 1180TIP3    H127735   1.757   3.297  18.145 -1.8871 -0.0036  0.0147
 1180TIP3    H227736   1.858   3.184  18.142 -0.1729  1.4782 -0.1064
 1181TIP3   OH227737   3.084   3.936  16.602  0.3857 -0.3226 -0.0099
 1181TIP3    H127738   2.999   3.977  16.618  0.7079  0.3820 -0.0712
 1181TIP3    H227739   3.109   3.901  16.688  0.0893 -0.4308  0.0348
 1182TIP3   OH227740   0.469   0.584  17.936  0.1862  0.0731  0.3991
 1182TIP3    H127741   0.531   0.592  18.009 -2.3945  0.5747  2.7306
 1182TIP3    H227742   0.391   0.546  17.976 -1.2633  0.0541 -2.2394
 1183TIP3   OH227743   2.303   0.899  17.262 -0.0526  0.7880 -0.2661
 1183TIP3    H127744   2.342   0.933  17.181 -0.3340  0.7388 -0.4264
 1183TIP3    H227745   2.264   0.976  17.304  1.5913  1.1270  0.7010
 1184TIP3   OH227746   0.995   1.735  19.157  0.0351 -0.0456 -0.7015
 1184TIP3    H127747   0.965   1.738  19.067 -1.4431  0.8467 -0.2136
 1184TIP3    H227748   1.013   1.826  19.179 -0.3424 -0.1651  0.1321
 1185TIP3   OH227749   1.856   2.449  16.322 -0.5252  0.8637  0.5751
 1185TIP3    H127750   1.863   2.525  16.263 -1.3271  1.0330  0.6851
 1185TIP3    H227751   1.773   2.461  16.366 -0.1772  0.4450  1.3568
 1186TIP3   OH227752   2.750   2.736  18.837 -0.0310  0.1866  0.3257
 1186TIP3    H127753   2.772   2.712  18.747 -2.3448  3.0342 -1.1479
 1186TIP3    H227754   2.801   2.675  18.891  2.5781 -0.6992 -2.8264
 1187TIP3   OH227755   4.821   2.436  18.126 -0.9696  0.3095  0.1930
 1187TIP3    H127756   4.908   2.395  18.124 -0.5152  1.2117  0.9174
 1187TIP3    H227757   4.796   2.442  18.034  0.4014  1.4074 -0.1481
 1188TIP3   OH227758   0.409   2.412  18.153  0.0729 -0.0502 -0.7045
 1188TIP3    H127759   0.478   2.390  18.091  1.5692  0.2804  0.7956
 1188TIP3    H227760   0.422   2.505  18.172 -0.3513 -0.1445  0.0997
 1189TIP3   OH227761   2.812   4.279  19.702 -0.0267 -0.1635  0.0609
 1189TIP3    H127762   2.879   4.216  19.676 -0.9404 -0.5146 -1.5508
 1189TIP3    H227763   2.761   4.234  19.770 -0.6531 -1.1934 -1.0521
 1190TIP3   OH227764   2.299   3.874  18.304  0.8476 -0.0552 -0.0935
 1190TIP3    H127765   2.312   3.898  18.212 -1.8580  1.7834 -0.1288
 1190TIP3    H227766   2.371   3.816  18.325  2.0676  0.2205 -3.1160
 1191TIP3   OH227767   7.032   7.102  19.134 -0.0332  0.5830  0.7605
 1191TIP3    H127768   6.966   7.125  19.199 -2.1274  0.9010 -1.3186
 1191TIP3    H227769   7.032   7.006  19.132 -1.6970  0.5533 -0.2974
 1192TIP3   OH227770   4.407   5.769  19.002 -0.4188 -0.2792 -0.3901
 1192TIP3    H127771   4.359   5.850  18.985  0.3210 -0.0872 -1.7342
 1192TIP3    H227772   4.362   5.703  18.949  0.7357 -0.0965 -1.6668
 1193TIP3   OH227773   3.298   7.413  18.365  0.2942 -1.0948  0.2938
 1193TIP3    H127774   3.239   7.442  18.296 -0.1987  0.7455  1.4027
 1193TIP3    H227775   3.363   7.359  18.321  0.8515  1.1741 -1.8772
 1194TIP3   OH227776   0.206   3.721  19.467  0.6178 -0.1077 -0.3289
 1194TIP3    H127777   0.249   3.644  19.428 -0.3269  0.1536 -1.9882
 1194TIP3    H227778   0.211   3.706  19.562  3.6835 -0.4198 -0.4430
 1195TIP3   OH227779   1.338   0.886  18.882 -0.1469  0.3672 -0.0071
 1195TIP3    H127780   1.301   0.802  18.852 -2.7974  0.7906  1.7655
 1195TIP3    H227781   1.267   0.949  18.870  0.9808  1.8730  0.9174
 1196TIP3   OH227782   4.044   2.836  18.830  0.2370  0.3120  0.5483
 1196TIP3    H127783   4.126   2.805  18.870 -0.5617 -1.1710  1.1199
 1196TIP3    H227784   3.981   2.837  18.903 -0.7752 -0.6305 -0.2855
 1197TIP3   OH227785   5.247   1.934  18.326 -0.6094 -0.3152  0.5306
 1197TIP3    H127786   5.268   2.015  18.373  0.0720  1.7327 -2.9013
 1197TIP3    H227787   5.151   1.932  18.325 -0.6397  0.5581  0.5566
 1198TIP3   OH227788   1.944   0.397  17.132  0.8049  0.6727 -0.4548
 1198TIP3    H127789   1.918   0.312  17.166  1.9624  0.0596 -1.0373
 1198TIP3    H227790   1.863   0.437  17.101 -0.0412  0.5878  1.4926
 1199TIP3   OH227791   0.995   7.486  17.879  0.5034 -0.1446 -0.9684
 1199TIP3    H127792   0.998   7.555  17.813 -0.5453 -0.3372 -1.2359
 1199TIP3    H227793   1.048   7.520  17.951 -0.3189  1.1431 -0.9276
 1200TIP3   OH227794   2.497   5.100  17.114 -0.1804 -0.2135 -0.7747
 1200TIP3    H127795   2.409   5.129  17.090 -0.3176 -1.4375 -1.8309
 1200TIP3    H227796   2.550   5.118  17.036  0.4273  0.1583 -0.2810
 1201TIP3   OH227797   1.978   1.213  19.107 -0.2251  0.1634 -0.1675
 1201TIP3    H127798   2.049   1.278  19.110 -0.9477  1.0120 -0.8127
 1201TIP3    H227799   1.904   1.261  19.071 -0.8453 -0.9810 -0.4549
 1202TIP3   OH227800   6.316   0.899  17.675  0.3010 -0.2965  0.1049
 1202TIP3    H127801   6.347   0.928  17.761  2.1031 -1.2228 -0.1748
 1202TIP3    H227802   6.234   0.946  17.662  0.4577  0.5795  1.9180
 1203TIP3   OH227803   7.334   6.191  19.086 -0.1062 -0.8183 -0.4572
 1203TIP3    H127804   7.248   6.164  19.117 -0.6037 -0.5863 -1.6019
 1203TIP3    H227805   7.318   6.227  18.999  1.0399 -0.0601 -0.3672
 1204TIP3   OH227806   1.579   7.171  19.017 -0.5408 -0.8166 -0.0649
 1204TIP3    H127807   1.641   7.132  18.955  0.9649  1.3995 -0.0907
 1204TIP3    H227808   1.630   7.180  19.098 -1.0137  0.4517  0.1110
 1205TIP3   OH227809   1.507   5.346  18.801 -0.1496  0.5886 -0.2736
 1205TIP3    H127810   1.584   5.396  18.773 -0.3751  1.4271  0.5840
 1205TIP3    H227811   1.538   5.255  18.801  0.6365  0.8418 -0.6311
 1206TIP3   OH227812   1.389   6.831  18.847  0.5086  0.0633 -0.1877
 1206TIP3    H127813   1.446   6.893  18.801 -1.1666  0.6632 -1.5303
 1206TIP3    H227814   1.369   6.874  18.930  1.7141 -0.0149  0.1606
 1207TIP3   OH227815   0.932   6.006  16.504 -0.2945 -0.0853  0.3644
 1207TIP3    H127816   0.881   6.086  16.492 -0.1991 -0.1910 -0.8564
 1207TIP3    H227817   0.899   5.947  16.437  0.5933 -0.5930  0.3619
 1208TIP3   OH227818   0.821   1.238  18.837  0.3333 -0.1786  0.1434
 1208TIP3    H127819   0.881   1.280  18.899 -1.5490  0.1508  1.8548
 1208TIP3    H227820   0.765   1.182  18.891 -2.4534  1.3320 -0.9511
 1209TIP3   OH227821   5.968   7.336  18.165  0.1029 -0.4123  0.3160
 1209TIP3    H127822   5.911   7.360  18.093  2.2348 -0.8517 -1.6488
 1209TIP3    H227823   5.948   7.244  18.182 -0.8928 -0.1157  0.7753
 1210TIP3   OH227824   3.156   4.000  16.331  0.0704 -0.0446 -0.7324
 1210TIP3    H127825   3.145   3.965  16.420  0.8249  0.7816 -0.2898
 1210TIP3    H227826   3.106   4.082  16.331  0.5671  0.2680 -0.8582
 1211TIP3   OH227827   0.280   3.280  18.299 -0.0476 -0.0012 -0.1917
 1211TIP3    H127828   0.335   3.351  18.329  0.1182 -0.0562 -0.3631
 1211TIP3    H227829   0.191   3.309  18.319 -0.0288  0.5594 -0.8782
 1212TIP3   OH227830   2.079   0.540  18.505  0.3486 -0.0540  0.0998
 1212TIP3    H127831   1.993   0.512  18.472 -1.7331  2.5820  2.7090
 1212TIP3    H227832   2.082   0.634  18.488  1.3476  0.4620  2.6804
 1213TIP3   OH227833   6.497   2.985  17.589  0.0523 -0.1885  0.5749
 1213TIP3    H127834   6.534   2.905  17.553  0.4433  0.6579 -1.0225
 1213TIP3    H227835   6.560   3.013  17.655  0.6450 -0.4404  0.1252
 1214TIP3   OH227836   3.365   5.172  18.355  0.1380 -0.2767 -0.2867
 1214TIP3    H127837   3.401   5.253  18.320 -0.9578  0.1373 -0.4919
 1214TIP3    H227838   3.340   5.121  18.278  0.8932 -0.8531 -0.1589
 1215TIP3   OH227839   4.707   7.653  16.653 -0.3484 -0.0120  0.6892
 1215TIP3    H127840   4.764   7.628  16.580 -0.1727  1.9084  0.1198
 1215TIP3    H227841   4.764   7.650  16.729 -0.4268 -1.6131  0.7325
 1216TIP3   OH227842   4.313   4.922  17.055 -0.0513 -0.2598 -0.5444
 1216TIP3    H127843   4.232   4.940  17.007  1.0340 -0.4430 -2.5993
 1216TIP3    H227844   4.370   4.996  17.033 -0.0056  0.5031  1.8559
 1217TIP3   OH227845   0.883   0.986  19.043  0.3482 -0.0592  0.9238
 1217TIP3    H127846   0.794   1.020  19.052  0.5273  0.9898 -0.8411
 1217TIP3    H227847   0.937   1.048  19.092  0.4149  1.0074 -0.4470
 1218TIP3   OH227848   0.676   5.207  17.196 -0.2260  0.0835  0.2298
 1218TIP3    H127849   0.628   5.226  17.116 -0.4431 -0.3724  0.2489
 1218TIP3    H227850   0.756   5.164  17.167 -0.6737 -0.8138  0.2953
 1219TIP3   OH227851   7.404   3.766  18.567  0.6023 -0.1170 -0.0666
 1219TIP3    H127852   7.478   3.824  18.547  0.4249 -0.0523 -0.5489
 1219TIP3    H227853   7.329   3.808  18.524  0.0442  0.4549  1.3999
 1220TIP3   OH227854   4.521   6.315  16.788  0.4953 -0.1704  0.6386
 1220TIP3    H127855   4.590   6.265  16.832 -0.5089 -0.6760  1.6804
 1220TIP3    H227856   4.560   6.401  16.773  1.9957 -0.9864 -0.5022
 1221TIP3   OH227857   3.338   3.281  18.409 -0.0327  0.9554 -0.4644
 1221TIP3    H127858   3.302   3.311  18.325  0.2047  3.1224  0.1628
 1221TIP3    H227859   3.376   3.359  18.448  1.5484 -0.4096  0.8422
 1222TIP3   OH227860   6.552   6.010  18.652  0.0862 -0.3559 -0.3304
 1222TIP3    H127861   6.609   6.036  18.724  0.3356  1.4012 -1.1252
 1222TIP3    H227862   6.586   5.925  18.623 -1.1757 -2.1163  2.7908
 1223TIP3   OH227863   2.360   6.384  19.099  0.2929 -0.9523 -0.0515
 1223TIP3    H127864   2.308   6.462  19.121  0.8971 -0.7529  0.7158
 1223TIP3    H227865   2.367   6.386  19.004 -0.1790 -0.3839 -0.0834
 1224TIP3   OH227866   5.788   6.557  18.172 -0.8473  0.7679 -0.1992
 1224TIP3    H127867   5.746   6.536  18.255  0.2722  1.4046  0.5553
 1224TIP3    H227868   5.879   6.575  18.195  0.0831 -1.3562 -1.8571
 1225TIP3   OH227869   0.305   5.053  17.603 -0.0980  0.0928 -0.4995
 1225TIP3    H127870   0.260   5.032  17.684 -1.6027 -0.4959 -1.4347
 1225TIP3    H227871   0.297   5.148  17.595 -1.0675  0.0198 -0.5531
 1226TIP3   OH227872   2.436   3.275  19.242  0.0311  0.2494 -0.3938
 1226TIP3    H127873   2.351   3.234  19.252  0.3757 -0.3078  0.3306
 1226TIP3    H227874   2.483   3.218  19.181  0.7622 -0.8742  1.1665
 1227TIP3   OH227875   4.469   6.612  18.689 -0.0981 -0.0344  0.0684
 1227TIP3    H127876   4.553   6.643  18.654  0.4387  0.4213  1.6928
 1227TIP3    H227877   4.489   6.527  18.728 -1.3217 -2.0511 -3.2959
 1228TIP3   OH227878   0.082   5.109  17.178 -0.6216 -0.1719  0.0478
 1228TIP3    H127879   0.005   5.163  17.159 -1.5122 -1.7933 -1.1514
 1228TIP3    H227880   0.052   5.019  17.170  1.5365 -0.8777 -1.0348
 1229TIP3   OH227881   5.095   2.324  18.086  0.1086 -0.5732  0.0870
 1229TIP3    H127882   5.186   2.317  18.058  0.9062  1.1745  1.9382
 1229TIP3    H227883   5.044   2.312  18.006  1.8508 -2.9604 -0.7848
 1230TIP3   OH227884   4.328   5.706  17.708 -0.7755  0.6901 -0.4515
 1230TIP3    H127885   4.264   5.762  17.752 -0.8636  0.7989 -0.7142
 1230TIP3    H227886   4.397   5.693  17.772 -0.2341  1.9791 -0.7495
 1231TIP3   OH227887   4.715   0.433  16.402 -0.2044  0.0905 -0.1353
 1231TIP3    H127888   4.685   0.368  16.338  1.1932 -1.2943  0.5622
 1231TIP3    H227889   4.808   0.414  16.413 -0.3566  0.4806  2.0956
 1232TIP3   OH227890   5.488   0.402  17.387  0.4265 -0.0463 -0.0541
 1232TIP3    H127891   5.497   0.357  17.303 -0.5611 -0.2242 -0.0750
 1232TIP3    H227892   5.404   0.373  17.421  1.0397 -0.3711  1.2468
 1233TIP3   OH227893   1.944   5.300  17.106  0.6017  0.0075  0.2828
 1233TIP3    H127894   1.959   5.369  17.171 -1.4098  1.7187 -0.9414
 1233TIP3    H227895   1.849   5.291  17.101  0.6917 -0.3168 -2.1439
 1234TIP3   OH227896   4.540   6.747  17.473  0.0187  0.1463 -0.1831
 1234TIP3    H127897   4.595   6.735  17.551  0.7776  0.8612 -0.6002
 1234TIP3    H227898   4.572   6.681  17.411  0.2925  0.4379 -0.3563
 1235TIP3   OH227899   7.221   0.583  17.446 -0.4246 -0.3783 -0.1992
 1235TIP3    H127900   7.176   0.534  17.514 -0.6730 -0.5749 -0.5085
 1235TIP3    H227901   7.202   0.537  17.365  1.1630 -1.0623 -0.2157
 1236TIP3   OH227902   3.528   5.837  18.136  0.6163 -0.1179  0.2006
 1236TIP3    H127903   3.526   5.932  18.124 -0.0963 -0.1098  0.3458
 1236TIP3    H227904   3.604   5.821  18.192 -0.0086  0.5029  1.2651
 1237TIP3   OH227905   7.021   7.120  18.220 -0.0167  0.1320  0.1952
 1237TIP3    H127906   6.967   7.197  18.207 -0.5207 -0.2044  0.2556
 1237TIP3    H227907   7.108   7.144  18.187 -0.7677 -0.0964 -2.1244
 1238TIP3   OH227908   4.309   0.573  17.753 -0.1508  0.3919 -0.2462
 1238TIP3    H127909   4.314   0.479  17.771  0.4262  0.6891  1.2513
 1238TIP3    H227910   4.262   0.610  17.828 -0.5625  1.2906 -0.9167
 1239TIP3   OH227911   3.133   1.482  19.488  0.7368 -0.4600  0.2908
 1239TIP3    H127912   3.039   1.489  19.474  0.6616 -0.6706  0.6821
 1239TIP3    H227913   3.171   1.552  19.435  0.3854 -0.5934 -0.1437
 1240TIP3   OH227914   1.057   0.721  19.020  0.6044 -0.6036  0.0138
 1240TIP3    H127915   1.037   0.785  18.952  2.3493 -0.9998 -0.9594
 1240TIP3    H227916   1.039   0.766  19.102 -0.6877  0.2079 -0.6822
 1241TIP3   OH227917   2.579   3.505  18.672 -0.2190 -0.3598 -0.2627
 1241TIP3    H127918   2.584   3.461  18.757  0.1474 -1.2630 -0.7364
 1241TIP3    H227919   2.486   3.503  18.650 -0.5476  1.2511  0.7955
 1242TIP3   OH227920   6.244   0.596  18.471  0.6965  0.0960 -0.0672
 1242TIP3    H127921   6.306   0.579  18.542 -1.2866  1.0149  2.0095
 1242TIP3    H227922   6.242   0.515  18.421 -1.9876 -3.0232  4.3388
 1243TIP3   OH227923   3.839   0.805  18.210  0.1703 -0.3202 -0.0499
 1243TIP3    H127924   3.751   0.835  18.189 -0.0509  0.7459  2.1111
 1243TIP3    H227925   3.853   0.729  18.154 -1.5131  0.3979 -1.5410
 1244TIP3   OH227926   4.586   6.364  17.536  0.2604 -0.3751  0.0696
 1244TIP3    H127927   4.598   6.281  17.491  1.0103 -0.0395 -0.3618
 1244TIP3    H227928   4.491   6.372  17.546  0.0900 -0.5617 -1.2427
 1245TIP3   OH227929   5.322   6.130  18.778  0.0703 -0.3443 -0.0082
 1245TIP3    H127930   5.381   6.203  18.759 -0.8095  0.4465  0.2162
 1245TIP3    H227931   5.368   6.079  18.845  1.3690 -0.8808 -1.2464
 1246TIP3   OH227932   0.528   2.593  16.740  0.1580 -0.1014  0.1161
 1246TIP3    H127933   0.597   2.577  16.675 -1.0158 -2.0294 -0.7594
 1246TIP3    H227934   0.448   2.598  16.688 -0.3577  2.9909  1.0107
 1247TIP3   OH227935   2.280   0.177  17.458  0.2588 -0.2934 -0.4284
 1247TIP3    H127936   2.210   0.235  17.430  1.0143  1.0068  0.2814
 1247TIP3    H227937   2.358   0.209  17.412  0.9038 -0.0252  0.7967
 1248TIP3   OH227938   5.850   4.715  18.872 -0.0322  0.5696 -0.1602
 1248TIP3    H127939   5.925   4.775  18.872  1.2912 -0.9792  0.6658
 1248TIP3    H227940   5.888   4.630  18.849 -1.5648 -0.2470  0.1770
 1249TIP3   OH227941   0.515   3.570  18.084  0.7261 -0.2730  0.1090
 1249TIP3    H127942   0.578   3.507  18.118  0.9042 -0.6143 -0.8324
 1249TIP3    H227943   0.441   3.516  18.054  1.0066 -0.0737 -0.9774
 1250TIP3   OH227944   0.940   2.543  18.923  0.1100  0.1530  0.0931
 1250TIP3    H127945   0.987   2.550  18.841  2.0461 -2.5253  0.8154
 1250TIP3    H227946   0.885   2.464  18.913 -2.8758  2.0822 -0.0055
 1251TIP3   OH227947   7.489   6.449  17.079 -0.3182  0.0324 -0.1606
 1251TIP3    H127948   7.513   6.364  17.116 -2.4363 -0.0052  1.3230
 1251TIP3    H227949   7.400   6.465  17.111 -0.3961  2.3282 -1.2881
 1252TIP3   OH227950   3.165   7.052  18.227 -0.1494 -0.1719 -0.0879
 1252TIP3    H127951   3.169   6.969  18.180  0.9714 -0.4729  0.5098
 1252TIP3    H227952   3.136   7.028  18.315  0.2206  0.0618  0.0977
 1253TIP3   OH227953   6.105   2.819  17.962  0.5933  0.1153 -0.0405
 1253TIP3    H127954   6.200   2.816  17.965  0.5700 -0.2410  0.6376
 1253TIP3    H227955   6.078   2.818  18.054 -0.0832 -0.6253 -0.2307
 1254TIP3   OH227956   7.053   5.723  19.316  0.1536 -0.5301  0.7441
 1254TIP3    H127957   7.089   5.788  19.376  0.2247  1.0699 -0.9152
 1254TIP3    H227958   6.958   5.729  19.328 -0.0323  1.7864 -1.1040
 1255TIP3   OH227959   5.301   2.832  17.579  0.4328 -0.4527 -0.9452
 1255TIP3    H127960   5.353   2.790  17.647  0.1193  1.3766  0.4919
 1255TIP3    H227961   5.341   2.918  17.568 -1.2616  0.3715 -0.9880
 1256TIP3   OH227962   4.592   0.817  18.968 -0.2528  0.0831  0.1138
 1256TIP3    H127963   4.634   0.893  18.927 -0.5374  0.5730  0.7143
 1256TIP3    H227964   4.499   0.828  18.948 -0.3233  0.0226  0.4097
 1257TIP3   OH227965   0.412   6.710  19.208  0.7150  0.6490 -0.3011
 1257TIP3    H127966   0.370   6.730  19.124  1.3220  0.4777 -0.6500
 1257TIP3    H227967   0.486   6.654  19.185  0.6168  0.2195  0.3982
 1258TIP3   OH227968   0.857   7.665  17.404  0.6629 -0.1401 -0.1040
 1258TIP3    H127969   0.924   7.610  17.364 -0.2735 -0.2736 -1.5859
 1258TIP3    H227970   0.779   7.608  17.408  0.0300  0.6675 -0.5093
 1259TIP3   OH227971   6.834   6.831  18.807 -0.1693 -0.4093  0.2091
 1259TIP3    H127972   6.832   6.918  18.848  0.9307 -0.2847  0.0307
 1259TIP3    H227973   6.792   6.774  18.871 -0.1835  0.1172  0.6844
 1260TIP3   OH227974   1.910   5.732  19.432  0.5794  0.0249  0.1038
 1260TIP3    H127975   1.945   5.808  19.385  0.1651  2.6368  3.6800
 1260TIP3    H227976   1.987   5.691  19.471  0.8257 -1.6967 -1.9600
 1261TIP3   OH227977   2.711   1.109  17.813  0.3976 -0.3429 -0.1510
 1261TIP3    H127978   2.722   1.199  17.785  1.3286  0.1049  1.5324
 1261TIP3    H227979   2.743   1.107  17.903  2.3080 -2.7718 -0.7594
 1262TIP3   OH227980   4.199   4.625  18.120 -0.5110  0.3374  0.1262
 1262TIP3    H127981   4.176   4.609  18.211  0.5628 -1.4042  0.1284
 1262TIP3    H227982   4.281   4.578  18.107 -0.7954  0.2877 -1.8193
 1263TIP3   OH227983   3.865   3.597  17.742 -0.3376  0.4046  0.1035
 1263TIP3    H127984   3.837   3.508  17.763 -1.8988  1.2778  2.0468
 1263TIP3    H227985   3.859   3.602  17.646 -2.0435 -1.0395  0.0716
 1264TIP3   OH227986   4.713   2.657  17.932 -0.7638  0.1958  0.5104
 1264TIP3    H127987   4.711   2.589  17.863 -1.7588 -0.9739  1.6264
 1264TIP3    H227988   4.626   2.697  17.928 -0.4296  0.9058  0.3398
 1265TIP3   OH227989   4.278   5.147  19.134 -0.0174  0.0173  0.3407
 1265TIP3    H127990   4.299   5.197  19.213  1.4630  0.6259 -0.3947
 1265TIP3    H227991   4.322   5.194  19.063  1.2290 -2.1632 -0.4410
 1266TIP3   OH227992   4.063   0.202  17.622 -0.9879 -0.4493 -0.5817
 1266TIP3    H127993   4.041   0.256  17.698 -0.0128 -2.3617  1.1472
 1266TIP3    H227994   4.133   0.251  17.578 -1.5607  0.6789 -0.2868
 1267TIP3   OH227995   1.668   4.136  19.137 -0.2722 -0.1165  0.0326
 1267TIP3    H127996   1.612   4.170  19.208 -1.0170 -0.5884 -0.3132
 1267TIP3    H227997   1.647   4.192  19.062 -1.3615 -1.1757 -0.4869
 1268TIP3   OH227998   2.678   1.086  18.918 -0.1138  0.2984 -0.0131
 1268TIP3    H127999   2.733   1.046  18.985  0.6158  0.9131 -0.2269
 1268TIP3    H228000   2.602   1.028  18.911  1.4889 -1.7563 -1.2419
 1269TIP3   OH228001   7.585   4.988  17.417 -0.1900 -0.3125 -0.0664
 1269TIP3    H128002   7.516   4.968  17.481  0.0517 -0.4542  0.1516
 1269TIP3    H228003   7.569   5.079  17.392  0.2790  0.0536  0.9075
 1270TIP3   OH228004   6.204   2.594  17.438 -0.5882  0.4117 -0.3203
 1270TIP3    H128005   6.226   2.648  17.515  1.3418  0.4509 -0.8348
 1270TIP3    H228006   6.220   2.652  17.364 -0.9506 -0.1034 -0.8041
 1271TIP3   OH228007   7.591   3.939  18.440 -0.2492 -0.1755  0.0709
 1271TIP3    H128008   7.623   4.020  18.480  0.5274 -0.1747 -0.5237
 1271TIP3    H228009   7.641   3.931  18.359  0.4204 -1.7661  0.5954
 1272TIP3   OH228010   5.940   6.544  19.624  0.1715  0.1588  0.1318
 1272TIP3    H128011   5.920   6.585  19.708  0.4082  2.5160 -0.8664
 1272TIP3    H228012   5.865   6.565  19.569  0.2222 -0.9654 -0.3890
 1273TIP3   OH228013   7.007   4.652  17.230 -0.5212  0.1932  0.1106
 1273TIP3    H128014   7.038   4.621  17.145  0.9495 -3.1563  1.6781
 1273TIP3    H228015   6.938   4.714  17.209  0.5713  0.4015 -3.5078
 1274TIP3   OH228016   2.450   6.457  18.335  0.0030  0.5349  0.4184
 1274TIP3    H128017   2.506   6.425  18.405  0.2510  0.9919  0.4308
 1274TIP3    H228018   2.389   6.517  18.378  0.1885  0.8559  0.2383
 1275TIP3   OH228019   0.603   4.246  17.691 -0.5812 -0.0669  0.5731
 1275TIP3    H128020   0.620   4.158  17.655  0.3988  1.0284 -1.8836
 1275TIP3    H228021   0.678   4.298  17.662 -1.2617  1.6445  1.7927
 1276TIP3   OH228022   3.853   0.171  17.420 -0.1649 -0.0168  0.1496
 1276TIP3    H128023   3.906   0.150  17.496  0.3760  0.7363 -0.0057
 1276TIP3    H228024   3.778   0.220  17.455  0.5176  1.0787  0.1287
 1277TIP3   OH228025   1.006   3.405  19.419 -0.4506 -0.2272  0.0028
 1277TIP3    H128026   1.071   3.433  19.355  1.5028 -0.6083  1.7091
 1277TIP3    H228027   1.009   3.472  19.488 -2.3401  0.0657 -0.1465
 1278TIP3   OH228028   1.556   5.213  17.529 -0.2692 -0.0288 -0.4554
 1278TIP3    H128029   1.612   5.165  17.589 -1.4480  0.9703  1.5512
 1278TIP3    H228030   1.555   5.160  17.449  0.6393 -1.8919  0.7008
 1279TIP3   OH228031   1.033   1.337  17.564  0.3962 -0.0209  0.0729
 1279TIP3    H128032   1.042   1.391  17.486  0.3922 -0.7690 -0.4518
 1279TIP3    H228033   1.065   1.393  17.635 -0.7166  1.0925 -0.2723
 1280TIP3   OH228034   3.261   4.268  18.477 -0.1842  0.1360 -0.3118
 1280TIP3    H128035   3.209   4.266  18.558 -1.0410  2.1447 -0.7347
 1280TIP3    H228036   3.229   4.346  18.432 -0.6433 -1.6049 -3.2025
 1281TIP3   OH228037   3.625   5.029  17.614 -0.0311  0.8013 -0.8356
 1281TIP3    H128038   3.686   5.037  17.688 -0.2428 -0.6352 -0.4694
 1281TIP3    H228039   3.539   5.030  17.655 -0.1222 -1.8665 -0.7933
 1282TIP3   OH228040   6.226   0.757  19.234 -0.0058  0.4460  0.1537
 1282TIP3    H128041   6.277   0.752  19.314 -0.6451 -1.1351  0.5026
 1282TIP3    H228042   6.175   0.837  19.242 -0.9554 -0.2906  1.9055
 1283TIP3   OH228043   5.875   5.492  16.710  0.5317 -0.3255  0.2133
 1283TIP3    H128044   5.826   5.573  16.698  2.0141  0.5853  0.0820
 1283TIP3    H228045   5.941   5.493  16.640  0.5409 -1.6662  0.1817
 1284TIP3   OH228046   3.902   0.418  18.416  0.0810  0.2490  0.3877
 1284TIP3    H128047   3.894   0.371  18.499 -2.6541  0.4004  0.2808
 1284TIP3    H228048   3.953   0.496  18.438  1.7830 -1.0259  1.2779
 1285TIP3   OH228049   4.094   3.411  18.459 -0.0856  0.2586 -0.0275
 1285TIP3    H128050   4.178   3.395  18.501 -0.1109  1.1727  0.3898
 1285TIP3    H228051   4.059   3.323  18.441  0.5433 -0.1323  0.6234
 1286TIP3   OH228052   3.639   4.993  18.708 -0.4041  0.4447  0.3898
 1286TIP3    H128053   3.713   4.948  18.748 -1.0115 -0.0086  1.0531
 1286TIP3    H228054   3.581   5.014  18.782 -0.4665  1.7043  0.0088
 1287TIP3   OH228055   6.068   3.870  17.308  0.2448 -0.2512  0.0932
 1287TIP3    H128056   5.993   3.830  17.265 -0.0868 -0.7718  1.1196
 1287TIP3    H228057   6.133   3.880  17.238 -0.8695  0.5085 -0.8790
 1288TIP3   OH228058   7.238   6.631  18.712 -0.3125  0.0598  0.2842
 1288TIP3    H128059   7.270   6.714  18.747  0.5114 -0.3082  0.4333
 1288TIP3    H228060   7.157   6.654  18.666 -0.4441  0.8376  0.8741
 1289TIP3   OH228061   3.392   7.554  18.599  0.1349  0.1497 -0.1363
 1289TIP3    H128062   3.414   7.499  18.674  1.2974 -0.3982 -0.8373
 1289TIP3    H228063   3.370   7.491  18.530 -2.4057  0.6661  0.1321
 1290TIP3   OH228064   2.474   5.864  17.198 -0.3775  0.3729 -0.2811
 1290TIP3    H128065   2.558   5.910  17.203 -0.4950  0.5866 -0.2299
 1290TIP3    H228066   2.471   5.827  17.110 -0.6034  1.0949 -0.5839
 1291TIP3   OH228067   6.298   1.253  19.089 -0.5554 -0.0855 -0.3204
 1291TIP3    H128068   6.366   1.198  19.129 -0.3253  0.8426  0.6083
 1291TIP3    H228069   6.346   1.331  19.060 -0.9863 -0.0816 -1.0291
 1292TIP3   OH228070   6.804   2.557  18.128  0.6891  0.0309 -0.1712
 1292TIP3    H128071   6.816   2.526  18.218  0.7164  1.4927  0.3648
 1292TIP3    H228072   6.886   2.603  18.108 -0.1083  1.5166 -0.1511
 1293TIP3   OH228073   6.869   1.469  17.650  0.0856 -0.3236  0.0844
 1293TIP3    H128074   6.799   1.425  17.697 -0.0645 -0.4274 -0.2318
 1293TIP3    H228075   6.826   1.513  17.577  0.2924 -0.0146  0.1439
 1294TIP3   OH228076   4.261   6.009  17.243  0.8469 -0.2470  0.2735
 1294TIP3    H128077   4.189   6.063  17.209  1.5969  0.3432 -0.3894
 1294TIP3    H228078   4.332   6.021  17.181  0.6299 -3.0562 -0.6616
 1295TIP3   OH228079   5.310   0.755  18.994  0.2473  0.0150 -0.0443
 1295TIP3    H128080   5.227   0.710  19.010 -0.1428  0.8777  0.4364
 1295TIP3    H228081   5.284   0.846  18.975  1.0066  0.0316 -1.0846
 1296TIP3   OH228082   3.400   4.587  18.271 -0.5640  0.0860 -0.0599
 1296TIP3    H128083   3.319   4.548  18.303  0.0542 -0.0690  1.3788
 1296TIP3    H228084   3.459   4.587  18.346  0.0864  2.1096 -0.4930
 1297TIP3   OH228085   5.636   2.476  16.663 -0.6704  0.1339  0.0580
 1297TIP3    H128086   5.613   2.569  16.662 -0.2249  0.2479 -0.9772
 1297TIP3    H228087   5.681   2.463  16.746 -0.0351  1.0275 -0.1369
 1298TIP3   OH228088   2.338   2.956  18.402 -0.2653  0.0749 -0.5157
 1298TIP3    H128089   2.357   3.036  18.450 -0.4609 -0.3755  0.3336
 1298TIP3    H228090   2.386   2.887  18.449 -1.5616 -0.5936 -0.1091
 1299TIP3   OH228091   2.757   0.686  17.339  0.1647 -0.2329 -0.8106
 1299TIP3    H128092   2.776   0.670  17.247  0.6269  0.1525 -0.7867
 1299TIP3    H228093   2.839   0.721  17.375  0.1105 -0.7504 -0.1652
 1300TIP3   OH228094   4.649   6.720  19.286  0.1770 -0.8378 -0.0647
 1300TIP3    H128095   4.694   6.793  19.328 -1.4652  0.6837 -0.8333
 1300TIP3    H228096   4.652   6.740  19.193 -1.9833 -0.7288 -0.1399
 1301TIP3   OH228097   2.024   4.560  18.108 -0.0601  0.5985  0.0298
 1301TIP3    H128098   1.943   4.547  18.158  0.5026 -1.4165  0.5400
 1301TIP3    H228099   2.083   4.603  18.169 -0.3215  0.8358  0.1170
 1302TIP3   OH228100   2.496   1.549  18.363 -0.5740 -0.6363  0.1803
 1302TIP3    H128101   2.425   1.534  18.425 -0.4456 -0.1498  0.4472
 1302TIP3    H228102   2.574   1.517  18.408 -0.0212  2.1689  1.4280
 1303TIP3   OH228103   3.275   6.760  18.023 -0.1392  0.3451  0.1387
 1303TIP3    H128104   3.292   6.793  17.935 -0.9322 -2.7534 -1.3380
 1303TIP3    H228105   3.357   6.717  18.048 -0.8416 -1.5543 -0.5703
 1304TIP3   OH228106   7.002   7.524  17.924  0.1012  0.2405 -0.6923
 1304TIP3    H128107   6.933   7.570  17.875 -0.0191 -0.2505 -0.9986
 1304TIP3    H228108   6.960   7.443  17.952  0.5421 -0.0414 -0.8443
 1305TIP3   OH228109   1.170   5.386  18.535 -0.3753  0.1057  0.2737
 1305TIP3    H128110   1.173   5.309  18.592  1.7152  0.5609  0.8412
 1305TIP3    H228111   1.193   5.353  18.448 -0.2993 -0.0357  0.3487
 1306TIP3   OH228112   1.887   6.408  17.122  0.5025 -0.1826  0.3183
 1306TIP3    H128113   1.803   6.432  17.160  0.2032 -0.8995  0.1306
 1306TIP3    H228114   1.941   6.383  17.197  0.7501  0.8488  0.4924
 1307TIP3   OH228115   0.843   1.971  18.727 -0.3685  0.1758  0.0560
 1307TIP3    H128116   0.879   2.002  18.810 -0.0805  0.7674 -0.2800
 1307TIP3    H228117   0.920   1.960  18.670 -0.5468 -0.3670 -0.0886
 1308TIP3   OH228118   1.098   1.724  18.669  0.8978 -0.0646 -0.1440
 1308TIP3    H128119   1.137   1.717  18.756  1.5172  1.2569 -0.2861
 1308TIP3    H228120   1.171   1.750  18.612  0.6524 -1.6029 -1.2081
 1309TIP3   OH228121   0.318   5.506  16.810  0.4102 -0.2958 -0.7585
 1309TIP3    H128122   0.309   5.575  16.744  0.4931 -0.7540 -1.2502
 1309TIP3    H228123   0.309   5.424  16.762 -1.9549 -0.6434  0.1544
 1310TIP3   OH228124   2.512   4.743  16.924  0.0299  0.4217  0.3950
 1310TIP3    H128125   2.533   4.797  16.848  0.5134 -1.6578 -1.0322
 1310TIP3    H228126   2.463   4.669  16.888  3.2349 -2.4990  1.4181
 1311TIP3   OH228127   0.950   1.401  17.833 -0.0150 -0.1978  0.1340
 1311TIP3    H128128   0.912   1.330  17.885 -3.2030  0.0566 -1.5843
 1311TIP3    H228129   0.926   1.481  17.880 -0.9007 -0.0790 -0.4904
 1312TIP3   OH228130   5.401   6.202  18.176  0.6188  0.5714 -0.1194
 1312TIP3    H128131   5.404   6.134  18.244 -1.3006  1.3190  0.7737
 1312TIP3    H228132   5.375   6.155  18.097 -2.2720  0.4047  0.8229
 1313TIP3   OH228133   4.844   1.579  19.187 -0.0441 -0.0915 -0.7278
 1313TIP3    H128134   4.882   1.532  19.114 -0.7820 -1.6407 -0.1579
 1313TIP3    H228135   4.909   1.646  19.210  1.2870 -1.1847 -1.2108
 1314TIP3   OH228136   1.666   3.501  17.582  0.4056  0.4060  0.4036
 1314TIP3    H128137   1.609   3.494  17.659  0.8700 -0.0387  0.7143
 1314TIP3    H228138   1.614   3.550  17.518 -0.7620 -0.9822  0.2519
 1315TIP3   OH228139   3.581   2.649  17.743  0.1989 -0.5901 -0.0320
 1315TIP3    H128140   3.588   2.680  17.652 -0.0516 -1.1964 -0.2628
 1315TIP3    H228141   3.487   2.644  17.759  0.2220  0.8122  0.7265
 1316TIP3   OH228142   1.309   4.225  17.149  0.1864  0.2155  0.2470
 1316TIP3    H128143   1.345   4.301  17.103 -0.8233  0.5768  0.0431
 1316TIP3    H228144   1.374   4.156  17.135  0.5449  0.7009 -0.5726
 1317TIP3   OH228145   0.693   6.526  16.984  0.8623 -0.4844  0.1371
 1317TIP3    H128146   0.693   6.525  16.888  0.5721 -1.3898  0.1334
 1317TIP3    H228147   0.601   6.531  17.008  0.9786  0.9839  0.3931
 1318TIP3   OH228148   7.012   3.931  17.697  0.5051  0.3170  0.9571
 1318TIP3    H128149   7.000   3.965  17.608  0.9074 -2.9441 -0.4736
 1318TIP3    H228150   6.934   3.879  17.713 -0.2061  1.9279  3.1593
 1319TIP3   OH228151   0.795   5.790  16.296  0.3718 -0.3255  0.0652
 1319TIP3    H128152   0.791   5.883  16.273 -0.6082 -0.4867 -0.4703
 1319TIP3    H228153   0.718   5.776  16.350  1.7957 -0.3084  2.2364
 1320TIP3   OH228154   4.673   5.885  18.085 -0.1711  0.0310  0.4421
 1320TIP3    H128155   4.742   5.948  18.107  0.9021 -0.3876 -1.4364
 1320TIP3    H228156   4.596   5.939  18.067  0.6184  0.8181 -0.7438
 1321TIP3   OH228157   5.426   3.407  18.303 -0.1705  0.0658  0.0495
 1321TIP3    H128158   5.445   3.475  18.367 -0.7543  1.6358 -1.3876
 1321TIP3    H228159   5.361   3.446  18.244 -0.4517 -1.6983 -0.8891
 1322TIP3   OH228160   0.389   2.066  18.671  0.6850 -0.0291  0.5897
 1322TIP3    H128161   0.440   2.022  18.602 -0.1580 -1.4299  0.8294
 1322TIP3    H228162   0.414   2.158  18.663  0.8413 -0.1893 -1.3940
 1323TIP3   OH228163   0.265   4.700  18.819  0.9084 -0.4038 -0.2437
 1323TIP3    H128164   0.234   4.609  18.824 -0.4954  0.0613 -0.0802
 1323TIP3    H228165   0.284   4.713  18.726  1.5172 -0.9788 -0.2106
 1324TIP3   OH228166   5.006   3.755  17.211 -0.3356 -0.4560 -0.1964
 1324TIP3    H128167   5.029   3.847  17.223 -0.1239 -0.5664  0.2635
 1324TIP3    H228168   5.053   3.729  17.132 -0.7031 -0.0672 -0.5464
 1325TIP3   OH228169   7.006   6.551  16.456 -0.6131 -0.7083  0.6862
 1325TIP3    H128170   7.074   6.526  16.519 -0.0853  0.3522  0.5581
 1325TIP3    H228171   6.930   6.571  16.510 -0.5611 -1.0527  0.8927
 1326TIP3   OH228172   5.481   0.394  18.543 -0.6837  0.1135  0.4205
 1326TIP3    H128173   5.428   0.400  18.464  1.9025  0.6542 -1.3879
 1326TIP3    H228174   5.517   0.482  18.554  2.6267 -0.9996 -0.5516
 1327TIP3   OH228175   3.731   2.377  16.992 -0.1309 -0.0076 -0.3402
 1327TIP3    H128176   3.739   2.466  16.957 -1.2892  0.1932 -0.1240
 1327TIP3    H228177   3.691   2.388  17.078 -1.3041 -0.7963 -0.7498
 1328TIP3   OH228178   5.644   3.623  19.025 -0.0303  0.1325 -0.1743
 1328TIP3    H128179   5.562   3.643  19.070  0.7072  0.6351  1.0026
 1328TIP3    H228180   5.667   3.535  19.056  0.9290  0.8316  1.1631
 1329TIP3   OH228181   4.897   3.957  17.542 -0.1962 -0.1321 -0.5030
 1329TIP3    H128182   4.831   4.025  17.553 -0.6493 -0.7929  1.2774
 1329TIP3    H228183   4.935   3.974  17.456 -0.7799  1.9260 -0.4162
 1330TIP3   OH228184   3.356   1.917  17.122  0.2656  0.0989 -0.6892
 1330TIP3    H128185   3.291   1.848  17.127 -0.1242  0.4760 -0.4821
 1330TIP3    H228186   3.342   1.959  17.037 -0.6544  1.0391 -0.0919
 1331TIP3   OH228187   5.022   3.101  18.399  0.2933  0.4916  0.0991
 1331TIP3    H128188   5.053   3.109  18.309 -0.7802 -0.4027 -0.3734
 1331TIP3    H228189   4.952   3.036  18.395 -1.0977  1.8176  1.2427
 1332TIP3   OH228190   1.170   5.703  16.551  1.1563  0.1864 -0.6855
 1332TIP3    H128191   1.077   5.683  16.546  1.0037 -0.4106  2.4440
 1332TIP3    H228192   1.214   5.620  16.533  0.8345 -0.7128  2.1367
 1333TIP3   OH228193   5.014   0.123  17.825 -0.2111 -0.3176 -0.1831
 1333TIP3    H128194   4.919   0.106  17.824 -0.1143 -1.2675  1.7986
 1333TIP3    H228195   5.053   0.040  17.852  1.1043  0.3943  0.1914
 1334TIP3   OH228196   1.511   7.419  18.393 -0.5493  0.0646 -0.0329
 1334TIP3    H128197   1.446   7.410  18.324 -1.2362  0.9413  0.4837
 1334TIP3    H228198   1.460   7.424  18.474  0.1762  0.3152  0.4257
 1335TIP3   OH228199   7.365   3.512  18.699 -0.2803  0.1035 -0.7613
 1335TIP3    H128200   7.310   3.470  18.633  0.8391 -1.8972 -0.4813
 1335TIP3    H228201   7.392   3.594  18.659 -0.5360 -0.5509 -2.3331
 1336TIP3   OH228202   4.061   6.077  19.001  0.0637  0.0866 -0.0419
 1336TIP3    H128203   4.087   6.063  18.910 -0.3892  2.2243 -0.5585
 1336TIP3    H228204   4.107   6.009  19.050  0.5780 -0.9110 -1.8082
 1337TIP3   OH228205   4.724   1.350  16.905 -0.5192  0.0951 -0.1034
 1337TIP3    H128206   4.668   1.379  16.833 -0.3170 -2.4957 -1.4269
 1337TIP3    H228207   4.809   1.334  16.864  0.0775  0.2273  1.0654
 1338TIP3   OH228208   1.424   3.535  18.590 -0.4008 -0.3555  0.1251
 1338TIP3    H128209   1.333   3.538  18.559 -0.2613  0.0375 -0.2574
 1338TIP3    H228210   1.441   3.442  18.604 -0.8016 -0.4493  0.0204
 1339TIP3   OH228211   2.897   7.341  19.165 -0.8059  0.0902  0.1627
 1339TIP3    H128212   2.889   7.431  19.133 -0.6804 -0.1382 -0.5288
 1339TIP3    H228213   2.835   7.291  19.112 -0.2443 -0.3790 -0.0604
 1340TIP3   OH228214   6.114   1.233  19.295  0.4823  0.1679 -0.4727
 1340TIP3    H128215   6.142   1.257  19.207  0.2850 -2.2145 -1.2469
 1340TIP3    H228216   6.025   1.266  19.302  0.1700 -0.4217 -1.5194
 1341TIP3   OH228217   7.579   2.619  16.524 -0.5262  0.4843 -0.4400
 1341TIP3    H128218   7.545   2.651  16.607 -0.1998 -0.8524  0.2366
 1341TIP3    H228219   7.642   2.685  16.497 -1.9590  1.8529 -0.5788
 1342TIP3   OH228220   3.222   3.610  19.096 -0.2182 -0.3888  0.3224
 1342TIP3    H128221   3.134   3.602  19.133 -0.8665 -2.2417 -1.4292
 1342TIP3    H228222   3.215   3.683  19.034 -0.3352 -0.1304  0.6368
 1343TIP3   OH228223   4.621   6.725  18.990  0.1226  0.4718 -0.3369
 1343TIP3    H128224   4.573   6.650  18.954  0.6120  0.4689 -0.9897
 1343TIP3    H228225   4.712   6.708  18.968  0.3712  0.7032  0.5098
 1344TIP3   OH228226   4.514   1.221  17.804 -0.5048  0.2411 -0.4729
 1344TIP3    H128227   4.465   1.186  17.730 -1.6923  0.4995  0.1628
 1344TIP3    H228228   4.454   1.282  17.846 -0.3308 -0.8024  1.4285
 1345TIP3   OH228229   7.222   7.654  18.769 -0.1563  0.1733  0.0802
 1345TIP3    H128230   7.307   7.684  18.800  1.6376 -1.4839 -2.7218
 1345TIP3    H228231   7.189   7.599  18.840  1.7665 -0.2079  0.7498
 1346TIP3   OH228232   3.005   7.073  18.956 -0.3642  0.3415 -0.2478
 1346TIP3    H128233   3.013   6.996  18.899 -1.1029  0.8490 -1.0657
 1346TIP3    H228234   2.913   7.074  18.982  0.1024 -0.3151  1.6309
 1347TIP3   OH228235   2.824   2.037  17.419 -0.0671 -0.2112 -0.5000
 1347TIP3    H128236   2.912   2.016  17.452 -0.4975 -0.1476  0.7228
 1347TIP3    H228237   2.807   2.126  17.451 -1.8606 -1.3727  2.1378
 1348TIP3   OH228238   0.448   0.754  16.958 -0.2461 -0.0568  0.7407
 1348TIP3    H128239   0.387   0.732  16.888 -1.1942  2.5340  0.6793
 1348TIP3    H228240   0.403   0.820  17.010  2.0379  1.0770  1.3957
 1349TIP3   OH228241   5.510   6.388  18.792  0.2062  0.5602 -0.7037
 1349TIP3    H128242   5.597   6.350  18.805  0.1616  0.2742 -1.2361
 1349TIP3    H228243   5.527   6.481  18.774  0.5410  0.1594 -2.6436
 1350TIP3   OH228244   6.772   2.057  17.799  0.1977  0.1749  0.2264
 1350TIP3    H128245   6.798   2.077  17.889  0.3720  0.7170  0.0583
 1350TIP3    H228246   6.773   2.141  17.755 -0.5533  0.0048 -0.1198
 1351TIP3   OH228247   6.050   3.700  18.210  0.1941  0.2041  0.3170
 1351TIP3    H128248   6.126   3.645  18.231  0.7767  0.8863  0.0510
 1351TIP3    H228249   6.084   3.789  18.213 -0.0038  0.4269 -2.0985
 1352TIP3   OH228250   5.368   5.508  19.269 -0.1938 -0.2375 -0.7685
 1352TIP3    H128251   5.364   5.474  19.180 -0.7897 -0.5155 -0.6408
 1352TIP3    H228252   5.461   5.510  19.290 -0.0863 -0.7939 -1.1653
 1353TIP3   OH228253   0.836   5.078  16.951  0.1815  0.3827 -0.1054
 1353TIP3    H128254   0.798   5.122  16.875 -0.9595  0.1389  0.2936
 1353TIP3    H228255   0.879   5.148  17.000  0.6777  0.5860 -0.8226
 1354TIP3   OH228256   2.819   3.264  18.574  0.7421 -0.0017 -0.4625
 1354TIP3    H128257   2.867   3.346  18.565  1.5745 -0.2812  1.0901
 1354TIP3    H228258   2.732   3.290  18.605  0.9965  0.3130  0.0005
 1355TIP3   OH228259   4.780   4.688  17.375 -0.1069  0.1507  0.0158
 1355TIP3    H128260   4.723   4.760  17.346 -0.3354 -0.1152 -0.1959
 1355TIP3    H228261   4.840   4.674  17.301 -0.4073 -0.2356 -0.1506
 1356TIP3   OH228262   2.658   1.419  18.541  0.7013  0.1842 -0.0812
 1356TIP3    H128263   2.721   1.460  18.601 -0.1017  1.0834  0.1670
 1356TIP3    H228264   2.621   1.346  18.591 -0.3719  1.2644  0.7659
 1357TIP3   OH228265   3.336   2.122  17.888  0.1384  0.3325  0.5374
 1357TIP3    H128266   3.402   2.173  17.842  0.6559  0.2880  1.2091
 1357TIP3    H228267   3.357   2.134  17.981  0.9232 -1.9218  0.7076
 1358TIP3   OH228268   4.615   7.161  18.868  0.3966 -0.0587 -0.5810
 1358TIP3    H128269   4.619   7.075  18.826  0.6830 -0.5788  0.4822
 1358TIP3    H228270   4.524   7.187  18.860 -0.4393 -1.8743  1.7555
 1359TIP3   OH228271   1.119   0.370  17.703  0.3885  0.3049  0.2648
 1359TIP3    H128272   1.052   0.313  17.742  1.2596  0.3055  1.8260
 1359TIP3    H228273   1.081   0.458  17.707 -1.5704 -0.1548 -3.4436
 1360TIP3   OH228274   7.100   7.053  18.838  0.6103  0.4760 -0.0845
 1360TIP3    H128275   7.115   7.040  18.931 -0.3664 -0.9157 -0.1005
 1360TIP3    H228276   7.008   7.076  18.831  1.0300  2.1779 -0.5920
 1361TIP3   OH228277   2.375   1.302  18.461  0.2684  0.0582  0.2379
 1361TIP3    H128278   2.295   1.311  18.408  2.3332  0.9510 -3.0043
 1361TIP3    H228279   2.348   1.328  18.549 -2.8695  0.9163 -0.8276
 1362TIP3   OH228280   6.765   4.562  18.008 -0.3391 -0.0632 -0.0611
 1362TIP3    H128281   6.699   4.501  17.976 -1.1840  1.4403 -1.3226
 1362TIP3    H228282   6.830   4.507  18.051 -1.4239 -1.7644 -0.5108
 1363TIP3   OH228283   3.169   6.401  19.216 -0.1247  0.0037 -0.0182
 1363TIP3    H128284   3.190   6.486  19.256 -1.2229 -0.2390  1.1354
 1363TIP3    H228285   3.219   6.338  19.267  0.2908 -0.0946 -0.5454
 1364TIP3   OH228286   0.006   6.490  18.139  0.5641 -0.2506 -0.2048
 1364TIP3    H128287  -0.027   6.402  18.120  1.0497 -0.5500  0.2869
 1364TIP3    H228288   0.021   6.490  18.233  2.4852 -0.3412 -0.4625
 1365TIP3   OH228289   0.035   5.778  16.453 -0.2656 -0.4192 -0.1680
 1365TIP3    H128290  -0.008   5.722  16.388 -0.8412 -0.1252 -0.0370
 1365TIP3    H228291   0.006   5.866  16.433  0.1580 -0.2343  0.0153
 1366TIP3   OH228292   0.057   2.115  16.953  0.2369  0.0909  0.3968
 1366TIP3    H128293   0.142   2.102  16.913  0.1714  2.8750 -0.8705
 1366TIP3    H228294   0.075   2.117  17.047  1.1514 -1.5482  0.3056
 1367TIP3   OH228295   4.189   0.427  19.415 -0.0090 -0.7642 -0.1942
 1367TIP3    H128296   4.109   0.385  19.385 -1.1337  0.9438  0.2807
 1367TIP3    H228297   4.175   0.440  19.509  0.5991  0.0127 -0.2049
 1368TIP3   OH228298   6.731   2.987  17.708 -0.5303  0.6253 -0.1179
 1368TIP3    H128299   6.751   2.896  17.726  0.3734  1.4135  3.6773
 1368TIP3    H228300   6.816   3.030  17.705 -0.9609  1.4585 -1.4975
 1369TIP3   OH228301   4.705   7.175  17.745 -0.0658  0.5756 -0.1359
 1369TIP3    H128302   4.655   7.095  17.764 -1.0315  1.2696  0.3722
 1369TIP3    H228303   4.767   7.150  17.677  0.0750 -0.7626  0.4550
 1370TIP3   OH228304   5.646   1.579  18.632 -0.1579  0.9201 -0.3338
 1370TIP3    H128305   5.601   1.523  18.696 -0.2895 -0.1408 -1.3178
 1370TIP3    H228306   5.613   1.667  18.650  1.9625  1.1945  2.9275
 1371TIP3   OH228307   7.481   1.454  17.571  0.2561 -0.1351 -0.6822
 1371TIP3    H128308   7.564   1.482  17.611  0.5308 -2.9317  1.0008
 1371TIP3    H228309   7.506   1.416  17.487  0.5659 -0.2664 -0.5306
 1372TIP3   OH228310   4.917   7.608  17.455 -0.1513 -0.0458 -0.7124
 1372TIP3    H128311   4.978   7.566  17.515 -1.7770 -0.3159  0.8034
 1372TIP3    H228312   4.931   7.564  17.371  0.7988 -0.9956 -0.0701
 1373TIP3   OH228313   2.591   3.068  18.698 -0.0523  0.0409 -0.5290
 1373TIP3    H128314   2.649   3.039  18.628 -0.8289  0.2095 -1.2533
 1373TIP3    H228315   2.550   2.988  18.731 -0.8127  0.1059 -1.2903
 1374TIP3   OH228316   4.900   6.903  19.376 -0.2068 -0.3641  0.1439
 1374TIP3    H128317   4.864   6.951  19.450 -0.5595 -0.2896 -0.0757
 1374TIP3    H228318   4.861   6.943  19.299  3.1271  2.2719 -0.4292
 1375TIP3   OH228319   7.137   3.244  17.895 -0.4117  0.2162  0.7815
 1375TIP3    H128320   7.072   3.314  17.885  0.6411  1.2155  0.7224
 1375TIP3    H228321   7.089   3.172  17.936 -1.1512  1.6095  2.5248
 1376TIP3   OH228322   5.014   2.719  17.795 -0.2351 -0.3539 -0.0586
 1376TIP3    H128323   4.924   2.691  17.814 -0.0226 -0.5820  0.6279
 1376TIP3    H228324   5.060   2.713  17.879  0.8336 -1.8184 -0.7002
 1377TIP3   OH228325   7.649   7.037  17.173  0.2147 -0.7703 -0.1714
 1377TIP3    H128326   7.738   7.004  17.164 -0.2060 -1.8342 -0.5948
 1377TIP3    H228327   7.594   6.964  17.145 -0.8904 -1.0483  2.4340
 1378TIP3   OH228328   0.521   3.617  17.653 -0.0059  0.4144 -0.1159
 1378TIP3    H128329   0.499   3.700  17.610  1.1189 -0.2414 -2.0550
 1378TIP3    H228330   0.512   3.551  17.584  1.2020 -0.7837  0.8290
 1379TIP3   OH228331   1.120   0.465  18.944 -0.3654  0.3284 -0.4014
 1379TIP3    H128332   1.035   0.422  18.955 -0.8101  0.8059 -1.8169
 1379TIP3    H228333   1.106   0.554  18.976  0.1605 -0.1079  1.1587
 1380TIP3   OH228334   6.467   2.216  17.689  0.0484  0.2433  0.5562
 1380TIP3    H128335   6.557   2.241  17.707 -0.2564  1.3581  0.6075
 1380TIP3    H228336   6.429   2.292  17.645 -1.2586  0.3699  1.8025
 1381TIP3   OH228337   7.329   6.391  18.258 -0.3996 -0.4780 -0.2915
 1381TIP3    H128338   7.239   6.398  18.226 -0.3800  2.5885  0.0637
 1381TIP3    H228339   7.320   6.355  18.347 -1.1743 -0.9771 -0.5605
 1382TIP3   OH228340   5.955   5.903  18.699 -0.0674  0.0727 -0.3938
 1382TIP3    H128341   6.041   5.922  18.738 -0.5966  1.7242  0.0691
 1382TIP3    H228342   5.971   5.903  18.605  0.4156  0.6290 -0.3209
 1383TIP3   OH228343   6.146   3.718  18.658  0.1072  0.3001  0.0639
 1383TIP3    H128344   6.096   3.704  18.578  0.8482 -2.2118 -0.0416
 1383TIP3    H228345   6.080   3.727  18.727 -0.5189  0.4990 -0.5586
 1384TIP3   OH228346   3.994   5.584  17.198  0.1895 -0.6716  0.2443
 1384TIP3    H128347   4.004   5.662  17.253 -1.6326 -1.9801  2.6041
 1384TIP3    H228348   3.899   5.570  17.194  0.3013 -1.0942 -2.6911
 1385TIP3   OH228349   2.244   7.665  16.943  0.0761 -0.0771  0.2122
 1385TIP3    H128350   2.233   7.579  16.984 -2.3030  0.2736  0.4332
 1385TIP3    H228351   2.220   7.651  16.851 -1.4641  0.5315  0.4893
 1386TIP3   OH228352   2.356   2.439  16.939 -0.0753  0.2835  0.0403
 1386TIP3    H128353   2.382   2.467  17.027 -1.3019  0.4484  0.3637
 1386TIP3    H228354   2.302   2.361  16.954  2.4291 -1.7306 -0.7836
 1387TIP3   OH228355   3.479   3.259  16.737 -0.3103 -0.3229 -0.1551
 1387TIP3    H128356   3.570   3.285  16.719 -0.4137  0.6918  0.6331
 1387TIP3    H228357   3.485   3.168  16.764  0.6507  0.0453  0.9770
 1388TIP3   OH228358   0.744   4.415  18.680 -0.1457 -0.2410 -0.2900
 1388TIP3    H128359   0.834   4.428  18.710 -0.2892  1.1269 -0.3886
 1388TIP3    H228360   0.737   4.472  18.603 -0.9403 -0.7545 -0.6031
 1389TIP3   OH228361   6.947   1.436  18.139 -0.2187 -0.3910  0.2155
 1389TIP3    H128362   7.018   1.372  18.130 -0.3834 -0.6901  0.9872
 1389TIP3    H228363   6.942   1.478  18.053  1.6955  0.4741  0.4541
 1390TIP3   OH228364   1.320   1.105  18.290  0.1025 -0.2926  0.1228
 1390TIP3    H128365   1.338   1.170  18.221 -2.3633 -2.4182 -2.8231
 1390TIP3    H228366   1.396   1.048  18.290 -0.1344 -0.6493 -1.4236
 1391TIP3   OH228367   6.800   3.188  18.994 -0.3506 -0.1668  0.3227
 1391TIP3    H128368   6.734   3.119  19.002  1.2384 -1.8258 -0.2919
 1391TIP3    H228369   6.750   3.270  18.998 -2.7490 -1.3478 -2.4083
 1392TIP3   OH228370   6.105   0.318  18.883  0.0671  0.2079 -0.3002
 1392TIP3    H128371   6.199   0.325  18.900 -0.1038  0.7124  0.4780
 1392TIP3    H228372   6.075   0.248  18.940 -0.0535  0.1197 -0.4709
 1393TIP3   OH228373   2.206   7.451  17.087  0.2277 -0.2870 -0.9216
 1393TIP3    H128374   2.117   7.419  17.072  0.1959 -0.1137 -1.1117
 1393TIP3    H228375   2.244   7.390  17.151 -0.4234  0.3005  0.0518
 1394TIP3   OH228376   2.440   6.886  18.250 -0.1058  0.2367  0.0942
 1394TIP3    H128377   2.440   6.981  18.262  0.1506  0.3668 -0.8821
 1394TIP3    H228378   2.443   6.851  18.339 -0.8474  1.1344  0.4962
 1395TIP3   OH228379   6.120   1.823  17.072  0.2562  0.6682 -0.0065
 1395TIP3    H128380   6.037   1.783  17.096  0.3220 -0.6594 -1.7714
 1395TIP3    H228381   6.182   1.750  17.070  1.2083  1.4567  0.1901
 1396TIP3   OH228382   6.682   1.204  18.243  0.2654  0.4900 -0.2215
 1396TIP3    H128383   6.688   1.291  18.282  0.2319  0.6715 -0.6240
 1396TIP3    H228384   6.643   1.219  18.157 -0.8459 -0.0424  0.1612
 1397TIP3   OH228385   2.353   5.217  18.873 -0.7810  0.4958  0.1049
 1397TIP3    H128386   2.297   5.157  18.923 -0.1822 -1.2833 -1.2703
 1397TIP3    H228387   2.323   5.208  18.783  1.2011  0.0218 -0.5667
 1398TIP3   OH228388   1.477   0.458  18.118 -0.1091 -0.2812  0.4631
 1398TIP3    H128389   1.462   0.365  18.137  1.5617 -0.6936 -0.1288
 1398TIP3    H228390   1.389   0.493  18.102 -0.5891 -2.4506 -2.3493
 1399TIP3   OH228391   7.309   5.862  19.171  0.3789  0.0961 -0.0442
 1399TIP3    H128392   7.294   5.840  19.263 -0.3557 -1.9735 -0.6115
 1399TIP3    H228393   7.395   5.826  19.151  0.5344  0.5353 -0.1787
 1400TIP3   OH228394   7.015   5.243  17.200 -0.0859  0.2903  0.3580
 1400TIP3    H128395   6.924   5.243  17.230 -0.5674 -1.6160 -0.9343
 1400TIP3    H228396   7.010   5.259  17.106  0.6188 -2.4853 -0.2463
 1401TIP3   OH228397   2.163   7.379  17.453 -0.1843 -0.2533  0.3086
 1401TIP3    H128398   2.075   7.360  17.487 -0.7180  1.7171  0.1488
 1401TIP3    H228399   2.197   7.447  17.511 -0.0544  1.2977 -1.4943
 1402TIP3   OH228400   5.780   5.632  18.675  0.1664  0.1064 -0.0075
 1402TIP3    H128401   5.826   5.548  18.677  0.3936  0.1991 -1.0347
 1402TIP3    H228402   5.814   5.679  18.752 -0.1166 -0.8014  0.7015
 1403TIP3   OH228403   4.141   3.108  16.871 -0.2922 -0.0279 -0.1724
 1403TIP3    H128404   4.177   3.196  16.869  0.3119 -0.2057  1.4610
 1403TIP3    H228405   4.215   3.051  16.891 -0.9843 -0.6994  0.5830
 1404TIP3   OH228406   7.677   5.769  17.425 -0.0081  0.3543  0.4933
 1404TIP3    H128407   7.615   5.700  17.444  0.4326  0.1815  1.3275
 1404TIP3    H228408   7.693   5.812  17.509 -0.6704  1.8226 -0.0808
 1405TIP3   OH228409   1.036   3.646  18.470  0.7603 -0.3589 -0.4174
 1405TIP3    H128410   1.009   3.660  18.380 -0.4369 -0.7378 -0.1382
 1405TIP3    H228411   0.991   3.715  18.520 -0.8713 -1.8039  0.2375
 1406TIP3   OH228412   6.089   2.346  17.521  0.0911  0.0455 -0.5297
 1406TIP3    H128413   6.093   2.429  17.475 -4.0932  1.7625  1.7084
 1406TIP3    H228414   6.141   2.360  17.600 -0.5609  0.5114 -0.1836
 1407TIP3   OH228415   6.456   5.597  18.340 -0.0355  0.1455 -0.5719
 1407TIP3    H128416   6.434   5.667  18.279  2.7939  0.4112 -1.4239
 1407TIP3    H228417   6.409   5.521  18.306  0.5012  0.5821 -2.4086
 1408TIP3   OH228418   0.491   1.203  16.945 -0.2670 -0.4285 -0.3267
 1408TIP3    H128419   0.579   1.181  16.977 -0.5361  0.2447  0.9300
 1408TIP3    H228420   0.497   1.191  16.850  1.7580  1.4019 -0.5362
 1409TIP3   OH228421   6.051   3.384  18.405  0.0223 -0.1890 -0.0115
 1409TIP3    H128422   6.111   3.452  18.374 -0.3029  0.3771  0.5763
 1409TIP3    H228423   6.106   3.324  18.455  0.0273  0.5934  0.9384
 1410TIP3   OH228424   2.888   4.760  17.520 -0.1377  0.8325  0.1142
 1410TIP3    H128425   2.796   4.761  17.493 -0.9524 -4.9680  1.2907
 1410TIP3    H228426   2.886   4.769  17.615  0.5989  1.3815  0.0847
 1411TIP3   OH228427   0.413   7.125  17.181  0.8286  0.2455  0.3179
 1411TIP3    H128428   0.397   7.072  17.103  1.0050  0.6193  0.0194
 1411TIP3    H228429   0.417   7.063  17.253 -0.8776  0.0173  0.2539
 1412TIP3   OH228430   1.804   4.443  18.841  0.0995 -0.2829 -0.4083
 1412TIP3    H128431   1.843   4.356  18.846  0.8722 -0.0148 -1.4443
 1412TIP3    H228432   1.785   4.466  18.932 -0.2117 -1.5639 -0.1321
 1413TIP3   OH228433   3.057   3.771  18.648  0.0982 -0.4697 -0.0938
 1413TIP3    H128434   2.976   3.723  18.631  0.9001 -1.3605 -1.5233
 1413TIP3    H228435   3.127   3.709  18.628  1.1612  0.1557  1.4801
 1414TIP3   OH228436   1.080   6.993  17.532 -0.5242 -0.0390 -0.1660
 1414TIP3    H128437   1.030   6.957  17.605 -0.3294 -0.3058 -0.1603
 1414TIP3    H228438   1.018   7.049  17.485 -0.4984  0.5840  0.5273
 1415TIP3   OH228439   3.023   0.730  16.838  0.6664  0.4634 -0.3645
 1415TIP3    H128440   3.064   0.768  16.761 -0.5337  1.0081 -0.7549
 1415TIP3    H228441   3.001   0.805  16.893  0.4928  0.1606 -0.0127
 1416TIP3   OH228442   2.071   5.721  16.804 -0.1384  0.1588 -0.0313
 1416TIP3    H128443   2.110   5.802  16.771 -0.4793 -0.2886 -1.5986
 1416TIP3    H228444   2.133   5.653  16.781  1.1423  0.0998  3.0379
 1417TIP3   OH228445   0.591   7.156  16.812  0.0911  0.1972  0.1653
 1417TIP3    H128446   0.508   7.138  16.855  0.2207 -0.8321  0.0037
 1417TIP3    H228447   0.631   7.070  16.799  1.2741  0.6879  0.4212
 1418TIP3   OH228448   6.077   6.164  18.571  0.7508 -0.8067  0.0214
 1418TIP3    H128449   6.141   6.105  18.532  0.8594 -0.6334 -0.0644
 1418TIP3    H228450   6.099   6.250  18.536  2.3771 -0.1931  2.2631
 1419TIP3   OH228451   6.834   4.699  18.248  0.2074 -0.0236  0.4522
 1419TIP3    H128452   6.766   4.761  18.276 -1.2801 -2.0700  1.5895
 1419TIP3    H228453   6.801   4.664  18.165  0.5957  0.0039  0.2844
 1420TIP3   OH228454   5.821   6.215  18.554 -0.1480  0.0937 -0.2013
 1420TIP3    H128455   5.901   6.163  18.550 -0.4426 -0.4270  0.5162
 1420TIP3    H228456   5.769   6.184  18.480  0.4607  0.7173 -0.9192
 1421TIP3   OH228457   1.188   0.992  17.868  0.2798  0.0854  0.4430
 1421TIP3    H128458   1.185   0.989  17.772  2.7387 -1.1582  0.3318
 1421TIP3    H228459   1.116   0.936  17.896  1.0312 -1.5517 -0.7576
 1422TIP3   OH228460   3.465   3.949  19.050  0.2440 -0.0991 -0.1853
 1422TIP3    H128461   3.414   3.949  19.132  2.3619  0.7860  1.2225
 1422TIP3    H228462   3.412   3.897  18.989 -1.3378 -0.9569  1.7909
 1423TIP3   OH228463   4.990   3.496  17.910  0.5007 -0.5225 -0.4171
 1423TIP3    H128464   4.924   3.460  17.969  1.0850 -1.3241 -0.2364
 1423TIP3    H228465   4.950   3.492  17.823 -0.1157  0.0651 -0.1705
 1424TIP3   OH228466   2.332   3.338  18.954 -0.4522 -0.6101  0.2143
 1424TIP3    H128467   2.359   3.247  18.938 -1.3216 -1.0369  1.0743
 1424TIP3    H228468   2.413   3.389  18.946  0.1122 -1.5022  0.0798
 1425TIP3   OH228469   3.132   3.821  18.283 -0.2270  0.1286 -0.8443
 1425TIP3    H128470   3.037   3.820  18.294 -0.0762 -0.2330  0.6177
 1425TIP3    H228471   3.163   3.884  18.348  0.6087 -0.6712 -0.4383
 1426TIP3   OH228472   4.628   5.880  16.959 -0.3169  0.3951 -0.0787
 1426TIP3    H128473   4.576   5.876  16.878 -1.1345  1.4030  0.3739
 1426TIP3    H228474   4.719   5.879  16.929 -0.5867 -0.7901 -0.9210
 1427TIP3   OH228475   4.780   7.289  18.606  0.4860  0.1275  0.2452
 1427TIP3    H128476   4.692   7.290  18.645 -0.0390 -1.5237 -0.8055
 1427TIP3    H228477   4.840   7.293  18.680 -0.4795 -2.4149  1.2627
 1428TIP3   OH228478   6.257   3.661  17.730  0.7607 -0.0675 -0.6894
 1428TIP3    H128479   6.218   3.588  17.780  1.1583 -0.7117 -1.3029
 1428TIP3    H228480   6.185   3.723  17.720  1.0821  0.9398  2.1924
 1429TIP3   OH228481   4.329   3.153  18.426 -0.0222  0.1555 -0.5933
 1429TIP3    H128482   4.299   3.128  18.513  0.4952  1.0851 -0.1282
 1429TIP3    H228483   4.413   3.109  18.415 -0.2862 -0.3016 -0.8010
 1430TIP3   OH228484   1.637   1.196  18.589 -0.0355 -0.5410 -0.2235
 1430TIP3    H128485   1.668   1.168  18.674 -0.5401  1.7813  0.8000
 1430TIP3    H228486   1.544   1.171  18.587 -0.3790  0.6160  0.5103
 1431TIP3   OH228487   0.397   7.531  18.469  0.2726  0.0525 -0.0921
 1431TIP3    H128488   0.321   7.502  18.519 -0.4530  0.1509 -1.1005
 1431TIP3    H228489   0.462   7.555  18.535 -0.8428  0.6973  0.8007
 1432TIP3   OH228490   3.960   6.323  18.146 -0.1485  0.0756 -0.4828
 1432TIP3    H128491   3.925   6.313  18.235 -0.0287  1.8520 -0.2054
 1432TIP3    H228492   4.052   6.346  18.160  0.4595 -1.8168 -1.1460
 1433TIP3   OH228493   1.899   2.940  19.244  0.7381 -0.6705  0.0937
 1433TIP3    H128494   1.827   2.893  19.202 -0.6361  0.7429  0.7629
 1433TIP3    H228495   1.877   2.940  19.337  0.2866  1.8396  0.0568
 1434TIP3   OH228496   2.161   4.478  19.067 -0.1994 -0.3589 -0.6779
 1434TIP3    H128497   2.198   4.543  19.007 -0.0823 -0.7706 -1.0569
 1434TIP3    H228498   2.073   4.510  19.086  0.0120  0.1324 -0.5266
 1435TIP3   OH228499   6.989   6.386  17.316  0.3623  0.1866 -0.1296
 1435TIP3    H128500   6.950   6.321  17.258 -0.5284 -1.2085  1.9119
 1435TIP3    H228501   6.929   6.461  17.311 -0.1630 -0.2415 -0.3521
 1436TIP3   OH228502   7.024   0.115  16.916 -0.2242  0.0636 -0.2275
 1436TIP3    H128503   6.964   0.089  16.846 -0.8729  1.5635 -0.2809
 1436TIP3    H228504   7.000   0.206  16.935  0.3005 -0.1381  1.5743
 1437TIP3   OH228505   2.818   7.103  18.189  0.5066  0.0885 -0.0767
 1437TIP3    H128506   2.791   7.014  18.165  0.6259  0.1702 -0.5224
 1437TIP3    H228507   2.907   7.094  18.221  0.2041 -0.0816  0.7426
 1438TIP3   OH228508   0.412   0.787  17.450  0.4172 -0.3666 -0.0508
 1438TIP3    H128509   0.340   0.759  17.393 -0.2605  0.7220  0.2346
 1438TIP3    H228510   0.417   0.720  17.518 -1.3224  0.2704  0.7658
 1439TIP3   OH228511   2.605   6.440  19.215  0.0644  0.2399 -0.2643
 1439TIP3    H128512   2.624   6.532  19.232  0.9416 -0.0262  0.2675
 1439TIP3    H228513   2.517   6.440  19.177  0.4696  1.3766 -1.2465
 1440TIP3   OH228514   2.407   5.328  17.641  0.4111 -0.1519 -0.0063
 1440TIP3    H128515   2.344   5.255  17.640  1.8050 -1.4052  0.7976
 1440TIP3    H228516   2.371   5.389  17.705  0.8201 -1.6388  1.7138
 1441TIP3   OH228517   1.547   4.417  18.576  0.0345 -0.4454 -0.0528
 1441TIP3    H128518   1.566   4.426  18.669 -0.0600  0.5311 -0.1123
 1441TIP3    H228519   1.591   4.493  18.536 -0.7270 -0.3262 -0.6790
 1442TIP3   OH228520   3.857   4.563  18.818  0.2419  0.8066 -0.1391
 1442TIP3    H128521   3.914   4.507  18.871 -0.8130  0.8769  1.1334
 1442TIP3    H228522   3.788   4.505  18.786  0.0199  1.0631 -0.1337
 1443TIP3   OH228523   2.956   1.673  17.484  0.0805 -0.2140  0.6035
 1443TIP3    H128524   2.943   1.668  17.389  0.7638 -0.4143  0.5138
 1443TIP3    H228525   2.953   1.582  17.513  0.2946 -0.1878  0.7112
 1444TIP3   OH228526   4.070   0.662  17.957  0.4964  0.2197  0.6605
 1444TIP3    H128527   4.028   0.730  17.904 -1.7606 -0.9885  0.7796
 1444TIP3    H228528   4.116   0.711  18.025  0.4338  1.6767 -0.2770
 1445TIP3   OH228529   3.187   4.584  19.220  0.2209  0.1095 -0.5049
 1445TIP3    H128530   3.099   4.573  19.184 -0.5894  1.2695  1.0054
 1445TIP3    H228531   3.212   4.496  19.248 -0.7203 -0.1323 -0.3850
 1446TIP3   OH228532   1.848   4.459  17.909  0.1576 -0.5490  0.0988
 1446TIP3    H128533   1.912   4.418  17.851  1.0306  3.2557 -1.9312
 1446TIP3    H228534   1.899   4.489  17.984  0.1113 -0.4064  0.0725
 1447TIP3   OH228535   6.935   4.572  17.761 -0.4350 -0.1424 -0.1592
 1447TIP3    H128536   7.029   4.559  17.777 -0.3699 -0.4259 -0.7422
 1447TIP3    H228537   6.896   4.576  17.849 -0.2312 -2.7564  0.1473
 1448TIP3   OH228538   2.054   3.973  17.739 -0.4907 -0.1114 -0.1251
 1448TIP3    H128539   2.015   3.906  17.683  0.1188  0.5145 -1.3432
 1448TIP3    H228540   2.045   3.938  17.828 -0.9946 -1.3814 -0.6471
 1449TIP3   OH228541   7.315   4.967  16.973 -0.7550  0.3987  0.0886
 1449TIP3    H128542   7.337   5.055  16.942 -1.2945  0.1457 -1.0412
 1449TIP3    H228543   7.389   4.913  16.948 -2.0045 -0.2021 -2.6098
 1450TIP3   OH228544   1.876   5.340  18.566 -0.4729 -0.3729 -0.5379
 1450TIP3    H128545   1.824   5.408  18.608 -1.5252 -0.6860 -1.2948
 1450TIP3    H228546   1.852   5.345  18.473  0.5567 -0.7907 -0.8430
 1451TIP3   OH228547   0.150   7.471  18.567  0.3117 -0.2590  0.0333
 1451TIP3    H128548   0.109   7.395  18.526  0.3904  0.4377 -1.3737
 1451TIP3    H228549   0.080   7.536  18.571  0.3243 -0.2880  0.9695
 1452TIP3   OH228550   2.952   6.021  18.679  0.0020 -0.3642  0.3485
 1452TIP3    H128551   2.920   6.036  18.769  2.1717 -1.5676  1.3923
 1452TIP3    H228552   2.922   5.933  18.657 -2.4051  0.6945 -1.0670
 1453TIP3   OH228553   3.407   1.830  18.469 -0.0997 -0.3523 -0.2743
 1453TIP3    H128554   3.359   1.841  18.387  1.8881 -0.3563 -1.5002
 1453TIP3    H228555   3.391   1.912  18.517 -0.8955 -0.1433 -0.8671
 1454TIP3   OH228556   1.912   3.719  18.362  0.0012  1.0008 -0.7585
 1454TIP3    H128557   1.866   3.635  18.359 -1.4867  1.7488 -0.1791
 1454TIP3    H228558   1.844   3.782  18.387  1.6164  1.9978  1.4337
 1455TIP3   OH228559   0.510   2.010  17.635 -0.3044  0.0353  0.3414
 1455TIP3    H128560   0.528   2.041  17.546 -0.9286  0.0023  0.2063
 1455TIP3    H228561   0.468   1.925  17.624 -0.1488 -0.0887  0.6764
 1456TIP3   OH228562   4.609   6.890  18.768  0.7536  0.6824 -0.2285
 1456TIP3    H128563   4.616   6.857  18.857  0.6171  2.6494  0.5576
 1456TIP3    H228564   4.667   6.833  18.717 -1.0169 -2.0425  0.5891
 1457TIP3   OH228565   7.446   1.766  18.784  0.8293 -0.5232 -0.2239
 1457TIP3    H128566   7.468   1.847  18.738  0.4984 -1.3835 -1.9922
 1457TIP3    H228567   7.520   1.707  18.765  0.2404 -1.2011 -0.4621
 1458TIP3   OH228568   2.967   4.355  18.312  0.3925 -0.1781 -0.4692
 1458TIP3    H128569   2.937   4.292  18.377  0.5962 -0.7254 -0.8992
 1458TIP3    H228570   3.047   4.392  18.350 -0.8004  1.3323  0.7091
 1459TIP3   OH228571   6.609   5.427  17.744 -0.0142  0.3893  0.2288
 1459TIP3    H128572   6.675   5.496  17.749  2.9016 -2.1676  0.0121
 1459TIP3    H228573   6.562   5.445  17.663  3.7073 -0.2444 -2.3054
 1460TIP3   OH228574   5.064   0.294  19.179  0.2524  0.2097 -0.4328
 1460TIP3    H128575   5.023   0.254  19.103  1.0257  1.7112 -1.7011
 1460TIP3    H228576   4.999   0.357  19.211  0.5414  0.7245 -0.8462
 1461TIP3   OH228577   6.352   2.378  18.388 -0.1646  0.5241  0.5966
 1461TIP3    H128578   6.276   2.358  18.334  0.5122  0.5454 -0.3859
 1461TIP3    H228579   6.316   2.425  18.464 -1.2274 -0.3351  0.6407
 1462TIP3   OH228580   2.193   5.827  18.164  0.3381 -0.0351  0.8338
 1462TIP3    H128581   2.172   5.747  18.116  1.1116  0.5785 -0.5917
 1462TIP3    H228582   2.220   5.797  18.251 -0.1197 -1.2597  0.5661
 1463TIP3   OH228583   4.025   0.891  17.813 -0.8847 -0.4225 -0.4801
 1463TIP3    H128584   3.942   0.923  17.849 -0.1531  1.7682 -0.6173
 1463TIP3    H228585   4.029   0.928  17.724 -0.0400 -1.0075 -0.7013
 1464TIP3   OH228586   6.789   4.217  18.450 -0.4597  0.3039  0.2610
 1464TIP3    H128587   6.770   4.167  18.529  0.9923 -1.4359 -0.3999
 1464TIP3    H228588   6.868   4.266  18.471 -0.6586  0.6484  0.2146
 1465TIP3   OH228589   3.485   5.544  18.118  0.7037  0.0029  0.1477
 1465TIP3    H128590   3.493   5.638  18.136  0.4203  0.1551 -0.4950
 1465TIP3    H228591   3.492   5.502  18.204 -2.2657  0.8037  0.9220
 1466TIP3   OH228592   1.154   7.016  17.930  0.4889 -0.4753 -0.1983
 1466TIP3    H128593   1.130   7.104  17.903 -3.8076 -1.3437  0.1269
 1466TIP3    H228594   1.162   6.967  17.848  1.2021 -0.2090 -0.2998
 1467TIP3   OH228595   4.663   5.699  19.415  0.1980  0.3427 -0.5229
 1467TIP3    H128596   4.614   5.689  19.333  0.1649 -1.7392 -0.3042
 1467TIP3    H228597   4.684   5.609  19.441  2.1719  1.0837  0.5903
 1468TIP3   OH228598   5.730   6.537  19.434 -0.0403 -0.0688 -0.1473
 1468TIP3    H128599   5.726   6.459  19.379  0.6494 -1.1306  1.2573
 1468TIP3    H228600   5.639   6.552  19.461 -0.3125  0.1820 -1.1564
 1469TIP3   OH228601   0.543   4.282  18.435  0.2541  0.1095  0.5621
 1469TIP3    H128602   0.501   4.284  18.349 -0.3400 -1.3851  0.7810
 1469TIP3    H228603   0.495   4.346  18.487 -1.1477 -0.8844  0.5275
 1470TIP3   OH228604   6.227   3.962  18.925  0.1514  0.1143  0.7669
 1470TIP3    H128605   6.136   3.987  18.942 -0.8637 -1.8681 -1.2765
 1470TIP3    H228606   6.253   4.015  18.850  0.8091  0.8799  1.5212
 1471TIP3   OH228607   3.140   2.333  17.891 -0.1225  0.2056 -0.0586
 1471TIP3    H128608   3.074   2.295  17.949 -0.6317  1.2057  0.0549
 1471TIP3    H228609   3.198   2.260  17.868 -0.9427 -0.5774  0.2920
 1472TIP3   OH228610   0.171   3.970  18.891 -0.0545  0.0660 -0.3757
 1472TIP3    H128611   0.253   3.924  18.870  0.3209  0.8104 -0.6028
 1472TIP3    H228612   0.164   3.964  18.986  0.9323  1.0688 -0.2206
 1473TIP3   OH228613   6.917   6.608  18.524  0.0491 -0.0476 -0.1453
 1473TIP3    H128614   6.920   6.525  18.477 -0.1576 -0.1909  0.0973
 1473TIP3    H228615   6.922   6.674  18.455  0.0969 -0.2588 -0.3459
 1474TIP3   OH228616   7.329   1.168  17.996 -0.5268 -0.4906  0.2578
 1474TIP3    H128617   7.403   1.118  18.032  0.0847  0.3789  0.2399
 1474TIP3    H228618   7.363   1.257  17.986 -0.7194 -0.6395 -2.3184
 1475TIP3   OH228619   0.717   4.069  18.134 -0.7245 -0.4408  0.4983
 1475TIP3    H128620   0.645   4.050  18.074  0.9541 -0.5794 -1.5750
 1475TIP3    H228621   0.712   3.999  18.199 -1.4066 -1.4772 -0.6188
 1476TIP3   OH228622   1.369   4.874  17.681  0.1046 -0.2552  0.7760
 1476TIP3    H128623   1.329   4.958  17.701 -1.3071 -0.8173  0.4589
 1476TIP3    H228624   1.346   4.858  17.589  1.1216 -0.5728  0.5665
 1477TIP3   OH228625   5.693   7.092  18.643 -0.3118  0.7188  0.3702
 1477TIP3    H128626   5.742   7.011  18.655  0.4133  1.0389 -0.2699
 1477TIP3    H228627   5.720   7.148  18.716 -1.3189  0.1723  1.1931
 1478TIP3   OH228628   3.576   6.502  17.836  0.2512  0.2834  1.1076
 1478TIP3    H128629   3.493   6.465  17.867 -2.2482  2.8280 -1.7987
 1478TIP3    H228630   3.591   6.578  17.893 -0.5287  0.9249  0.4847
 1479TIP3   OH228631   3.898   5.360  17.922 -0.6085 -0.5067  0.3948
 1479TIP3    H128632   3.987   5.387  17.946 -0.9782  1.1665 -0.0425
 1479TIP3    H228633   3.846   5.376  18.001 -0.8136 -0.0109  0.1620
 1480TIP3   OH228634   2.869   5.981  19.277 -0.1758  0.2558 -0.0549
 1480TIP3    H128635   2.852   5.911  19.341 -0.0007 -0.2909 -0.5888
 1480TIP3    H228636   2.794   6.039  19.285 -0.8059 -0.5029 -0.2471
 1481TIP3   OH228637   1.191   6.467  18.555 -0.0346 -0.4490 -0.2589
 1481TIP3    H128638   1.155   6.546  18.517 -1.2241  0.7415  2.9656
 1481TIP3    H228639   1.279   6.491  18.582 -1.1426  0.7552  2.8217
 1482TIP3   OH228640   2.060   2.716  17.426 -0.6258 -0.4099  0.7562
 1482TIP3    H128641   1.995   2.645  17.428 -0.8801 -0.1578  1.6820
 1482TIP3    H228642   2.082   2.724  17.333 -0.7970 -1.5161  0.5941
 1483TIP3   OH228643   0.986   4.682  17.259  0.0562 -0.3527  0.2351
 1483TIP3    H128644   1.073   4.683  17.218  0.1822  0.6590  0.5021
 1483TIP3    H228645   0.964   4.589  17.266  0.7806 -0.5937 -0.5416
 1484TIP3   OH228646   7.318   1.664  17.832 -0.2606 -0.0350 -0.0777
 1484TIP3    H128647   7.316   1.570  17.848 -0.6826 -0.0118  0.0225
 1484TIP3    H228648   7.261   1.701  17.899  0.3491  0.3477  0.2398
 1485TIP3   OH228649   6.203   7.488  19.343 -0.3962  0.0842 -0.1619
 1485TIP3    H128650   6.163   7.402  19.360  0.0517  0.1516  1.3843
 1485TIP3    H228651   6.130   7.550  19.350 -0.4527 -0.0253  0.2284
 1486TIP3   OH228652   7.014   7.627  18.202  0.2241 -0.7109  0.5762
 1486TIP3    H128653   6.920   7.645  18.197  0.2101 -1.0441 -0.8106
 1486TIP3    H228654   7.046   7.639  18.113  1.4391 -0.9936  0.9441
 1487TIP3   OH228655   2.745   3.395  17.507  0.5241  0.4075  0.2982
 1487TIP3    H128656   2.679   3.454  17.471 -0.9127 -0.7882  0.8677
 1487TIP3    H228657   2.744   3.412  17.601  0.4016 -0.2184  0.4146
 1488TIP3   OH228658   0.450   3.466  18.921 -0.8010  0.8617 -0.1827
 1488TIP3    H128659   0.365   3.450  18.881 -1.1949 -0.2650  1.0059
 1488TIP3    H228660   0.505   3.394  18.890 -0.6347  0.9118 -0.0079
 1489TIP3   OH228661   4.322   2.796  18.892  0.0127  0.3106  0.1145
 1489TIP3    H128662   4.389   2.861  18.873  2.3724 -1.7144  0.9216
 1489TIP3    H228663   4.369   2.712  18.889 -2.6222 -1.2776  0.2009
 1490TIP3   OH228664   7.557   4.383  19.028  0.0098 -0.0134 -0.4637
 1490TIP3    H128665   7.625   4.424  19.082  0.1531  0.6609 -1.1376
 1490TIP3    H228666   7.566   4.424  18.942 -0.9237 -0.2769 -0.7066
 1491TIP3   OH228667   2.920   0.875  18.267  0.0274 -0.8240 -0.5522
 1491TIP3    H128668   2.877   0.954  18.300  0.2241 -0.3562 -1.3968
 1491TIP3    H228669   2.864   0.804  18.296 -1.5713 -0.2106 -1.9443
 1492TIP3   OH228670   4.251   6.749  16.675 -0.3357  0.8008  0.7095
 1492TIP3    H128671   4.230   6.763  16.767  0.6826  1.0910  0.9102
 1492TIP3    H228672   4.254   6.837  16.638 -0.8231  0.6793  0.3752
 1493TIP3   OH228673   6.940   3.711  18.561 -0.1667 -0.3958  0.7398
 1493TIP3    H128674   6.852   3.702  18.596  0.3972 -1.5725  1.9894
 1493TIP3    H228675   6.977   3.786  18.607 -0.4021 -0.1065  0.4606
 1494TIP3   OH228676   2.735   2.859  17.224  0.9733  0.8759  0.5119
 1494TIP3    H128677   2.662   2.798  17.227 -0.9255  2.9715 -0.3351
 1494TIP3    H228678   2.811   2.805  17.205 -0.5415 -1.2522  0.2136
 1495TIP3   OH228679   2.621   6.655  17.167  0.2475 -0.2949  0.8490
 1495TIP3    H128680   2.529   6.634  17.156  0.1483  0.0851  0.9398
 1495TIP3    H228681   2.658   6.652  17.079 -0.2779  1.5341  0.5361
 1496TIP3   OH228682   7.094   7.514  16.808  0.1084 -0.1136 -0.1006
 1496TIP3    H128683   7.011   7.503  16.762 -0.6391  0.0932  1.1697
 1496TIP3    H228684   7.094   7.605  16.838 -0.4168 -0.7764  2.1199
 1497TIP3   OH228685   0.242   3.765  18.652 -0.1668  0.2242  0.1701
 1497TIP3    H128686   0.214   3.850  18.618 -0.4762  0.8780  1.9691
 1497TIP3    H228687   0.168   3.707  18.635 -0.9783  0.9379  1.1529
 1498TIP3   OH228688   0.665   3.534  19.101 -0.3895 -0.5602  0.2715
 1498TIP3    H128689   0.728   3.575  19.042  0.3894 -2.3810 -0.2398
 1498TIP3    H228690   0.590   3.513  19.045 -1.9719  2.3865  1.0410
 1499TIP3   OH228691   5.638   1.894  17.571  0.2743  0.1920  0.5319
 1499TIP3    H128692   5.638   1.824  17.635 -0.9666  0.5597  0.9764
 1499TIP3    H228693   5.545   1.913  17.555  0.4721 -0.6198 -2.2105
 1500TIP3   OH228694   3.746   2.192  16.794 -0.2798  0.3966 -0.2948
 1500TIP3    H128695   3.834   2.152  16.791  0.2969  1.5095  0.8823
 1500TIP3    H228696   3.750   2.253  16.867 -2.1889  0.1868  0.0298
 1501TIP3   OH228697   1.564   7.200  16.993 -0.2400  0.1130 -0.3854
 1501TIP3    H128698   1.508   7.240  16.927 -0.1705 -0.1801 -0.6256
 1501TIP3    H228699   1.509   7.133  17.034  0.2392 -0.8733 -1.3185
 1502TIP3   OH228700   3.641   3.030  17.717 -0.3024  0.1881  0.3917
 1502TIP3    H128701   3.625   2.987  17.801 -0.1817  0.1533  0.3970
 1502TIP3    H228702   3.735   3.017  17.702 -0.4141 -0.2345  0.0175
 1503TIP3   OH228703   1.603   3.602  17.096  0.2545 -0.7682  0.0451
 1503TIP3    H128704   1.658   3.544  17.149 -2.4999 -3.0643  0.6027
 1503TIP3    H228705   1.540   3.544  17.055 -1.1270  1.6139 -1.4087
 1504TIP3   OH228706   4.503   4.224  17.864  0.5350 -0.2129 -0.2269
 1504TIP3    H128707   4.479   4.144  17.817 -1.1925  0.4922 -0.5977
 1504TIP3    H228708   4.451   4.293  17.824  0.9033  0.8656  1.0532
 1505TIP3   OH228709   2.066   4.289  16.380  0.0728 -0.1903 -0.0845
 1505TIP3    H128710   2.057   4.199  16.413 -0.8452 -0.3723 -0.7790
 1505TIP3    H228711   2.030   4.343  16.450  0.7777 -0.3352  0.4074
 1506TIP3   OH228712   5.650   0.794  17.900 -0.3934  0.1185 -0.4266
 1506TIP3    H128713   5.712   0.811  17.971 -2.0974 -1.3443  1.5344
 1506TIP3    H228714   5.584   0.863  17.908 -1.2969 -0.8082  0.3063
 1507TIP3   OH228715   6.471   4.439  17.178 -0.0359  0.2956  0.1632
 1507TIP3    H128716   6.566   4.453  17.184  0.3914 -1.9172 -0.5534
 1507TIP3    H228717   6.443   4.434  17.269  0.5386  0.8634  0.3859
 1508TIP3   OH228718   4.823   3.911  19.505 -0.8405  0.7138 -0.0680
 1508TIP3    H128719   4.767   3.835  19.524 -1.1434  0.7699 -0.6918
 1508TIP3    H228720   4.783   3.983  19.554 -0.2663  0.3736  0.9194
 1509TIP3   OH228721   2.399   0.990  18.446 -0.1285 -0.2472  0.0663
 1509TIP3    H128722   2.369   1.081  18.456  1.0507  0.4737 -2.2431
 1509TIP3    H228723   2.339   0.951  18.382  0.8029 -0.3037 -0.8091
 1510TIP3   OH228724   2.233   5.719  17.258  0.4275 -0.3957  0.2513
 1510TIP3    H128725   2.317   5.759  17.235  1.1577 -2.6020 -1.2664
 1510TIP3    H228726   2.256   5.641  17.308 -0.6440 -1.3543 -0.6849
 1511TIP3   OH228727   5.714   2.279  18.398  0.4728 -0.3005  0.4020
 1511TIP3    H128728   5.698   2.312  18.486 -0.1045  1.8740 -0.4525
 1511TIP3    H228729   5.809   2.268  18.394  0.7439  1.6045  0.6744
 1512TIP3   OH228730   5.615   5.458  18.897 -0.0325 -0.2332 -0.1397
 1512TIP3    H128731   5.699   5.467  18.940 -0.2277 -0.2904  0.2583
 1512TIP3    H228732   5.569   5.540  18.917 -0.9678 -1.1366  1.6317
 1513TIP3   OH228733   5.127   0.340  17.742 -0.5788 -0.1161  0.3834
 1513TIP3    H128734   5.215   0.302  17.749 -0.2961  0.3007 -0.6621
 1513TIP3    H228735   5.075   0.291  17.805 -0.0656 -1.7651 -0.3831
 1514TIP3   OH228736   6.556   5.941  19.363 -0.1698  0.0521 -0.3595
 1514TIP3    H128737   6.503   5.932  19.284  1.0814 -1.4319 -1.0870
 1514TIP3    H228738   6.505   5.999  19.420 -1.5474  0.3740 -1.8558
 1515TIP3   OH228739   6.014   6.136  19.505 -0.5629 -0.5689  0.1596
 1515TIP3    H128740   5.961   6.065  19.542 -1.4070 -0.2798 -0.4826
 1515TIP3    H228741   6.100   6.097  19.491 -0.4354 -0.9004  1.7062
 1516TIP3   OH228742   6.542   7.218  19.533 -0.0819 -0.2512  0.1148
 1516TIP3    H128743   6.524   7.135  19.576  0.9223 -0.5294  0.0048
 1516TIP3    H228744   6.571   7.194  19.445 -1.1183  0.2741 -0.3886
 1517TIP3   OH228745   6.714   7.496  18.601  0.0932 -0.1691  0.2008
 1517TIP3    H128746   6.785   7.440  18.568 -0.3235 -1.5861  1.5819
 1517TIP3    H228747   6.730   7.503  18.695  0.6680  2.9389 -0.0188
 1518TIP3   OH228748   7.621   2.487  18.966  0.1700  0.0460  0.0400
 1518TIP3    H128749   7.640   2.456  18.878 -0.5931  0.9776 -0.4866
 1518TIP3    H228750   7.696   2.542  18.989  0.8838 -1.0667  0.4312
 1519TIP3   OH228751   1.771   5.047  17.590 -0.1069 -0.0000  0.0815
 1519TIP3    H128752   1.764   4.974  17.652 -0.2904 -0.5931 -0.6287
 1519TIP3    H228753   1.791   5.005  17.506 -1.0618  0.7022 -0.5080
 1520TIP3   OH228754   2.715   5.541  17.252 -0.6874 -0.2077 -0.3105
 1520TIP3    H128755   2.766   5.546  17.333 -0.1461 -1.8642 -0.5073
 1520TIP3    H228756   2.666   5.460  17.260 -0.4228 -0.5318 -1.7394
 1521TIP3   OH228757   5.035   6.712  18.498 -0.6025  0.3534 -0.0773
 1521TIP3    H128758   4.999   6.659  18.428  0.6701  0.1392 -0.5949
 1521TIP3    H228759   5.012   6.665  18.578 -1.0688 -0.0005 -0.4122
 1522TIP3   OH228760   4.016   2.425  19.226  0.1251  0.1452  0.2436
 1522TIP3    H128761   4.094   2.393  19.272  0.3210  0.4254  0.1046
 1522TIP3    H228762   4.022   2.520  19.231 -0.7634  0.1675  1.1599
 1523TIP3   OH228763   5.164   4.196  17.495 -0.1880 -0.1366 -0.1649
 1523TIP3    H128764   5.173   4.254  17.571 -0.5765  0.7139 -0.7409
 1523TIP3    H228765   5.207   4.115  17.520  0.2099  0.3454  0.7381
 1524TIP3   OH228766   3.467   3.930  18.688 -0.1145 -0.1931 -0.3766
 1524TIP3    H128767   3.503   4.010  18.650 -0.1505  0.6501  1.2620
 1524TIP3    H228768   3.382   3.956  18.723 -0.3332 -1.0540 -0.2385
 1525TIP3   OH228769   7.115   2.998  16.985 -0.2963  0.3480  0.1828
 1525TIP3    H128770   7.136   2.923  17.040 -0.5095  1.8190  2.4210
 1525TIP3    H228771   7.020   3.008  16.993 -0.3534  0.5270 -0.5890
 1526TIP3   OH228772   2.114   4.129  18.217  0.3156 -0.3738  0.6607
 1526TIP3    H128773   2.023   4.108  18.196  0.2827 -0.8058  1.2068
 1526TIP3    H228774   2.165   4.063  18.169  0.4853  1.1162 -1.3453
 1527TIP3   OH228775   5.993   5.881  18.421 -0.1835  0.0885  0.0414
 1527TIP3    H128776   5.983   5.936  18.343  0.4235  0.8109  0.4568
 1527TIP3    H228777   5.941   5.803  18.403  0.2683  0.0647 -1.2677
 1528TIP3   OH228778   5.526   1.364  18.024  0.2338  0.0326  0.9588
 1528TIP3    H128779   5.447   1.331  18.065  0.1398  0.8144  1.4220
 1528TIP3    H228780   5.531   1.456  18.050  0.4297  0.4244 -0.3882
 1529TIP3   OH228781   7.299   4.314  17.435  0.1753  0.1105 -0.2123
 1529TIP3    H128782   7.211   4.352  17.430 -0.1572 -0.7115 -1.1047
 1529TIP3    H228783   7.297   4.242  17.373  1.1458 -0.6316  0.5808
 1530TIP3   OH228784   5.842   5.407  18.243 -0.1098  0.1749 -0.3533
 1530TIP3    H128785   5.818   5.320  18.275  0.8755  0.6287  1.8340
 1530TIP3    H228786   5.855   5.396  18.149 -0.8234 -1.8440 -0.2509
 1531TIP3   OH228787   4.552   1.245  19.036  0.4652 -0.0721  0.5794
 1531TIP3    H128788   4.625   1.306  19.035 -1.2954  2.2590 -1.8941
 1531TIP3    H228789   4.575   1.179  18.970  0.6508  0.2733  0.2934
 1532TIP3   OH228790   1.351   3.992  19.151  0.6548 -0.4001  0.2021
 1532TIP3    H128791   1.360   3.919  19.089 -1.5270  0.4133 -1.1816
 1532TIP3    H228792   1.330   3.949  19.234 -0.0491 -1.3882 -0.4576
 1533TIP3   OH228793   2.410   3.375  17.787  0.5599  0.6078  0.2230
 1533TIP3    H128794   2.472   3.442  17.818 -1.1641  2.3848  0.0748
 1533TIP3    H228795   2.359   3.420  17.719 -2.8105  0.2766  2.3160
 1534TIP3   OH228796   5.478   6.793  17.659 -0.0526  0.2983  0.2701
 1534TIP3    H128797   5.537   6.729  17.698 -1.0380 -0.3826  0.6936
 1534TIP3    H228798   5.523   6.877  17.669  1.9766 -0.4385 -1.6791
 1535TIP3   OH228799   3.640   3.675  17.306 -0.1235  0.2819 -0.1281
 1535TIP3    H128800   3.689   3.757  17.304  2.9104 -1.3827 -1.7727
 1535TIP3    H228801   3.645   3.647  17.398 -0.0752  1.2926  0.1911
 1536TIP3   OH228802   6.932   3.230  18.285  0.6361 -0.0056  0.1235
 1536TIP3    H128803   6.986   3.152  18.296  1.1589  0.2808 -0.3396
 1536TIP3    H228804   6.987   3.291  18.236 -0.5606 -0.1706 -1.4847
 1537TIP3   OH228805   5.123   5.196  18.404 -0.4484  0.0913 -0.5101
 1537TIP3    H128806   5.159   5.240  18.326  0.3877  0.3414  0.0094
 1537TIP3    H228807   5.117   5.266  18.469 -3.0175  0.3595 -0.9053
 1538TIP3   OH228808   3.477   0.046  19.209  0.0572 -0.1951 -0.3553
 1538TIP3    H128809   3.432   0.123  19.175 -0.4759  0.5435  1.8700
 1538TIP3    H228810   3.411  -0.023  19.208  0.0666 -0.2051 -0.8174
 1539TIP3   OH228811   7.119   5.930  17.945  0.3280 -0.2598  0.7059
 1539TIP3    H128812   7.203   5.890  17.923  1.2975  2.0944 -0.1207
 1539TIP3    H228813   7.136   5.978  18.026 -0.0062  0.7795  0.1766
 1540TIP3   OH228814   5.207   2.709  18.029  0.0926 -0.2248 -0.0368
 1540TIP3    H128815   5.166   2.790  18.060  0.5650  0.1134 -0.2680
 1540TIP3    H228816   5.260   2.679  18.103 -0.4143 -0.5547  0.1938
 1541TIP3   OH228817   4.366   2.961  16.975  0.2939 -0.4561 -0.2612
 1541TIP3    H128818   4.391   2.975  17.066 -1.7986 -2.0802  0.6355
 1541TIP3    H228819   4.441   2.915  16.936  1.1303  0.0869  0.6744
 1542TIP3   OH228820   1.839   7.516  18.682 -0.1058  0.9783  0.2004
 1542TIP3    H128821   1.783   7.440  18.699  0.8562 -0.0061 -0.8757
 1542TIP3    H228822   1.811   7.547  18.596  2.2357 -0.7519 -1.3028
 1543TIP3   OH228823   5.965   2.307  18.596  0.2317 -0.3103  0.0823
 1543TIP3    H128824   5.950   2.274  18.685  2.2093 -0.1795  0.5117
 1543TIP3    H228825   5.896   2.371  18.582  0.9316  1.0193  2.2514
 1544TIP3   OH228826   5.404   3.222  18.510 -0.7741 -0.6335 -0.1730
 1544TIP3    H128827   5.397   3.254  18.420 -1.3707  0.0693  0.1136
 1544TIP3    H228828   5.314   3.202  18.536 -0.5517 -1.3061  0.1015
 1545TIP3   OH228829   0.448   2.640  19.061 -0.4708 -0.1231  0.0288
 1545TIP3    H128830   0.418   2.728  19.083 -2.3925 -0.9619  1.0170
 1545TIP3    H228831   0.540   2.637  19.090 -0.0604  1.8181 -0.9348
 1546TIP3   OH228832   7.172   5.342  18.964 -0.9772 -0.4161 -0.1468
 1546TIP3    H128833   7.177   5.405  19.035 -0.2199 -1.7360  1.0219
 1546TIP3    H228834   7.260   5.305  18.958  0.2298  2.3683 -4.4676
 1547TIP3   OH228835   4.029   6.151  17.166  0.2142  0.1783  0.1316
 1547TIP3    H128836   4.027   6.188  17.078 -0.0469 -0.3946 -0.1108
 1547TIP3    H228837   3.984   6.215  17.221  1.6909  1.2660  0.1440
 1548TIP3   OH228838   4.573   6.537  17.307  0.0514 -0.0199 -0.1455
 1548TIP3    H128839   4.597   6.495  17.225 -2.2107  0.0368 -0.8990
 1548TIP3    H228840   4.575   6.465  17.371 -0.5653 -0.6110 -0.7645
 1549TIP3   OH228841   3.894   3.882  17.050 -0.3445 -0.2904  0.0006
 1549TIP3    H128842   3.969   3.935  17.076 -1.3804  0.8865  0.7176
 1549TIP3    H228843   3.834   3.944  17.009 -1.5268 -0.9161  0.7292
 1550TIP3   OH228844   2.024   0.903  18.189  0.3601 -0.2137 -0.1970
 1550TIP3    H128845   2.055   0.916  18.099  0.9480  0.2658  0.0676
 1550TIP3    H228846   1.980   0.985  18.211  2.0866  0.5214  0.6838
 1551TIP3   OH228847   5.509   4.511  17.138 -0.2526 -0.3348 -0.2045
 1551TIP3    H128848   5.430   4.557  17.111 -1.8855 -1.4929  2.1597
 1551TIP3    H228849   5.502   4.425  17.097  1.4193  0.4975 -2.4325
 1552TIP3   OH228850   6.977   2.923  18.934  0.1825 -0.0983 -0.2298
 1552TIP3    H128851   6.938   3.003  18.970  0.0097  0.0535 -0.7516
 1552TIP3    H228852   6.904   2.877  18.893  0.5368  0.1662 -1.1797
 1553TIP3   OH228853   3.575   3.186  17.196  0.3594  0.5441 -0.5883
 1553TIP3    H128854   3.611   3.239  17.267  0.0358  1.1404 -0.8648
 1553TIP3    H228855   3.638   3.194  17.125 -0.2964  1.5859 -1.0724
 1554TIP3   OH228856   7.484   5.234  17.817  0.3316 -0.4701  0.1801
 1554TIP3    H128857   7.480   5.150  17.863 -0.5087 -2.0011 -2.4839
 1554TIP3    H228858   7.572   5.268  17.836  1.7088 -3.2470 -0.7258
 1555TIP3   OH228859   2.051   0.816  18.459 -0.2799  0.2329 -0.2921
 1555TIP3    H128860   1.958   0.801  18.469 -0.2799  0.5093  0.1548
 1555TIP3    H228861   2.059   0.863  18.376 -0.3378 -1.5372 -1.3405
 1556TIP3   OH228862   1.148   7.588  18.113  0.5528  0.0449 -0.5595
 1556TIP3    H128863   1.224   7.529  18.111 -0.6699 -1.5986 -1.6672
 1556TIP3    H228864   1.110   7.577  18.200 -0.5713 -2.1395 -1.2439
 1557TIP3   OH228865   2.545   6.655  18.994 -0.5187 -0.5325 -0.7097
 1557TIP3    H128866   2.521   6.562  18.999 -0.6342 -0.4506  2.0612
 1557TIP3    H228867   2.636   6.657  19.024 -0.2466  0.1804 -1.5708
 1558TIP3   OH228868   1.759   1.303  18.977 -0.2788  0.4029  0.0174
 1558TIP3    H128869   1.670   1.268  18.979  0.0259 -0.4442 -0.7035
 1558TIP3    H228870   1.747   1.398  18.990 -1.2180  0.2270  0.6027
 1559TIP3   OH228871   0.298   3.387  18.030 -0.0842  0.5324 -0.2721
 1559TIP3    H128872   0.272   3.339  18.109  0.7776 -0.0955 -0.3533
 1559TIP3    H228873   0.232   3.362  17.965  0.2050 -0.3487 -0.2356
 1560TIP3   OH228874   6.066   2.251  19.109 -0.3758  0.5317 -0.2906
 1560TIP3    H128875   6.121   2.326  19.085 -1.0087  1.8192  2.0015
 1560TIP3    H228876   6.115   2.206  19.177 -0.5949 -0.4140 -0.7370
 1561TIP3   OH228877   2.756   1.101  18.392  0.1754  0.0106 -0.0205
 1561TIP3    H128878   2.714   1.077  18.475  1.5336 -0.7042  0.4930
 1561TIP3    H228879   2.746   1.196  18.387 -1.6077 -0.1299 -0.0129
 1562TIP3   OH228880   6.420   2.340  18.761  0.3492 -0.2061  0.3270
 1562TIP3    H128881   6.357   2.406  18.733 -0.4517 -1.0937  0.0277
 1562TIP3    H228882   6.410   2.268  18.700  0.6385 -0.9579  1.1360
 1563TIP3   OH228883   3.001   1.068  17.747  0.8019  0.0983  0.1811
 1563TIP3    H128884   2.982   0.977  17.727 -2.2829  1.1165 -2.3621
 1563TIP3    H228885   2.917   1.105  17.775  1.2426  2.7062 -1.5544
 1564TIP3   OH228886   5.851   4.433  18.274 -0.1615  0.8348 -0.0125
 1564TIP3    H128887   5.814   4.398  18.355  2.3507 -1.1071  0.4322
 1564TIP3    H228888   5.802   4.391  18.204 -2.6459  2.8475  0.3794
 1565TIP3   OH228889   7.391   4.124  18.344  0.1505 -0.1607 -0.3083
 1565TIP3    H128890   7.435   4.192  18.395  0.4063 -0.7601  0.2739
 1565TIP3    H228891   7.433   4.042  18.371 -0.6428 -0.6347 -0.4839
 1566TIP3   OH228892   5.838   4.616  18.584  0.2050 -0.0116 -0.5153
 1566TIP3    H128893   5.907   4.612  18.651  0.2417  1.0656 -0.4698
 1566TIP3    H228894   5.812   4.525  18.571  0.8533 -0.3269  0.2881
 1567TIP3   OH228895   1.903   2.308  17.686  0.3007  0.3400 -0.2904
 1567TIP3    H128896   1.973   2.264  17.733  1.5279  1.8980 -0.5766
 1567TIP3    H228897   1.829   2.307  17.747  1.5561  1.4783  1.3481
 1568TIP3   OH228898   5.430   2.055  18.796  0.0923 -0.2740  0.2517
 1568TIP3    H128899   5.426   2.034  18.702 -0.3466  0.3034  0.1375
 1568TIP3    H228900   5.354   2.109  18.812  1.6038  1.9550  0.3525
 1569TIP3   OH228901   2.552   3.607  17.895 -0.0536  0.2873 -0.0836
 1569TIP3    H128902   2.617   3.664  17.934  0.2466 -0.4471  0.5227
 1569TIP3    H228903   2.471   3.628  17.940 -0.1267  0.8314 -0.4658
 1570TIP3   OH228904   6.970   2.548  18.725 -0.0217  0.2549  0.2726
 1570TIP3    H128905   6.916   2.589  18.793 -0.0273  0.1351  0.3396
 1570TIP3    H228906   7.026   2.486  18.772  0.0267  0.2254  0.1766
 1571TIP3   OH228907   5.732   1.786  18.403 -0.2909 -0.7128  0.2775
 1571TIP3    H128908   5.774   1.701  18.417 -0.0096 -0.7589 -0.7263
 1571TIP3    H228909   5.727   1.794  18.307 -0.6019  0.2612  0.3666
 1572TIP3   OH228910   6.561   3.630  17.767  0.6749  0.0793 -0.0354
 1572TIP3    H128911   6.609   3.587  17.838 -0.1595  1.8044  1.6668
 1572TIP3    H228912   6.496   3.566  17.740  1.0774 -0.6492  0.6821
 1573TIP3   OH228913   4.116   4.749  19.143  0.0522 -0.4478  0.1333
 1573TIP3    H128914   4.090   4.825  19.090 -0.5985 -0.8885 -0.1954
 1573TIP3    H228915   4.210   4.741  19.129 -0.1887 -0.8843 -1.4244
 1574TIP3   OH228916   0.724   6.263  18.303 -0.1352 -0.1317  0.3037
 1574TIP3    H128917   0.689   6.233  18.219  1.0590  0.2953 -0.3766
 1574TIP3    H228918   0.738   6.357  18.291  0.3900 -0.1338  0.8555
 1575TIP3   OH228919   0.290   3.704  19.091 -0.4627 -0.2435 -0.0684
 1575TIP3    H128920   0.364   3.752  19.053 -0.3184  0.0577  0.5830
 1575TIP3    H228921   0.313   3.612  19.080 -0.5525 -0.1727 -0.9605
 1576TIP3   OH228922   0.156   1.788  17.601  0.0023 -0.0637 -0.5662
 1576TIP3    H128923   0.077   1.821  17.643  1.5310  0.2468  2.3441
 1576TIP3    H228924   0.140   1.695  17.588 -0.0320 -0.5261  2.2733
 1577TIP3   OH228925   7.247   0.378  18.093 -0.0243  0.1865 -0.2146
 1577TIP3    H128926   7.169   0.340  18.052 -0.5361 -0.8898  1.6586
 1577TIP3    H228927   7.254   0.465  18.054 -0.3625 -0.7976 -2.6655
 1578TIP3   OH228928   7.614   6.118  17.544 -0.1796 -0.7224 -0.3881
 1578TIP3    H128929   7.571   6.136  17.461  0.3376  0.1489 -0.4910
 1578TIP3    H228930   7.543   6.102  17.606 -0.7462  1.5326 -0.3535
 1579TIP3   OH228931   1.524   4.661  17.249 -0.0129  0.6646  0.1980
 1579TIP3    H128932   1.493   4.642  17.338  0.2764  0.2076  0.2053
 1579TIP3    H228933   1.581   4.587  17.227 -1.3679 -0.0917 -0.9865
 1580TIP3   OH228934   4.423   7.011  19.379 -0.2881 -0.1242  0.2974
 1580TIP3    H128935   4.462   6.994  19.293  1.3322 -0.8537  1.1296
 1580TIP3    H228936   4.378   6.930  19.402  0.8898 -0.6178  0.9322
 1581TIP3   OH228937   6.759   4.534  16.862 -0.1041 -0.8290  1.1699
 1581TIP3    H128938   6.809   4.578  16.793 -0.5698 -0.1800  1.2335
 1581TIP3    H228939   6.741   4.603  16.926 -1.2047 -1.0092  1.0802
 1582TIP3   OH228940   3.248   6.364  17.487  0.1836 -0.0101  0.2554
 1582TIP3    H128941   3.329   6.313  17.483  0.4118  0.1497  2.2005
 1582TIP3    H228942   3.190   6.312  17.542 -1.0785 -0.1268 -1.1258
 1583TIP3   OH228943   7.410   2.046  18.254  0.2576 -0.0501 -0.0241
 1583TIP3    H128944   7.435   1.974  18.196  1.9150  0.6316 -0.1942
 1583TIP3    H228945   7.333   2.013  18.301 -0.3287 -1.1022 -1.6499
 1584TIP3   OH228946   1.830   1.092  18.829  0.6232 -0.0273  0.2969
 1584TIP3    H128947   1.738   1.095  18.854  0.7444 -1.1506  0.9643
 1584TIP3    H228948   1.873   1.155  18.887  0.8926 -2.5349  3.0486
 1585TIP3   OH228949   2.219   2.904  17.999 -0.1336 -0.5562  0.0456
 1585TIP3    H128950   2.254   2.874  17.915  0.2052  0.7008 -0.2852
 1585TIP3    H228951   2.150   2.966  17.976 -0.9514 -1.1904  0.7067
 1586TIP3   OH228952   0.786   1.321  18.148 -0.0938  0.2185 -0.2070
 1586TIP3    H128953   0.738   1.320  18.065  0.5260  0.3131 -0.5749
 1586TIP3    H228954   0.786   1.413  18.174  0.2575  0.2789 -0.4247
 1587TIP3   OH228955   3.265   1.928  18.249 -0.2356  0.2698  0.1332
 1587TIP3    H128956   3.196   1.986  18.281  0.0520  0.4611  0.4273
 1587TIP3    H228957   3.247   1.917  18.156 -0.9473 -0.0919  0.3081
 1588TIP3   OH228958   1.989   5.073  19.298  0.0454 -0.2533  0.3062
 1588TIP3    H128959   2.054   5.130  19.258 -0.8334  0.3155 -0.3494
 1588TIP3    H228960   1.912   5.080  19.240 -0.1907 -1.8506  0.3808
 1589TIP3   OH228961   5.324   6.391  19.010 -0.1226 -0.1643  0.9188
 1589TIP3    H128962   5.363   6.401  18.923  0.8560 -0.0410  1.3650
 1589TIP3    H228963   5.391   6.424  19.071 -0.9254  0.0677  1.7007
 1590TIP3   OH228964   0.194   4.636  19.150  0.2468  0.3999 -0.1329
 1590TIP3    H128965   0.205   4.543  19.169 -0.5752  0.2269 -0.4372
 1590TIP3    H228966   0.227   4.647  19.061  0.5727  0.4537 -0.0071
 1591TIP3   OH228967   0.549   4.345  19.293 -0.0370  0.0832 -0.2622
 1591TIP3    H128968   0.521   4.258  19.266  0.4120 -1.2091  2.9502
 1591TIP3    H228969   0.478   4.376  19.350  0.8159  0.8243  0.4162
 1592TIP3   OH228970   3.581   4.734  18.525  0.5990 -0.1238 -0.0809
 1592TIP3    H128971   3.562   4.685  18.605  0.0835 -0.4065 -0.3699
 1592TIP3    H228972   3.605   4.821  18.555 -1.2853  0.3016  0.3212
 1593TIP3   OH228973   4.580   5.604  19.136 -0.7382  0.5195  0.2993
 1593TIP3    H128974   4.543   5.671  19.079  1.6454 -0.0118 -2.0354
 1593TIP3    H228975   4.674   5.620  19.136 -0.1223 -2.5169  0.0041
 1594TIP3   OH228976   1.136   6.784  18.757  0.3663  0.5000 -0.6326
 1594TIP3    H128977   1.102   6.867  18.723  1.1822  1.0103 -0.2299
 1594TIP3    H228978   1.228   6.801  18.775  1.5962 -1.5330 -4.0355
 1595TIP3   OH228979   5.976   3.702  16.738  0.7319  0.6032  0.1398
 1595TIP3    H128980   5.886   3.670  16.743  0.8068  0.4340  0.4321
 1595TIP3    H228981   6.024   3.634  16.691  0.9537  0.1444  1.0227
 1596TIP3   OH228982   6.127   1.829  17.726 -0.4550 -0.6270 -0.2305
 1596TIP3    H128983   6.118   1.924  17.729  0.3664 -0.3700 -2.9600
 1596TIP3    H228984   6.107   1.800  17.815 -0.1486  2.1187  0.8340
 1597TIP3   OH228985   0.909   6.859  17.732 -0.2375 -0.0861 -0.6389
 1597TIP3    H128986   0.997   6.822  17.743 -0.2252 -0.1797 -1.0245
 1597TIP3    H228987   0.850   6.788  17.757 -0.2083 -0.2175 -0.9369
 1598TIP3   OH228988   3.046   6.245  18.981  0.2206 -0.7891  0.1405
 1598TIP3    H128989   3.134   6.265  18.949  0.6397  0.9383  2.1644
 1598TIP3    H228990   3.012   6.329  19.011 -2.1614 -1.4190 -0.5646
 1599TIP3   OH228991   6.057   7.550  17.994  0.2929 -0.0782  0.0479
 1599TIP3    H128992   6.058   7.518  18.084  2.6037  1.3873  0.6192
 1599TIP3    H228993   5.968   7.582  17.981  0.5385  2.0334  2.7315
 1600TIP3   OH228994   6.452   2.740  16.970 -0.2422 -0.3648  0.1187
 1600TIP3    H128995   6.533   2.782  16.942 -1.2178 -0.4602 -3.3797
 1600TIP3    H228996   6.395   2.746  16.894 -2.7864 -2.1876  1.7216
 1601TIP3   OH228997   2.749   1.221  16.931 -0.0765  0.2677 -0.2067
 1601TIP3    H128998   2.745   1.231  16.836  1.0784  0.4080 -0.2532
 1601TIP3    H228999   2.838   1.246  16.954 -0.8283  1.9179  1.1172
 1602TIP3   OH229000   1.261   1.500  17.350 -0.1427  0.0699  0.1056
 1602TIP3    H129001   1.174   1.539  17.358 -0.3159  0.4633 -2.6232
 1602TIP3    H229002   1.249   1.425  17.291  1.3452  0.1722 -0.3859
 1603TIP3   OH229003   0.270   0.453  18.086 -0.2580  0.1478  0.5083
 1603TIP3    H129004   0.233   0.377  18.041  0.3477  0.0487  0.1670
 1603TIP3    H229005   0.226   0.454  18.171 -1.9803  0.7862 -0.3498
 1604TIP3   OH229006   5.519   6.325  17.291 -0.5304 -0.5714  0.4284
 1604TIP3    H129007   5.541   6.257  17.228  0.2573 -0.1553  0.2498
 1604TIP3    H229008   5.450   6.376  17.248 -0.6919 -0.8852  0.3127
 1605TIP3   OH229009   3.610   6.186  18.946 -0.1991 -0.2522 -0.1063
 1605TIP3    H129010   3.694   6.222  18.976 -1.4842  2.1169  0.8432
 1605TIP3    H229011   3.590   6.117  19.009  0.1141  0.4886  0.8223
 1606TIP3   OH229012   4.247   6.476  16.791  0.2036 -0.3193 -0.0024
 1606TIP3    H129013   4.233   6.558  16.743  0.6828  0.1151  0.5734
 1606TIP3    H229014   4.333   6.446  16.761 -0.2033 -0.9159 -0.6215
 1607TIP3   OH229015   6.456   7.173  17.797 -0.2615 -0.5127 -0.5832
 1607TIP3    H129016   6.431   7.229  17.724  1.4306 -0.9369 -1.5625
 1607TIP3    H229017   6.543   7.140  17.772  0.7725  0.0297  2.0207
 1608TIP3   OH229018   5.856   6.617  19.170 -0.1427  0.4691  0.4660
 1608TIP3    H129019   5.911   6.539  19.176 -1.1236 -0.1781  1.5897
 1608TIP3    H229020   5.842   6.643  19.262 -2.0474  0.3444  0.2491
 1609TIP3   OH229021   3.953   1.786  18.434  0.7539 -0.2895  0.0279
 1609TIP3    H129022   3.922   1.874  18.456  1.4830  0.5149 -1.9525
 1609TIP3    H229023   3.873   1.738  18.411  0.4976  0.3442 -0.4301
 1610TIP3   OH229024   2.438   2.092  18.231  0.3484 -0.3781 -0.4991
 1610TIP3    H129025   2.356   2.123  18.193 -1.1240 -0.1129  2.5356
 1610TIP3    H229026   2.429   1.996  18.233  0.5865 -0.4139 -1.1264
 1611TIP3   OH229027   5.970   0.197  16.743  0.1668 -0.0190 -0.0041
 1611TIP3    H129028   5.970   0.277  16.795  1.4985  0.0700 -0.0869
 1611TIP3    H229029   5.907   0.213  16.674 -1.4499 -0.0371  1.4073
 1612TIP3   OH229030   2.049   7.031  17.512  0.3297 -0.0292  0.4370
 1612TIP3    H129031   2.006   7.115  17.527  2.0122  1.2745 -1.5863
 1612TIP3    H229032   2.141   7.047  17.534  0.7836 -1.1661 -0.5398
 1613TIP3   OH229033   2.975   0.608  18.675  0.1704  0.3631  0.8524
 1613TIP3    H129034   2.938   0.695  18.661  1.4557  1.0184  1.2655
 1613TIP3    H229035   3.017   0.586  18.592 -1.4621 -0.5843  0.2267
 1614TIP3   OH229036   4.799   2.375  18.751  0.3777  0.2220  0.0429
 1614TIP3    H129037   4.783   2.415  18.666  1.0745  1.8755  0.6491
 1614TIP3    H229038   4.717   2.329  18.772 -0.1354  0.5923 -1.0873
 1615TIP3   OH229039   3.051   4.146  19.617 -0.7197  0.4185 -0.5367
 1615TIP3    H129040   3.140   4.181  19.621 -1.0889  1.4961 -1.3036
 1615TIP3    H229041   3.060   4.062  19.573  0.1604 -0.4233  1.1553
 1616TIP3   OH229042   7.537   0.996  18.107 -0.1749  0.4310  0.1168
 1616TIP3    H129043   7.490   0.921  18.072 -0.0873 -0.1474  1.1974
 1616TIP3    H229044   7.596   0.959  18.173 -0.0421  1.4284  0.5742
 1617TIP3   OH229045   3.719   3.938  17.339  0.1289 -0.0516  0.3634
 1617TIP3    H129046   3.788   4.003  17.325 -0.4186  0.3784 -0.3621
 1617TIP3    H229047   3.643   3.972  17.293  0.0176 -1.5221 -0.6141
 1618TIP3   OH229048   4.328   0.212  17.207  0.4737 -0.2597  0.0831
 1618TIP3    H129049   4.255   0.264  17.174  1.0034  0.5230  0.1181
 1618TIP3    H229050   4.343   0.146  17.139  0.0717 -0.0986 -0.1642
 1619TIP3   OH229051   2.820   5.580  17.722  0.1733 -0.2017  0.3399
 1619TIP3    H129052   2.746   5.634  17.750  0.0245 -0.2123 -0.0209
 1619TIP3    H229053   2.846   5.532  17.800  0.5787  0.7008  0.7820
 1620TIP3   OH229054   1.176   4.436  18.611  0.0554  0.1221  0.1557
 1620TIP3    H129055   1.107   4.478  18.663 -0.2637 -0.3756  0.1369
 1620TIP3    H229056   1.133   4.407  18.531  0.7690  1.8804 -0.9308
 1621TIP3   OH229057   6.223   3.249  18.092 -0.0626 -0.1684 -0.0195
 1621TIP3    H129058   6.148   3.224  18.146  0.6300 -0.0183  1.0342
 1621TIP3    H229059   6.292   3.270  18.155  1.3161 -1.6457 -0.9646
 1622TIP3   OH229060   7.098   3.660  17.795  0.2017  0.5176  0.0657
 1622TIP3    H129061   7.098   3.639  17.701 -1.4544  1.8456 -0.2769
 1622TIP3    H229062   7.113   3.754  17.799 -1.3476  0.7642  1.0166
 1623TIP3   OH229063   1.790   1.924  16.119  0.0649 -0.1611  0.0759
 1623TIP3    H129064   1.804   2.013  16.150  2.2487 -0.4439  0.0864
 1623TIP3    H229065   1.877   1.896  16.088 -0.5604 -2.2800  0.1050
 1624TIP3   OH229066   0.926   5.867  17.203  0.3280 -0.0285  0.4352
 1624TIP3    H129067   0.930   5.793  17.263 -0.3093 -0.6285 -0.2486
 1624TIP3    H229068   0.874   5.933  17.250 -3.1872 -1.7370 -0.6742
 1625TIP3   OH229069   2.454   3.994  19.050 -0.7214  0.2159 -0.3341
 1625TIP3    H129070   2.464   4.048  18.972  0.9351 -0.6352 -0.7470
 1625TIP3    H229071   2.359   3.979  19.057 -0.9152  0.5162 -2.0315
 1626TIP3   OH229072   4.011   0.038  17.205  0.1714  0.0023  0.1716
 1626TIP3    H129073   3.991   0.050  17.298  1.8041  1.6716  0.3610
 1626TIP3    H229074   3.982  -0.051  17.185  0.8080 -0.7824  2.5444
 1627TIP3   OH229075   7.527   2.455  17.292 -0.6810  0.1285 -0.3640
 1627TIP3    H129076   7.499   2.394  17.359 -0.6137 -0.0191 -0.4693
 1627TIP3    H229077   7.589   2.513  17.336 -0.8347  0.1937 -0.2346
 1628TIP3   OH229078   0.960   0.773  18.274 -0.2337 -0.3634 -0.0397
 1628TIP3    H129079   0.880   0.826  18.265 -1.3302 -2.0558 -0.8801
 1628TIP3    H229080   0.932   0.697  18.325  1.4240  0.0512  1.5798
 1629TIP3   OH229081   7.419   3.643  17.660  0.0029 -0.0756  0.1740
 1629TIP3    H129082   7.479   3.588  17.712  0.3798 -1.1451 -1.3252
 1629TIP3    H229083   7.340   3.649  17.714  1.7273  2.2786  2.7287
 1630TIP3   OH229084   7.436   1.668  18.263 -0.1046  0.0499  0.1054
 1630TIP3    H129085   7.470   1.709  18.343  0.6786 -1.8923  0.8064
 1630TIP3    H229086   7.359   1.619  18.291  0.6642 -1.3475 -0.1232
 1631TIP3   OH229087   1.788   0.515  17.445  0.6195  0.6059 -0.1758
 1631TIP3    H129088   1.758   0.548  17.529 -1.9511 -0.8951 -0.4120
 1631TIP3    H229089   1.742   0.569  17.380  0.6987  0.1844 -0.5916
 1632TIP3   OH229090   3.659   1.968  18.655  0.2092  0.6835  0.5752
 1632TIP3    H129091   3.678   1.949  18.563 -1.1986  1.4578  0.0980
 1632TIP3    H229092   3.733   2.022  18.683  0.1611  1.2879 -0.4025
 1633TIP3   OH229093   2.216   5.249  17.419 -0.3088  0.0162 -0.0421
 1633TIP3    H129094   2.264   5.168  17.400 -0.2200 -0.5683  2.3596
 1633TIP3    H229095   2.249   5.312  17.355  0.6358 -1.4583 -1.0749
 1634TIP3   OH229096   6.677   6.137  17.805 -0.8491  0.2998 -0.0464
 1634TIP3    H129097   6.757   6.186  17.786  0.2230 -2.1391 -2.3026
 1634TIP3    H229098   6.702   6.077  17.875 -1.2337  0.6218  0.3837
 1635TIP3   OH229099   6.573   3.584  17.379 -0.2237 -0.0843 -0.1077
 1635TIP3    H129100   6.621   3.667  17.382  0.5401 -0.5536  0.7737
 1635TIP3    H229101   6.531   3.585  17.293  1.2573  0.3912 -0.8513
 1636TIP3   OH229102   2.251   4.589  18.345 -0.2666 -0.4298  0.0039
 1636TIP3    H129103   2.329   4.535  18.351 -0.8546 -1.1856  1.1737
 1636TIP3    H229104   2.178   4.528  18.351 -0.9994  0.1466 -2.0811
 1637TIP3   OH229105   3.735   5.495  19.068 -0.1660 -0.0464 -0.0659
 1637TIP3    H129106   3.654   5.465  19.110  0.1583  0.3564  0.8529
 1637TIP3    H229107   3.732   5.590  19.075  0.8845 -0.0705  0.9278
 1638TIP3   OH229108   4.723   5.962  19.295  0.1080  0.7220  0.7841
 1638TIP3    H129109   4.706   5.918  19.378  0.1852  1.2027  1.0549
 1638TIP3    H229110   4.738   6.053  19.318 -2.4386  1.4072 -0.0065
 1639TIP3   OH229111   1.348   4.618  17.455 -0.3689  0.3701  0.0212
 1639TIP3    H129112   1.300   4.611  17.537  0.7565  1.1095  0.7732
 1639TIP3    H229113   1.365   4.527  17.429 -0.6421  0.1356  0.6559
 1640TIP3   OH229114   3.809   5.758  17.598  0.9550 -0.2525  0.0593
 1640TIP3    H129115   3.876   5.689  17.598  1.4239  0.1794 -1.0071
 1640TIP3    H229116   3.855   5.835  17.566  0.3771  0.5069  1.0201
 1641TIP3   OH229117   1.099   3.697  17.989 -0.4315 -0.0976 -0.3754
 1641TIP3    H129118   1.138   3.748  18.060 -1.0665 -0.2855  0.1099
 1641TIP3    H229119   1.165   3.630  17.969 -0.8942 -1.0496  1.1298
 1642TIP3   OH229120   3.478   4.821  19.362  0.0033  0.2869  1.2275
 1642TIP3    H129121   3.473   4.740  19.313 -1.4370  0.4346  1.0877
 1642TIP3    H229122   3.471   4.794  19.454 -1.1820  0.2775  1.1517
 1643TIP3   OH229123   6.842   6.525  19.430 -0.7040 -0.2802  0.5652
 1643TIP3    H129124   6.751   6.500  19.443 -0.9161 -0.2341 -0.6710
 1643TIP3    H229125   6.892   6.445  19.450 -1.0136 -0.3455  1.1045
 1644TIP3   OH229126   4.158   2.456  18.183 -0.2271  0.5891 -0.0501
 1644TIP3    H129127   4.250   2.461  18.157 -0.2967 -0.3335 -0.4997
 1644TIP3    H229128   4.160   2.411  18.268 -0.2069  1.2815  0.3213
 1645TIP3   OH229129   7.593   3.834  18.832  0.2797  0.1712 -0.2668
 1645TIP3    H129130   7.565   3.900  18.768  1.5174 -1.0636 -2.2192
 1645TIP3    H229131   7.673   3.870  18.870  0.1185  0.4503 -0.1880
 1646TIP3   OH229132   1.418   0.018  18.938 -0.6242 -0.4187 -0.2454
 1646TIP3    H129133   1.459   0.084  18.882 -2.0152  0.3509 -0.3847
 1646TIP3    H229134   1.458   0.032  19.024 -0.2768  0.0246 -0.4732
 1647TIP3   OH229135   5.631   4.180  18.782  0.2783 -0.2523 -0.3687
 1647TIP3    H129136   5.609   4.148  18.869 -1.7549  0.5733 -0.5200
 1647TIP3    H229137   5.557   4.153  18.728 -0.3056  2.4459 -1.0339
 1648TIP3   OH229138   3.105   6.113  19.208  0.8391  0.2422  0.0560
 1648TIP3    H129139   3.014   6.096  19.231  0.4968 -0.9778 -1.9573
 1648TIP3    H229140   3.100   6.173  19.134  1.7423  1.0921  0.6584
 1649TIP3   OH229141   0.709   1.744  17.575 -0.0270  0.5793 -0.3229
 1649TIP3    H129142   0.742   1.751  17.485  0.6753 -0.0826 -0.1234
 1649TIP3    H229143   0.615   1.759  17.566 -0.0355  0.0933 -1.2412
 1650TIP3   OH229144   1.168   1.359  18.822  0.0281 -0.3317 -0.3804
 1650TIP3    H129145   1.260   1.388  18.820 -0.3496  0.8531 -1.9333
 1650TIP3    H229146   1.125   1.408  18.753 -1.3788 -2.3542 -1.0429
 1651TIP3   OH229147   0.128   7.230  17.296 -0.5156 -0.6291 -0.2309
 1651TIP3    H129148   0.187   7.210  17.369  0.2445  1.7300 -0.1250
 1651TIP3    H229149   0.185   7.260  17.226 -1.5458  2.7053  0.2162
 1652TIP3   OH229150   5.583   7.273  19.447  0.1909  0.2284 -0.7059
 1652TIP3    H129151   5.516   7.339  19.428 -0.7167 -0.2336  0.6701
 1652TIP3    H229152   5.533   7.192  19.460  0.8198  0.1529  1.7192
 1653TIP3   OH229153   3.537   5.120  18.924  0.4589 -0.3988 -0.5858
 1653TIP3    H129154   3.523   5.122  19.018 -0.0641 -3.3529 -0.4927
 1653TIP3    H229155   3.626   5.154  18.911  0.5422  0.0117  0.9589
 1654TIP3   OH229156   2.144   0.009  19.001 -0.3809  0.2416  0.5249
 1654TIP3    H129157   2.163   0.096  18.966  2.3877 -0.2721  0.5197
 1654TIP3    H229158   2.131  -0.045  18.924 -2.6681  0.6903  0.5325
 1655TIP3   OH229159   3.268   1.066  18.727 -0.1337 -0.3027  1.2457
 1655TIP3    H129160   3.341   1.009  18.749 -0.1752 -0.9620 -0.2375
 1655TIP3    H229161   3.197   1.006  18.701 -0.1007  0.3840 -0.5740
 1656TIP3   OH229162   7.266   4.770  18.607  0.1858 -0.4633 -0.8071
 1656TIP3    H129163   7.258   4.853  18.654  1.3517 -1.2339  0.8976
 1656TIP3    H229164   7.340   4.783  18.548 -0.4332  0.0999 -1.4620
 1657TIP3   OH229165   1.365   5.905  17.296  0.1140 -0.1025 -0.1910
 1657TIP3    H129166   1.386   5.824  17.249  0.3309  0.3680 -0.9378
 1657TIP3    H229167   1.387   5.975  17.233 -1.1981  0.5025 -0.0221
 1658TIP3   OH229168   0.028   7.189  18.735  0.0191 -0.3052 -0.7267
 1658TIP3    H129169   0.019   7.281  18.755 -0.3975  0.1694 -2.7961
 1658TIP3    H229170   0.039   7.186  18.639  0.6575 -2.3443 -0.6568
 1659TIP3   OH229171   4.383   0.444  16.914 -0.4892 -0.3197  0.6428
 1659TIP3    H129172   4.341   0.511  16.860 -1.4564 -0.6985  0.9129
 1659TIP3    H229173   4.387   0.367  16.857  1.8957  0.3078 -0.1666
 1660TIP3   OH229174   3.352   2.440  18.903 -0.3853  0.0352 -0.7329
 1660TIP3    H129175   3.281   2.480  18.953 -0.7157 -0.9148 -0.4252
 1660TIP3    H229176   3.429   2.493  18.925 -0.7774  0.4032 -0.2060
 1661TIP3   OH229177   5.004   0.185  17.531  0.1165  0.3620  0.5287
 1661TIP3    H129178   5.015   0.148  17.618  1.8743 -0.7693 -0.1104
 1661TIP3    H229179   4.974   0.112  17.477 -0.4345  0.9178  0.0573
 1662TIP3   OH229180   0.323   4.978  18.338  1.1142 -0.2998 -0.4328
 1662TIP3    H129181   0.360   4.892  18.319  1.7908 -0.4985  1.5240
 1662TIP3    H229182   0.383   5.017  18.402  0.2047  1.1497 -0.3935
 1663TIP3   OH229183   0.794   6.237  16.396 -0.2137  0.1288  0.0318
 1663TIP3    H129184   0.836   6.322  16.407  1.4916 -0.4670 -1.4181
 1663TIP3    H229185   0.702   6.253  16.418  0.3114  2.0090  1.1047
 1664TIP3   OH229186   5.151   7.639  18.188 -0.0468 -0.0946  0.2118
 1664TIP3    H129187   5.163   7.544  18.199 -2.3293 -0.5612 -0.7833
 1664TIP3    H229188   5.059   7.654  18.209 -0.2378  1.5565 -1.5221
 1665TIP3   OH229189   4.332   5.155  17.265 -0.0480 -0.0113 -0.5323
 1665TIP3    H129190   4.401   5.143  17.200  0.8095  1.0214  0.1406
 1665TIP3    H229191   4.273   5.219  17.227  0.3568  0.4591 -0.3851
 1666TIP3   OH229192   2.981   6.150  17.457 -0.1865 -0.1794  0.2450
 1666TIP3    H129193   3.042   6.121  17.390 -0.2292  0.2858  0.0023
 1666TIP3    H229194   3.009   6.104  17.536 -1.2266 -2.1109 -0.4697
 1667TIP3   OH229195   2.849   4.545  19.230  0.0957  0.0839 -0.2051
 1667TIP3    H129196   2.860   4.458  19.192  0.1120  0.4291 -1.0057
 1667TIP3    H229197   2.759   4.546  19.262  0.6750 -0.8932  1.5608
 1668TIP3   OH229198   1.358   3.604  17.784 -0.1270  0.2805  0.0325
 1668TIP3    H129199   1.335   3.579  17.694  2.7427 -0.0566 -0.7105
 1668TIP3    H229200   1.362   3.522  17.832  1.1169  0.1366 -0.2883
 1669TIP3   OH229201   3.765   2.240  17.622 -0.5550  0.1692  0.1556
 1669TIP3    H129202   3.672   2.230  17.641 -0.7998  0.5014 -0.7834
 1669TIP3    H229203   3.779   2.188  17.543  0.0778  0.0522  0.3400
 1670TIP3   OH229204   2.260   5.572  19.031  0.0870 -0.1582  0.2694
 1670TIP3    H129205   2.289   5.555  19.120 -2.0137 -1.3137  0.7866
 1670TIP3    H229206   2.173   5.609  19.040 -0.8884 -1.9021 -1.3277
 1671TIP3   OH229207   4.066   6.582  18.920 -0.5546 -0.0332  0.4770
 1671TIP3    H129208   4.056   6.575  19.015 -1.4052 -0.7368  0.3448
 1671TIP3    H229209   4.082   6.493  18.891  1.1731  0.3681  0.0974
 1672TIP3   OH229210   2.989   1.982  16.882  0.3427  0.3473  0.3374
 1672TIP3    H129211   3.079   1.990  16.850 -0.0554  0.4796 -0.7992
 1672TIP3    H229212   2.986   1.895  16.922  0.8219  0.1030 -0.1335
 1673TIP3   OH229213   3.200   7.281  19.157  0.2115  0.1379 -0.4700
 1673TIP3    H129214   3.200   7.250  19.066  1.4156  2.2369 -1.2397
 1673TIP3    H229215   3.107   7.290  19.178 -0.0891 -0.1216 -1.5959
 1674TIP3   OH229216   4.686   0.993  17.861 -0.8255  0.0405  0.1078
 1674TIP3    H129217   4.734   0.970  17.781 -3.2142 -2.0481 -0.8545
 1674TIP3    H229218   4.644   1.077  17.841  1.6093  1.5154  0.6960
 1675TIP3   OH229219   7.355   3.721  17.999 -0.4855 -0.7216  0.1635
 1675TIP3    H129220   7.362   3.744  18.091 -2.2318 -1.3087  0.4775
 1675TIP3    H229221   7.313   3.798  17.958  0.8646 -0.1971 -0.2903
 1676TIP3   OH229222   0.172   1.379  18.642 -0.0132  0.3047 -0.5289
 1676TIP3    H129223   0.132   1.424  18.568 -2.4552 -0.6952  0.1171
 1676TIP3    H229224   0.155   1.286  18.626  1.0238 -0.0676  0.4081
 1677TIP3   OH229225   6.077   0.827  18.145  0.7673 -0.9837 -0.2292
 1677TIP3    H129226   6.020   0.823  18.223  0.8335  1.9038  0.0550
 1677TIP3    H229227   6.166   0.821  18.180  0.7723 -0.5582 -0.1676
 1678TIP3   OH229228   0.727   4.124  16.320 -0.0260  0.0210 -0.4282
 1678TIP3    H129229   0.737   4.216  16.345  2.0805 -0.1268 -0.5703
 1678TIP3    H229230   0.789   4.077  16.376 -0.0067 -1.1297 -1.3780
 1679TIP3   OH229231   2.247   0.522  17.891  0.2805  0.0140 -0.2223
 1679TIP3    H129232   2.284   0.480  17.968 -0.6305  1.3460  0.9778
 1679TIP3    H229233   2.272   0.464  17.818 -0.2235 -2.1507  1.2326
 1680TIP3   OH229234   3.769   5.519  18.356 -0.1544  0.3600  0.4914
 1680TIP3    H129235   3.758   5.614  18.358  2.1296  0.6631  0.8255
 1680TIP3    H229236   3.863   5.505  18.355 -0.4320 -1.9111 -0.5706
 1681TIP3   OH229237   0.852   5.885  18.882 -0.4567  0.2070 -0.2319
 1681TIP3    H129238   0.857   5.981  18.878 -3.0516  0.5175  1.3425
 1681TIP3    H229239   0.934   5.855  18.842  0.8129  3.0795 -0.0681
 1682TIP3   OH229240   4.218   3.837  17.177 -0.2203  0.1865  0.3010
 1682TIP3    H129241   4.247   3.846  17.268 -0.1781 -0.8712  0.3968
 1682TIP3    H229242   4.298   3.825  17.127 -0.2952  0.0654  0.2098
 1683TIP3   OH229243   5.546   1.370  16.371  0.0542  0.2106  0.1367
 1683TIP3    H129244   5.640   1.353  16.370 -0.0496 -0.4908  0.9345
 1683TIP3    H229245   5.525   1.388  16.462 -0.5822  0.3731 -0.0312
 1684TIP3   OH229246   1.476   6.333  18.524  0.4504  0.4945 -0.0508
 1684TIP3    H129247   1.428   6.259  18.562  0.6037  0.6176  0.4003
 1684TIP3    H229248   1.550   6.346  18.585  1.1090  0.2452 -0.7818
 1685TIP3   OH229249   5.309   1.047  18.133 -0.3132  0.8387  0.0477
 1685TIP3    H129250   5.362   1.056  18.054 -0.2076 -1.2649 -0.1882
 1685TIP3    H229251   5.356   0.984  18.187 -1.6483  0.2816  0.6201
 1686TIP3   OH229252   2.936   0.482  16.798  0.1893  0.3182 -0.1644
 1686TIP3    H129253   2.865   0.460  16.858  0.1409 -1.4015 -0.7929
 1686TIP3    H229254   2.955   0.574  16.816 -2.5098  0.9908 -0.2908
 1687TIP3   OH229255   3.311   4.219  17.444  0.9511  0.3856 -0.2902
 1687TIP3    H129256   3.355   4.173  17.372  0.5328 -0.0930 -0.2431
 1687TIP3    H229257   3.260   4.287  17.400 -1.0094 -1.2372 -0.6743
 1688TIP3   OH229258   7.635   2.145  17.991 -0.2091  0.1837 -0.4075
 1688TIP3    H129259   7.620   2.051  18.004  0.8353  0.3255  2.2420
 1688TIP3    H229260   7.730   2.155  17.992 -0.3196  1.3556 -0.0215
 1689TIP3   OH229261   7.281   0.801  17.755 -0.0404 -0.4183  0.0321
 1689TIP3    H129262   7.373   0.800  17.728  0.5331 -0.4489  1.8979
 1689TIP3    H229263   7.256   0.893  17.751  0.0889 -0.4008 -0.4087
 1690TIP3   OH229264   7.151   6.067  18.185  0.0654  0.2846 -0.3010
 1690TIP3    H129265   7.158   6.034  18.274  0.0847 -0.1669 -0.4651
 1690TIP3    H229266   7.104   6.150  18.193 -0.5512 -0.0900  0.0533
 1691TIP3   OH229267   2.121   6.830  19.252 -0.1544  0.9247  0.7869
 1691TIP3    H129268   2.028   6.824  19.229 -0.7874  1.9912  2.8062
 1691TIP3    H229269   2.137   6.924  19.265  1.4129  0.8358 -0.2202
 1692TIP3   OH229270   1.532   1.078  17.231  0.4953 -0.1545 -0.1724
 1692TIP3    H129271   1.499   1.157  17.188 -0.4311  0.0204  0.8494
 1692TIP3    H229272   1.608   1.108  17.281  1.0910 -0.2132 -1.0199
 1693TIP3   OH229273   0.812   2.057  18.381 -0.0554  0.3570  0.0977
 1693TIP3    H129274   0.849   1.978  18.341  0.7576  0.8612 -0.1662
 1693TIP3    H229275   0.787   2.112  18.307  0.0095  0.6288  0.2766
 1694TIP3   OH229276   3.470   2.073  17.596  1.1779 -0.8489 -0.2755
 1694TIP3    H129277   3.502   2.152  17.553  0.1341  0.2585  0.8776
 1694TIP3    H229278   3.377   2.070  17.574  1.0010 -1.2199  0.4882
 1695TIP3   OH229279   1.595   5.887  17.604  1.0808  0.3140 -0.1371
 1695TIP3    H129280   1.530   5.956  17.622  0.8056 -0.0960  0.5223
 1695TIP3    H229281   1.678   5.924  17.635  0.7480 -0.0616  1.2952
 1696TIP3   OH229282   1.974   4.320  17.224  0.6167 -0.1856  0.4415
 1696TIP3    H129283   2.031   4.311  17.300  1.2419 -2.1552 -0.1812
 1696TIP3    H229284   2.033   4.312  17.149 -0.2914 -0.8859 -0.2230
 1697TIP3   OH229285   1.205   4.909  17.464 -0.5972  0.2623  0.2168
 1697TIP3    H129286   1.254   4.872  17.391 -0.7976 -0.9131  0.6593
 1697TIP3    H229287   1.132   4.848  17.477 -1.0188  0.8915  0.8775
 1698TIP3   OH229288   5.170   2.650  18.455 -0.1803  0.7086 -0.5154
 1698TIP3    H129289   5.233   2.714  18.487 -0.1171  0.9038 -1.0265
 1698TIP3    H229290   5.195   2.634  18.364  0.8319 -1.2982  0.0640
 1699TIP3   OH229291   3.238   3.550  18.624 -0.0927  0.2998  0.0931
 1699TIP3    H129292   3.237   3.496  18.702  0.6776 -2.2152 -1.5203
 1699TIP3    H229293   3.327   3.540  18.588 -1.0147 -0.4430 -2.2095
 1700TIP3   OH229294   4.499   4.042  17.656 -0.9629 -0.5359  0.2237
 1700TIP3    H129295   4.408   4.040  17.630 -0.7684 -0.0547 -0.5114
 1700TIP3    H229296   4.509   3.967  17.715 -2.0601  0.0011  1.1172
 1701TIP3   OH229297   4.462   6.032  17.750 -0.1452 -0.6489 -0.0319
 1701TIP3    H129298   4.476   6.042  17.656  1.8068 -2.3375  0.0168
 1701TIP3    H229299   4.545   5.998  17.783 -0.9663 -0.6081  2.2365
 1702TIP3   OH229300   6.522   5.365  17.462 -0.2925  0.2693 -0.2507
 1702TIP3    H129301   6.605   5.320  17.478 -1.3820 -1.0512  2.1849
 1702TIP3    H229302   6.456   5.296  17.467 -2.0072  1.9002  3.1639
 1703TIP3   OH229303   2.969   5.764  18.486  0.4164  0.0879  0.1036
 1703TIP3    H129304   2.909   5.705  18.440  0.4168  0.5288 -0.4847
 1703TIP3    H229305   3.039   5.707  18.517  0.2790 -0.2625 -0.2129
 1704TIP3   OH229306   4.794   7.658  17.727  0.5541  0.0016 -0.6210
 1704TIP3    H129307   4.806   7.636  17.635  2.1946  0.7177 -0.6027
 1704TIP3    H229308   4.786   7.574  17.771 -0.2626 -0.3482 -1.3907
 1705TIP3   OH229309   0.296   4.844  19.340  0.4938  0.5750 -0.2500
 1705TIP3    H129310   0.208   4.838  19.377  0.7020 -0.5122  0.0937
 1705TIP3    H229311   0.296   4.781  19.268  0.9404  0.6826 -0.3461
 1706TIP3   OH229312   3.132   2.959  19.315  0.0961 -0.0514  0.4151
 1706TIP3    H129313   3.092   2.892  19.371 -0.3551  0.3580  0.5974
 1706TIP3    H229314   3.114   2.930  19.226 -1.0597  0.3652  0.4865
 1707TIP3   OH229315   2.337   5.898  17.600  0.0414 -0.2458  0.1203
 1707TIP3    H129316   2.287   5.951  17.538  0.0888 -0.2776  0.0556
 1707TIP3    H229317   2.400   5.851  17.546 -2.0919 -2.9034 -0.2739
 1708TIP3   OH229318   0.534   4.195  17.134  0.4548 -0.4736  0.5207
 1708TIP3    H129319   0.538   4.138  17.211 -0.1269 -0.2285  0.7363
 1708TIP3    H229320   0.525   4.283  17.169  1.1809 -0.2503  0.1838
 1709TIP3   OH229321   6.843   7.176  19.617 -0.3863 -0.4580 -0.2834
 1709TIP3    H129322   6.768   7.235  19.623 -1.1906 -1.5635  1.1643
 1709TIP3    H229323   6.805   7.088  19.618  0.7229 -1.0822 -3.2179
 1710TIP3   OH229324   7.119   7.112  17.615 -1.0531  0.4242 -0.0232
 1710TIP3    H129325   7.173   7.079  17.543 -0.3956 -0.0300  0.6628
 1710TIP3    H229326   7.173   7.099  17.693 -1.3610  1.8054  0.4445
 1711TIP3   OH229327   6.787   4.977  19.124  0.1644 -0.1913  0.0171
 1711TIP3    H129328   6.857   5.036  19.096 -1.6809  0.8307 -3.0309
 1711TIP3    H229329   6.731   5.030  19.180  1.0748 -0.6216  1.3794
 1712TIP3   OH229330   2.651   5.085  19.006 -0.6040 -0.0718 -0.2496
 1712TIP3    H129331   2.682   5.078  19.096  0.1381  1.1537 -0.3865
 1712TIP3    H229332   2.574   5.142  19.011  1.5052  3.1058 -0.7340
 1713TIP3   OH229333   0.256   1.187  17.099 -0.3523  0.0351 -0.6525
 1713TIP3    H129334   0.224   1.277  17.095  0.0812  0.2160 -0.1700
 1713TIP3    H229335   0.337   1.188  17.047 -0.9138 -0.3291 -1.5474
 1714TIP3   OH229336   5.147   6.299  18.476  0.4034 -0.7130 -0.7685
 1714TIP3    H129337   5.133   6.252  18.558 -0.0939  1.1160  0.2357
 1714TIP3    H229338   5.228   6.261  18.441  1.4041 -0.6190  1.2620
 1715TIP3   OH229339   0.149   5.229  16.513  0.1317 -0.0382  0.4028
 1715TIP3    H129340   0.205   5.243  16.436  0.6708  0.0057  0.7956
 1715TIP3    H229341   0.210   5.233  16.587 -0.3005 -0.6381  0.7891
 1716TIP3   OH229342   0.322   3.268  17.596  0.7511  0.4047 -0.1302
 1716TIP3    H129343   0.297   3.210  17.523 -0.1057  0.0559  0.4166
 1716TIP3    H229344   0.266   3.345  17.586 -0.2945 -0.1903  0.8562
 1717TIP3   OH229345   6.290   4.244  17.051 -0.0836  0.2866  0.1340
 1717TIP3    H129346   6.353   4.218  16.984  0.0728  0.0896  0.3547
 1717TIP3    H229347   6.331   4.317  17.096  0.3820 -0.3972  0.8503
 1718TIP3   OH229348   7.386   1.186  19.244  0.0854  0.0787 -0.0697
 1718TIP3    H129349   7.328   1.261  19.257  0.8637  1.0709 -1.9418
 1718TIP3    H229350   7.335   1.111  19.276 -2.2409  0.8967 -1.5750
 1719TIP3   OH229351   5.577   0.725  19.097 -0.0581  0.3630  0.0705
 1719TIP3    H129352   5.585   0.662  19.168 -2.5817 -0.4085 -0.2503
 1719TIP3    H229353   5.486   0.754  19.099  0.5921  2.7413 -0.8799
 1720TIP3   OH229354   3.064   6.587  18.629 -0.0455  0.7657 -0.5031
 1720TIP3    H129355   3.127   6.579  18.557 -0.2388  1.5785 -0.7651
 1720TIP3    H229356   3.046   6.496  18.655  0.1630  0.4772 -1.3546
 1721TIP3   OH229357   2.333   2.320  18.748 -0.1120  0.1317 -0.0360
 1721TIP3    H129358   2.266   2.277  18.802  0.2881  0.3569  0.6470
 1721TIP3    H229359   2.302   2.308  18.658 -1.6807  1.2287  0.3138
 1722TIP3   OH229360   4.586   5.737  18.478  0.2130 -0.0212  0.3357
 1722TIP3    H129361   4.571   5.831  18.481 -0.2673 -0.0857  0.1178
 1722TIP3    H229362   4.531   5.701  18.548 -0.9637 -0.2935 -0.6845
 1723TIP3   OH229363   7.463   0.664  16.823 -0.1170  0.0361 -0.7239
 1723TIP3    H129364   7.434   0.660  16.914 -1.4562  0.8712 -1.0907
 1723TIP3    H229365   7.411   0.734  16.784  0.1254 -0.5942 -2.2530
 1724TIP3   OH229366   4.924   6.372  17.560  0.3306 -0.8092 -0.2894
 1724TIP3    H129367   4.959   6.372  17.649  0.5246  0.2959 -0.3577
 1724TIP3    H229368   4.866   6.296  17.558  0.6272 -1.0816  0.6576
 1725TIP3   OH229369   6.297   4.724  18.417 -0.2340  0.0600 -0.2281
 1725TIP3    H129370   6.203   4.710  18.428 -0.4041  1.0676 -0.3068
 1725TIP3    H229371   6.304   4.773  18.335  0.3366  0.2570 -0.0661
 1726TIP3   OH229372   7.606   2.285  16.649 -0.3273 -0.0812 -0.2763
 1726TIP3    H129373   7.602   2.345  16.723 -3.3984 -0.1461 -0.2728
 1726TIP3    H229374   7.534   2.312  16.592 -0.1260 -2.1019 -1.6065
 1727TIP3   OH229375   7.250   7.373  17.855 -0.3169 -0.5394  0.8477
 1727TIP3    H129376   7.158   7.399  17.861 -0.0879  0.3023  0.8786
 1727TIP3    H229377   7.263   7.311  17.928 -1.1575 -1.6452  0.0919
 1728TIP3   OH229378   3.022   0.958  16.980 -0.6019  0.8776 -0.5117
 1728TIP3    H129379   2.976   1.000  16.908  1.8849 -1.1260 -3.5450
 1728TIP3    H229380   3.110   0.996  16.979 -0.2333  0.1713  0.9300
 1729TIP3   OH229381   5.857   6.657  18.441 -0.2633 -0.9618  0.2451
 1729TIP3    H129382   5.805   6.579  18.461 -1.8525  0.5866  2.6011
 1729TIP3    H229383   5.796   6.717  18.399 -0.0832  0.3434  1.7522
 1730TIP3   OH229384   5.966   7.661  18.601  0.1079  0.5593 -0.0197
 1730TIP3    H129385   5.876   7.690  18.582 -0.5937 -0.1747  1.9379
 1730TIP3    H229386   5.993   7.615  18.521 -0.4806  2.4490 -1.4095
 1731TIP3   OH229387   1.941   3.018  17.775  0.5151 -0.5490  0.0262
 1731TIP3    H129388   1.995   2.949  17.737 -2.9481 -1.7740 -3.4305
 1731TIP3    H229389   1.883   2.972  17.836  0.7629  0.0394  0.7146
 1732TIP3   OH229390   0.994   0.129  19.038  0.4425 -0.0190  0.6605
 1732TIP3    H129391   1.035   0.108  18.955 -0.6052 -1.9814  0.5923
 1732TIP3    H229392   0.993   0.225  19.041  1.0638  0.0767 -1.2713
 1733TIP3   OH229393   6.885   5.452  18.424 -0.4408  0.2443  0.0241
 1733TIP3    H129394   6.921   5.387  18.363  1.4445  0.6743  0.6200
 1733TIP3    H229395   6.912   5.421  18.510 -1.2421  0.7821  0.4832
 1734TIP3   OH229396   0.422   4.522  18.138  0.1369 -0.0690 -0.1472
 1734TIP3    H129397   0.343   4.519  18.084 -0.1392 -0.9717  0.2772
 1734TIP3    H229398   0.447   4.614  18.140 -0.0323  0.0266 -1.5327
 1735TIP3   OH229399   5.533   0.003  17.025 -0.1794  0.5814  0.0007
 1735TIP3    H129400   5.450   0.051  17.023 -1.5619 -1.4871  2.1404
 1735TIP3    H229401   5.593   0.061  17.072 -0.6237  1.7630 -0.8375
 1736TIP3   OH229402   6.224   3.314  17.426 -0.1629  0.1010  0.3796
 1736TIP3    H129403   6.263   3.255  17.361 -0.7089  0.4904 -0.3131
 1736TIP3    H229404   6.299   3.358  17.466  0.1788 -0.0491 -0.0802
 1737TIP3   OH229405   1.372   6.712  19.149  0.8750 -0.7351  0.1206
 1737TIP3    H129406   1.379   6.806  19.164  0.3581 -0.4027 -1.5344
 1737TIP3    H229407   1.453   6.688  19.103  1.6325 -1.3934  1.7087
 1738TIP3   OH229408   4.709   3.538  17.962  0.3815  0.0506  0.3047
 1738TIP3    H129409   4.738   3.629  17.953 -0.4249  0.1417 -2.0051
 1738TIP3    H229410   4.722   3.500  17.876 -2.4271 -1.0564  0.2659
 1739TIP3   OH229411   5.360   6.912  17.199  0.5290 -0.0882  0.1245
 1739TIP3    H129412   5.350   6.829  17.245  1.9048  0.0466  0.7092
 1739TIP3    H229413   5.446   6.907  17.158  0.1147  0.5638 -0.8838
 1740TIP3   OH229414   1.849   0.454  18.389  0.1719 -0.5349 -0.2463
 1740TIP3    H129415   1.755   0.458  18.403  0.5583 -0.4115  3.6039
 1740TIP3    H229416   1.863   0.494  18.304 -3.0561  1.9823  0.1977
 1741TIP3   OH229417   5.313   4.143  19.109 -0.2111  0.5465 -0.1738
 1741TIP3    H129418   5.247   4.157  19.041  0.5226  0.5664 -0.9089
 1741TIP3    H229419   5.284   4.064  19.155 -1.3244  1.1841  0.2429
 1742TIP3   OH229420   1.619   1.780  17.533  0.5645 -0.2480  0.4848
 1742TIP3    H129421   1.617   1.873  17.513  1.0132 -0.2968  0.1731
 1742TIP3    H229422   1.671   1.773  17.613  0.8427 -0.2555  0.3072
 1743TIP3   OH229423   5.465   7.646  18.664 -0.1775  0.3232 -0.2653
 1743TIP3    H129424   5.554   7.652  18.698 -0.3809 -0.0419  0.3603
 1743TIP3    H229425   5.475   7.623  18.572  0.3871  0.9407 -0.3640
 1744TIP3   OH229426   2.419   1.271  17.791  0.3030  0.7439 -0.1599
 1744TIP3    H129427   2.457   1.350  17.752 -0.1094  0.6830 -0.6849
 1744TIP3    H229428   2.324   1.283  17.784  0.2338 -0.2973 -1.2717
 1745TIP3   OH229429   4.990   1.946  18.354 -0.4877 -0.5182 -0.1007
 1745TIP3    H129430   4.991   1.942  18.449 -0.6367 -0.4358 -0.0948
 1745TIP3    H229431   4.902   1.979  18.333  0.6130  2.6905 -0.1677
 1746TIP3   OH229432   3.564   0.671  17.926 -0.2506 -0.2022 -0.2323
 1746TIP3    H129433   3.640   0.615  17.942  0.2700  0.2206 -1.1247
 1746TIP3    H229434   3.558   0.726  18.004  2.2819  1.8815 -1.3450
 1747TIP3   OH229435   1.201   3.448  18.481 -0.3356  0.5902  0.5101
 1747TIP3    H129436   1.140   3.519  18.501  0.1978  1.3208 -0.3684
 1747TIP3    H229437   1.154   3.368  18.506 -2.6732  0.8946 -2.3322
 1748TIP3   OH229438   1.378   3.247  19.254 -0.4083 -0.3158 -0.3920
 1748TIP3    H129439   1.466   3.262  19.291 -1.8497  0.3060  3.2052
 1748TIP3    H229440   1.333   3.331  19.266 -2.5320 -1.5818  1.2911
 1749TIP3   OH229441   6.027   6.438  17.276  0.0373  0.2087 -0.1284
 1749TIP3    H129442   5.940   6.410  17.305  1.0211 -0.5126  2.4093
 1749TIP3    H229443   6.056   6.369  17.216 -0.8982  0.1658 -0.5419
 1750TIP3   OH229444   2.568   0.213  17.478 -0.0243  0.2925  0.6284
 1750TIP3    H129445   2.657   0.239  17.456 -0.4912  1.2466 -0.2172
 1750TIP3    H229446   2.515   0.241  17.403 -0.8245 -1.6335  0.4188
 1751TIP3   OH229447   2.730   0.358  18.629  0.5924 -0.2324 -0.2712
 1751TIP3    H129448   2.822   0.384  18.628  0.5903 -0.2488 -0.7326
 1751TIP3    H229449   2.725   0.290  18.696  0.6626  0.6994  0.7193
 1752TIP3   OH229450   7.668   1.644  18.704  0.1158  0.2242 -0.4284
 1752TIP3    H129451   7.734   1.711  18.686  0.7094  0.3918  1.9800
 1752TIP3    H229452   7.706   1.593  18.776 -0.3082 -2.7737 -2.1986
 1753TIP3   OH229453   0.849   0.560  18.418 -0.0666 -0.3180 -0.7625
 1753TIP3    H129454   0.870   0.517  18.500  1.8510  0.0376 -1.0293
 1753TIP3    H229455   0.811   0.491  18.364 -1.5711 -0.4995  0.4592
 1754TIP3   OH229456   1.465   4.805  18.435 -0.1693  0.2834  0.3489
 1754TIP3    H129457   1.532   4.746  18.402 -0.5420 -0.4710  0.9128
 1754TIP3    H229458   1.409   4.824  18.360 -1.0415 -1.4476  0.5175
 1755TIP3   OH229459   4.257   4.823  17.294  0.5357 -0.2780  0.2841
 1755TIP3    H129460   4.270   4.840  17.200 -1.6675 -0.7603 -0.1761
 1755TIP3    H229461   4.271   4.908  17.335  1.1952  0.0225 -0.5157
 1756TIP3   OH229462   7.589   4.022  18.144 -0.3534 -0.0962  0.0170
 1756TIP3    H129463   7.551   4.105  18.114 -0.1649  0.0172  0.0903
 1756TIP3    H229464   7.549   3.956  18.088  1.2088  0.2561 -1.5772
 1757TIP3   OH229465   7.199   0.380  16.756 -0.3535  0.0484 -0.2330
 1757TIP3    H129466   7.193   0.397  16.662 -1.4231 -0.4420 -0.2812
 1757TIP3    H229467   7.122   0.424  16.793 -1.0662 -1.4259  0.1223
 1758TIP3   OH229468   6.222   4.425  18.901  0.0322 -0.0775  0.0476
 1758TIP3    H129469   6.317   4.413  18.898  0.1750  0.9011  0.4090
 1758TIP3    H229470   6.192   4.357  18.961  0.3499 -1.2137 -1.0453
 1759TIP3   OH229471   4.459   4.670  18.559  0.5862 -0.2153  0.4127
 1759TIP3    H129472   4.442   4.661  18.652  2.1939 -0.3371  0.7106
 1759TIP3    H229473   4.375   4.650  18.517 -0.0358 -0.5924  1.7989
 1760TIP3   OH229474   4.723   5.439  17.547  0.6259 -0.2647  0.6321
 1760TIP3    H129475   4.809   5.412  17.514  0.2811  1.5514 -2.0424
 1760TIP3    H229476   4.718   5.532  17.526 -2.5320 -0.6009 -0.5882
 1761TIP3   OH229477   2.012   3.979  18.800 -0.6166  0.5456 -0.2372
 1761TIP3    H129478   1.982   3.891  18.820 -0.7717  0.8526  0.9616
 1761TIP3    H229479   2.071   3.968  18.725  1.1307 -0.9063  1.2410
 1762TIP3   OH229480   2.862   4.508  17.265 -0.7833 -0.2122 -0.3952
 1762TIP3    H129481   2.793   4.525  17.201  0.7439 -0.1349 -2.0737
 1762TIP3    H229482   2.935   4.562  17.237  0.0554 -0.4039  1.2659
 1763TIP3   OH229483   1.530   6.453  19.237  0.3627  0.6196  0.0916
 1763TIP3    H129484   1.543   6.511  19.162 -2.2761 -0.2795 -1.2132
 1763TIP3    H229485   1.528   6.511  19.313  0.7321  1.8498 -0.8129
 1764TIP3   OH229486   4.409   4.867  19.139  0.1622  0.3507  0.2477
 1764TIP3    H129487   4.438   4.890  19.051  0.4633  0.6856  0.4271
 1764TIP3    H229488   4.352   4.940  19.165 -1.6767 -0.7618 -0.4708
 1765TIP3   OH229489   2.526   4.183  17.885 -0.5838  0.0265 -0.0997
 1765TIP3    H129490   2.477   4.264  17.867 -0.4691  0.2462  0.5641
 1765TIP3    H229491   2.514   4.167  17.978  0.5465  0.0534  0.0711
 1766TIP3   OH229492   7.635   4.160  17.456  0.1171 -0.1698  0.2311
 1766TIP3    H129493   7.629   4.189  17.365  0.3860  1.2498  0.6462
 1766TIP3    H229494   7.545   4.137  17.479  0.0966 -0.8630 -0.4792
 1767TIP3   OH229495   0.815   2.745  19.102  0.4577  0.7870  0.2254
 1767TIP3    H129496   0.906   2.740  19.131  0.7095 -0.1204 -0.6759
 1767TIP3    H229497   0.810   2.685  19.028 -0.6669  1.4922 -0.2954
 1768TIP3   OH229498   1.816   2.015  17.574 -0.3718 -0.0122  0.1432
 1768TIP3    H129499   1.858   1.939  17.614  1.1360  1.4771  1.5508
 1768TIP3    H229500   1.888   2.064  17.536 -1.3866  0.4883 -1.1899
 1769TIP3   OH229501   3.174   5.090  18.559  0.1637 -0.6073  0.4926
 1769TIP3    H129502   3.244   5.108  18.622  1.3885  0.4178 -1.0981
 1769TIP3    H229503   3.210   5.115  18.474 -0.8171 -3.5220 -0.9234
 1770TIP3   OH229504   4.621   5.936  17.225  0.0220  0.2497 -0.4576
 1770TIP3    H129505   4.613   6.029  17.244  2.0185  0.4519 -0.3566
 1770TIP3    H229506   4.620   5.931  17.130 -1.3282  0.2021 -0.4636
 1771TIP3   OH229507   5.700   3.813  18.198 -0.3085  0.4060 -0.1495
 1771TIP3    H129508   5.760   3.886  18.189 -1.3866  1.4097  0.4920
 1771TIP3    H229509   5.617   3.844  18.161 -0.3790 -1.0765 -1.3753
 1772TIP3   OH229510   4.523   1.175  18.638 -0.4230  1.0757 -0.4038
 1772TIP3    H129511   4.576   1.255  18.637 -1.7988  2.0737  0.7076
 1772TIP3    H229512   4.433   1.207  18.631 -1.0901 -0.2638  1.4259
 1773TIP3   OH229513   1.018   3.238  18.292  0.5290  0.2254 -0.2352
 1773TIP3    H129514   1.086   3.193  18.341  0.3981 -0.5076 -0.7188
 1773TIP3    H229515   0.991   3.176  18.224 -0.9531  0.3063  0.2362
 1774TIP3   OH229516   4.234   3.213  19.268 -0.2811  0.2046  0.3719
 1774TIP3    H129517   4.142   3.186  19.270  0.2276 -1.6242  0.8661
 1774TIP3    H229518   4.268   3.188  19.354  1.1201 -0.8884 -0.4622
 1775TIP3   OH229519   0.903   0.269  17.883  0.4592 -0.3626 -0.0739
 1775TIP3    H129520   0.835   0.202  17.894  1.0374 -0.8853  0.4224
 1775TIP3    H229521   0.975   0.238  17.938  1.7688 -0.7232 -1.9068
 1776TIP3   OH229522   7.537   4.476  17.304  0.3558 -0.2083  0.0020
 1776TIP3    H129523   7.506   4.566  17.292  0.0164 -0.3516 -0.2229
 1776TIP3    H229524   7.481   4.441  17.374 -0.6488 -0.7746 -1.0621
 1777TIP3   OH229525   0.251   3.537  17.316 -0.0682 -0.3316 -0.1667
 1777TIP3    H129526   0.267   3.443  17.321 -1.5680 -0.6550 -0.9587
 1777TIP3    H229527   0.232   3.563  17.406  0.3073 -0.7783  0.0479
 1778TIP3   OH229528   5.906   2.113  18.259 -0.2922  0.2032  0.8989
 1778TIP3    H129529   5.901   2.080  18.170  3.1120 -0.3982  0.7773
 1778TIP3    H229530   5.877   2.040  18.314  3.9044 -2.0781  0.4605
 1779TIP3   OH229531   6.480   4.386  18.854 -1.0561  0.3495 -0.0152
 1779TIP3    H129532   6.546   4.336  18.902 -1.7658  0.2902  0.9154
 1779TIP3    H229533   6.530   4.450  18.803 -0.2800  0.2975  0.6677
 1780TIP3   OH229534   0.353   4.247  17.475 -0.0663 -0.3198  0.0103
 1780TIP3    H129535   0.292   4.318  17.495 -1.1646 -0.8095 -1.3803
 1780TIP3    H229536   0.421   4.254  17.542 -1.6611  0.2295  1.6815
 1781TIP3   OH229537   3.099   0.937  18.553 -0.4727 -0.5880 -0.5858
 1781TIP3    H129538   3.007   0.920  18.571 -0.2953 -1.9818 -0.8430
 1781TIP3    H229539   3.115   0.896  18.468  0.8719 -2.4020  0.4525
 1782TIP3   OH229540   3.973   1.934  17.489 -0.4350  0.1097 -0.1372
 1782TIP3    H129541   3.928   2.013  17.460  0.1997 -0.3638 -2.7197
 1782TIP3    H229542   3.958   1.871  17.418  1.6167 -1.0735  0.4002
 1783TIP3   OH229543   3.046   7.576  18.237 -0.5280 -0.1261 -0.2020
 1783TIP3    H129544   3.035   7.578  18.332 -2.8106  1.5987 -0.4253
 1783TIP3    H229545   2.992   7.503  18.208  1.8290 -2.0329 -0.1021
 1784TIP3   OH229546   1.399   2.980  16.746  0.1469 -0.5802  0.3032
 1784TIP3    H129547   1.364   3.068  16.734 -0.8463 -0.8343  1.2084
 1784TIP3    H229548   1.494   2.992  16.749 -0.0081  0.5773  1.1893
 1785TIP3   OH229549   4.359   0.753  16.461  0.2998 -0.2684  0.4938
 1785TIP3    H129550   4.390   0.788  16.545 -1.2630 -0.3608  1.1519
 1785TIP3    H229551   4.438   0.728  16.415  1.3967  2.3382  0.7742
 1786TIP3   OH229552   4.607   6.166  16.467 -0.1174 -0.1077 -0.1738
 1786TIP3    H129553   4.688   6.132  16.429  0.1412 -0.6594  0.8467
 1786TIP3    H229554   4.602   6.256  16.434  1.8577  0.5595  1.1255
 1787TIP3   OH229555   6.681   3.860  18.579 -0.2509  0.2413  0.2407
 1787TIP3    H129556   6.702   3.912  18.656 -1.1338  1.2410 -0.1658
 1787TIP3    H229557   6.585   3.850  18.582 -0.1249 -1.3231  0.2654
 1788TIP3   OH229558   5.576   4.769  17.581  0.1901 -0.5152 -0.4553
 1788TIP3    H129559   5.655   4.819  17.604 -0.8071  1.4805 -1.1613
 1788TIP3    H229560   5.546   4.807  17.499 -1.1287 -1.7270 -0.5833
 1789TIP3   OH229561   1.828   0.146  16.651 -0.2273  0.5244  0.1307
 1789TIP3    H129562   1.898   0.203  16.621  0.4886 -0.4615 -0.1133
 1789TIP3    H229563   1.767   0.142  16.577 -0.0396  0.5789 -0.0276
 1790TIP3   OH229564   2.475   2.123  18.519  0.4049 -0.0138  0.7694
 1790TIP3    H129565   2.452   2.210  18.552 -0.7684  0.0380 -0.1306
 1790TIP3    H229566   2.496   2.138  18.427 -2.9302 -1.0975 -0.2792
 1791TIP3   OH229567   5.179   1.733  17.783  0.0347 -0.8028  0.7565
 1791TIP3    H129568   5.138   1.652  17.815  0.4516 -1.4821 -0.3841
 1791TIP3    H229569   5.130   1.803  17.826 -1.1594 -1.6379  0.8002
 1792TIP3   OH229570   4.229   0.483  16.461  0.3376 -0.5019  0.0736
 1792TIP3    H129571   4.256   0.392  16.464  0.8764 -0.3322  0.4838
 1792TIP3    H229572   4.298   0.531  16.507 -0.1362  0.0655  0.2144
 1793TIP3   OH229573   0.800   0.354  17.194  0.3604 -0.6318 -0.4049
 1793TIP3    H129574   0.889   0.368  17.225  0.1644 -2.6845  1.2353
 1793TIP3    H229575   0.805   0.373  17.100  2.3492 -0.0848 -0.2453
 1794TIP3   OH229576   6.899   2.557  19.141  0.2111 -0.1011  0.4161
 1794TIP3    H129577   6.961   2.630  19.129 -0.8779  0.5514 -1.8370
 1794TIP3    H229578   6.955   2.481  19.157  1.4628  0.8836  0.9094
 1795TIP3   OH229579   5.681   2.621  17.629  0.5004  0.0751  0.2606
 1795TIP3    H129580   5.677   2.710  17.593  1.3402  0.4943  1.1397
 1795TIP3    H229581   5.605   2.576  17.592  0.9302  0.6877 -1.4116
 1796TIP3   OH229582   0.180   2.112  18.896  0.0334  0.2526  0.0869
 1796TIP3    H129583   0.211   2.038  18.947  0.5507  0.4102  0.0052
 1796TIP3    H229584   0.230   2.108  18.814 -0.1127  0.5484 -0.0193
 1797TIP3   OH229585   3.679   1.100  19.061 -0.0427  0.2404 -0.3493
 1797TIP3    H129586   3.637   1.104  18.975  0.2570 -0.3073 -0.5268
 1797TIP3    H229587   3.663   1.011  19.092  0.6943  0.1187 -0.2820
 1798TIP3   OH229588   0.991   4.659  17.577  0.1987  0.2718  0.1649
 1798TIP3    H129589   1.055   4.601  17.619 -1.1292 -1.0037  0.5199
 1798TIP3    H229590   0.983   4.625  17.488 -0.6475 -0.1825  0.3994
 1799TIP3   OH229591   2.081   2.542  19.098 -0.1926  0.6210 -0.3088
 1799TIP3    H129592   1.995   2.535  19.140 -0.2734  0.4436 -0.5037
 1799TIP3    H229593   2.107   2.452  19.079  0.2413  0.6418  0.1608
 1800TIP3   OH229594   3.742   0.185  18.845  0.3242  0.3570  0.0190
 1800TIP3    H129595   3.753   0.254  18.780 -0.6277 -0.0789 -0.6179
 1800TIP3    H229596   3.725   0.106  18.794  0.3869 -0.1534  0.7715
 1801TIP3   OH229597   0.255   5.040  16.724  0.0424  0.3259 -0.3118
 1801TIP3    H129598   0.325   5.021  16.661  1.4581 -0.4264  1.3921
 1801TIP3    H229599   0.268   4.976  16.794  0.0106  2.5076  1.8368
 1802TIP3   OH229600   7.348   3.187  17.730  0.4254 -0.2225  0.0478
 1802TIP3    H129601   7.344   3.091  17.724 -0.9623 -0.2392  0.8321
 1802TIP3    H229602   7.272   3.211  17.783 -0.1548  1.4435 -1.4314
 1803TIP3   OH229603   4.861   1.141  18.639 -0.2651  0.4473  0.1143
 1803TIP3    H129604   4.936   1.096  18.678  0.2343  1.3082  0.1656
 1803TIP3    H229605   4.870   1.232  18.666 -0.8541  0.7329 -0.5986
 1804TIP3   OH229606   2.493   3.642  19.056 -0.3300  0.0639  0.0585
 1804TIP3    H129607   2.511   3.653  19.149  1.2903  0.5749 -0.2947
 1804TIP3    H229608   2.554   3.701  19.012 -0.0975 -1.1937 -1.3899
 1805TIP3   OH229609   3.032   5.760  19.540 -0.6715 -0.0729 -0.1348
 1805TIP3    H129610   2.937   5.772  19.539 -0.4274  2.3609 -0.8090
 1805TIP3    H229611   3.054   5.732  19.452 -0.8934 -2.6852  0.5543
 1806TIP3   OH229612   2.280   4.829  18.202 -0.3845  0.5971 -0.0860
 1806TIP3    H129613   2.301   4.799  18.114  0.2412  0.0361  0.2467
 1806TIP3    H229614   2.287   4.751  18.257 -0.4948  0.9950  0.5081
 1807TIP3   OH229615   1.883   7.548  17.398 -0.0247 -0.4509  0.4903
 1807TIP3    H129616   1.891   7.616  17.465  0.3431  1.5158 -1.4318
 1807TIP3    H229617   1.946   7.573  17.330 -0.6405 -2.1452 -0.7953
 1808TIP3   OH229618   1.494   2.407  18.410  0.0730  0.2146 -0.6002
 1808TIP3    H129619   1.441   2.329  18.396 -3.2938  1.8205  1.6564
 1808TIP3    H229620   1.497   2.417  18.505  0.3401  2.7823 -0.8122
 1809TIP3   OH229621   5.973   3.721  18.901 -0.0914  0.7239 -0.0933
 1809TIP3    H129622   5.963   3.726  18.996 -1.1253 -1.9682  0.0298
 1809TIP3    H229623   5.886   3.741  18.866 -0.2540 -0.3184 -0.3234
 1810TIP3   OH229624   0.802   6.606  16.471  0.1072  0.4226 -0.1517
 1810TIP3    H129625   0.846   6.686  16.500 -0.4349  0.4756  0.5660
 1810TIP3    H229626   0.836   6.589  16.384  0.3797  1.3259 -0.2263
 1811TIP3   OH229627   3.944   2.685  19.160  0.0056 -0.3518 -0.0482
 1811TIP3    H129628   3.905   2.705  19.075 -0.2416 -0.5791  0.0108
 1811TIP3    H229629   3.883   2.720  19.224  1.3428  2.0204  0.0538
 1812TIP3   OH229630   6.432   0.602  18.718  0.3208  0.0020 -0.0237
 1812TIP3    H129631   6.498   0.654  18.672 -0.0323  0.4171 -0.0688
 1812TIP3    H229632   6.394   0.663  18.781  0.6958 -0.5229  0.7201
 1813TIP3   OH229633   3.133   4.273  18.716 -0.6917  0.0060 -0.2217
 1813TIP3    H129634   3.065   4.324  18.761 -0.7409 -0.5691  0.3810
 1813TIP3    H229635   3.106   4.182  18.730 -0.3067 -0.1953 -0.8052
 1814TIP3   OH229636   4.251   5.130  18.675 -0.6279  0.1248 -0.5164
 1814TIP3    H129637   4.161   5.113  18.703 -0.5625  0.2347 -0.2291
 1814TIP3    H229638   4.241   5.180  18.593 -0.8369  0.4943 -0.2733
 1815TIP3   OH229639   0.607   2.492  17.905  0.0914 -0.0596  0.4049
 1815TIP3    H129640   0.668   2.554  17.946  1.6577 -1.1862 -0.1471
 1815TIP3    H229641   0.653   2.408  17.906 -1.3954 -0.9223 -0.1944
 1816TIP3   OH229642   1.005   2.446  17.800 -0.6307 -0.2072  0.0735
 1816TIP3    H129643   0.956   2.518  17.760  0.4606  0.3467 -0.2935
 1816TIP3    H229644   1.044   2.399  17.726 -2.6595 -2.2340  0.1656
 1817TIP3   OH229645   0.945   4.116  17.637 -0.0666 -0.1908 -1.0981
 1817TIP3    H129646   0.993   4.191  17.674 -0.1694 -0.4273 -0.4749
 1817TIP3    H229647   0.962   4.044  17.698 -2.2414  0.0296 -0.1552
 1818TIP3   OH229648   6.671   6.809  19.035 -0.2813 -0.0507 -0.6470
 1818TIP3    H129649   6.613   6.840  19.105 -0.9539  0.0572 -1.2426
 1818TIP3    H229650   6.612   6.765  18.974  0.4578 -1.1908 -0.5602
 1819TIP3   OH229651   3.226   1.658  18.613  0.0470  0.2924 -0.2948
 1819TIP3    H129652   3.267   1.638  18.696  0.7796 -0.4773 -0.8316
 1819TIP3    H229653   3.279   1.728  18.576 -0.0817  0.4026 -0.2749
 1820TIP3   OH229654   4.344   3.410  16.303  0.2063  0.2552 -0.2767
 1820TIP3    H129655   4.322   3.366  16.220 -0.2472  1.3552 -0.7524
 1820TIP3    H229656   4.351   3.338  16.366  1.8215 -0.7481 -1.5089
 1821TIP3   OH229657   4.270   0.328  17.495 -0.2474 -0.3194 -0.5621
 1821TIP3    H129658   4.332   0.400  17.481 -0.6703 -0.2032 -2.0303
 1821TIP3    H229659   4.303   0.257  17.440 -0.4934 -0.8444 -0.0450
 1822TIP3   OH229660   4.061   2.309  17.688  0.4132 -0.4632 -0.3822
 1822TIP3    H129661   4.112   2.277  17.763 -0.0295  1.2085  0.6805
 1822TIP3    H229662   3.975   2.270  17.700  0.3053 -0.0964  0.0775
 1823TIP3   OH229663   1.891   0.143  17.816  0.3933 -0.4561 -0.0927
 1823TIP3    H129664   1.824   0.076  17.806  0.4014 -0.2663 -1.8029
 1823TIP3    H229665   1.870   0.208  17.748  0.1320  1.5278  1.7624
 1824TIP3   OH229666   0.543   1.013  18.573  0.4319  0.2582  0.0168
 1824TIP3    H129667   0.592   1.027  18.493  0.1654  0.4224 -0.1230
 1824TIP3    H229668   0.569   1.086  18.630 -0.7066  1.1871 -0.5840
 1825TIP3   OH229669   4.740   4.459  19.489  0.4453  0.2949  0.2094
 1825TIP3    H129670   4.816   4.414  19.526  0.8502  0.9993  0.2335
 1825TIP3    H229671   4.755   4.457  19.395  0.5040  0.4708  0.2171
 1826TIP3   OH229672   3.323   0.463  18.810 -0.4908 -0.5047 -0.3318
 1826TIP3    H129673   3.414   0.478  18.783 -0.5594  0.1098 -0.2310
 1826TIP3    H229674   3.275   0.537  18.774 -0.9204 -0.7193 -0.2018
 1827TIP3   OH229675   6.961   2.521  17.230 -0.4170 -0.2890  0.0160
 1827TIP3    H129676   7.005   2.436  17.231 -1.7281 -0.9897  0.6864
 1827TIP3    H229677   6.970   2.552  17.140 -1.0176 -1.7463 -0.5756
 1828TIP3   OH229678   2.329   0.303  18.111  0.1167 -0.0000 -0.2840
 1828TIP3    H129679   2.255   0.298  18.171 -1.3883  0.6125 -1.9871
 1828TIP3    H229680   2.399   0.345  18.161 -0.7789 -0.2854  1.2628
 1829TIP3   OH229681   0.626   3.343  17.213  0.5502 -0.5820  0.3115
 1829TIP3    H129682   0.604   3.257  17.249 -1.1874 -0.6591 -0.8224
 1829TIP3    H229683   0.623   3.332  17.118 -0.6675  0.9280  0.1239
 1830TIP3   OH229684   4.065   4.146  19.058 -0.7315 -0.3380 -0.4292
 1830TIP3    H129685   4.078   4.076  18.994  1.8596 -1.1001  0.7975
 1830TIP3    H229686   4.145   4.146  19.111 -1.8381  1.6949  1.4340
 1831TIP3   OH229687   4.848   3.583  16.791  0.1959  0.0949 -0.1750
 1831TIP3    H129688   4.855   3.488  16.781  0.2445 -0.1627  1.8403
 1831TIP3    H229689   4.938   3.614  16.782  0.1113  0.0436 -1.3853
 1832TIP3   OH229690   0.037   6.053  17.208  0.1089 -0.5371  0.5606
 1832TIP3    H129691  -0.005   5.973  17.175 -0.2971 -0.2910  0.4865
 1832TIP3    H229692  -0.031   6.119  17.206  0.9468  0.3261 -1.2567
 1833TIP3   OH229693   1.277   3.765  18.982  0.6576  0.0121  0.4203
 1833TIP3    H129694   1.305   3.810  18.903 -1.0468 -0.4967 -0.5174
 1833TIP3    H229695   1.302   3.674  18.969  1.2800  0.1067  0.9227
 1834TIP3   OH229696   5.161   2.819  19.014  0.0472  0.8093 -0.0086
 1834TIP3    H129697   5.159   2.734  18.969 -0.1545  0.7711  0.0715
 1834TIP3    H229698   5.072   2.853  19.005  0.5132  1.7737 -1.4857
 1835TIP3   OH229699   3.262   1.121  17.781 -0.3571  0.2636  0.2981
 1835TIP3    H129700   3.172   1.088  17.770 -1.6158  3.6354 -0.9633
 1835TIP3    H229701   3.312   1.077  17.712 -1.2179 -1.0038  0.4413
 1836TIP3   OH229702   1.212   3.362  17.245  0.5101  0.2706  0.3596
 1836TIP3    H129703   1.127   3.400  17.264  0.0952 -0.3288 -0.2573
 1836TIP3    H229704   1.254   3.427  17.188  0.1302  0.1835 -0.0243
 1837TIP3   OH229705   3.528   3.093  18.644  0.4203  0.4694  0.0048
 1837TIP3    H129706   3.522   3.001  18.669  2.5358  0.4566  0.6738
 1837TIP3    H229707   3.458   3.105  18.580  0.7828 -1.8873 -0.9346
 1838TIP3   OH229708   4.038   1.382  19.126 -0.5143 -0.1995 -0.0189
 1838TIP3    H129709   3.946   1.363  19.143 -0.1317 -0.2552  2.3646
 1838TIP3    H229710   4.086   1.323  19.185  1.0910 -0.6761 -1.7125
 1839TIP3   OH229711   0.110   6.707  16.813  0.1340  0.2436 -0.2181
 1839TIP3    H129712   0.183   6.701  16.751 -0.7702 -1.5592 -1.1568
 1839TIP3    H229713   0.110   6.623  16.859  0.3686  1.2942  1.8218
 1840TIP3   OH229714   3.748   2.424  18.181  0.2212  0.1167  0.6494
 1840TIP3    H129715   3.723   2.349  18.126 -1.9590  0.9895  0.3388
 1840TIP3    H229716   3.687   2.421  18.254  1.6494  0.2642  1.8838
 1841TIP3   OH229717   6.971   4.778  18.975  0.5481 -0.7905  0.5391
 1841TIP3    H129718   6.890   4.805  19.019  0.4791 -0.0530 -0.0106
 1841TIP3    H229719   6.973   4.683  18.983 -1.4817 -1.0760 -1.2918
 1842TIP3   OH229720   2.034   4.393  17.708 -0.0790  0.0652 -1.0567
 1842TIP3    H129721   2.051   4.448  17.632  1.1718  1.2272 -0.0007
 1842TIP3    H229722   2.094   4.319  17.698  2.7327  1.9323  0.4189
 1843TIP3   OH229723   5.267   4.152  18.444  0.4893 -0.1875  0.1972
 1843TIP3    H129724   5.172   4.143  18.445  0.4125  0.5515  1.2196
 1843TIP3    H229725   5.296   4.093  18.375 -0.6840 -0.6932  0.1143
 1844TIP3   OH229726   6.773   2.844  18.702  0.5515 -0.1246 -0.2230
 1844TIP3    H129727   6.831   2.834  18.625 -0.7570  1.1887 -1.4502
 1844TIP3    H229728   6.712   2.771  18.695  1.1589 -0.6903  0.2653
 1845TIP3   OH229729   6.777   7.413  18.886  0.1027 -0.2399 -0.1358
 1845TIP3    H129730   6.823   7.497  18.887 -2.0412  1.0205 -1.1477
 1845TIP3    H229731   6.743   7.403  18.975  0.0109  0.1941 -0.1206
 1846TIP3   OH229732   7.150   4.844  17.953 -0.1110 -0.0575 -0.4950
 1846TIP3    H129733   7.184   4.771  17.901  0.8453 -0.8676  1.1979
 1846TIP3    H229734   7.055   4.839  17.943 -0.1467 -2.2681  0.4955
 1847TIP3   OH229735   6.641   0.774  18.574 -0.3914  0.1720 -0.6065
 1847TIP3    H129736   6.578   0.834  18.613 -0.3513  0.6444 -1.2490
 1847TIP3    H229737   6.726   0.816  18.586 -0.2481 -0.2184 -0.2052
 1848TIP3   OH229738   7.540   0.269  18.517 -0.2170 -0.1573  0.2259
 1848TIP3    H129739   7.534   0.285  18.422 -0.1211 -3.6540 -0.5034
 1848TIP3    H229740   7.451   0.247  18.543  0.2152 -2.0517  0.2530
 1849TIP3   OH229741   4.228   2.343  19.418 -0.2086 -0.7555 -0.2875
 1849TIP3    H129742   4.295   2.412  19.417  0.9407 -1.8172  0.0949
 1849TIP3    H229743   4.205   2.335  19.511 -1.6294  0.2661 -0.5129
 1850TIP3   OH229744   1.838   6.512  18.966 -0.1784  0.0501  0.5736
 1850TIP3    H129745   1.903   6.460  19.014  0.1407  0.8165  0.9890
 1850TIP3    H229746   1.885   6.590  18.937 -0.4664 -0.2140 -0.6775
 1851TIP3   OH229747   1.426   3.265  18.889  0.3383 -0.0619 -0.2595
 1851TIP3    H129748   1.352   3.224  18.935 -0.5727  0.1497 -1.4618
 1851TIP3    H229749   1.484   3.192  18.867  0.0140 -0.3643 -0.1207
 1852TIP3   OH229750   4.167   0.384  17.064  0.5713 -0.5007  0.1246
 1852TIP3    H129751   4.245   0.414  17.017 -0.8586 -0.1241 -2.2024
 1852TIP3    H229752   4.118   0.465  17.083  0.5062 -0.7650  1.1467
 1853TIP3   OH229753   4.228   1.998  17.547  0.1741 -0.3234 -0.1046
 1853TIP3    H129754   4.268   1.913  17.527  0.1560 -0.1220 -1.0561
 1853TIP3    H229755   4.134   1.984  17.535  0.1624 -0.1952 -0.1669
 1854TIP3   OH229756   6.567   0.466  17.701  0.0822 -0.0333  0.0588
 1854TIP3    H129757   6.604   0.385  17.666 -0.6454 -0.6595  0.7001
 1854TIP3    H229758   6.570   0.454  17.796 -0.0293  0.6949  0.1594
 1855TIP3   OH229759   6.889   3.374  18.503  0.8678 -0.4394  0.2652
 1855TIP3    H129760   6.873   3.320  18.425  2.0514 -0.7247  0.2114
 1855TIP3    H229761   6.965   3.427  18.480  0.3736  0.4904  0.7245
 1856TIP3   OH229762   4.620   5.124  18.177  0.2779 -0.4368  0.5153
 1856TIP3    H129763   4.568   5.075  18.240  1.6817  1.0156  2.9686
 1856TIP3    H229764   4.565   5.199  18.153 -0.0363 -0.6826  0.4671
 1857TIP3   OH229765   2.835   2.968  19.009 -0.2576  0.0792  0.9074
 1857TIP3    H129766   2.788   2.920  18.941 -1.7614  3.0716 -0.3710
 1857TIP3    H229767   2.777   2.965  19.085 -0.7286  0.4926  0.5731
 1858TIP3   OH229768   3.652   7.075  17.118 -0.4472 -0.3126  0.5657
 1858TIP3    H129769   3.585   7.142  17.106 -0.0839  0.3737  2.1745
 1858TIP3    H229770   3.660   7.065  17.213  1.4595 -0.6600  0.4080
 1859TIP3   OH229771   6.489   1.029  18.350 -0.0687  0.5633 -0.3071
 1859TIP3    H129772   6.528   0.953  18.307  0.3442 -0.2568  1.4597
 1859TIP3    H229773   6.534   1.104  18.310  0.2576 -0.1533 -1.3331
 1860TIP3   OH229774   2.262   0.512  17.426 -0.7172  0.1861  0.0066
 1860TIP3    H129775   2.302   0.483  17.508  0.1581  0.4930 -0.3012
 1860TIP3    H229776   2.254   0.607  17.435 -0.4564  0.2439 -0.3254
 1861TIP3   OH229777   6.337   6.113  18.397  0.7379  0.0255 -0.5806
 1861TIP3    H129778   6.415   6.166  18.410  0.4526  0.2040  0.4888
 1861TIP3    H229779   6.365   6.024  18.416  0.4423  0.2235  0.8602
 1862TIP3   OH229780   6.538   6.893  18.020  0.0234 -0.3788 -0.5689
 1862TIP3    H129781   6.587   6.940  17.953 -0.2076  0.3018 -0.2643
 1862TIP3    H229782   6.508   6.813  17.976  0.5770 -0.3363 -1.0304
 1863TIP3   OH229783   0.449   6.581  17.860  0.2180 -0.7407  0.5818
 1863TIP3    H129784   0.369   6.584  17.912  0.1831 -1.2934  0.5624
 1863TIP3    H229785   0.434   6.644  17.789  0.3426  0.1638  1.3351
 1864TIP3   OH229786   0.366   7.338  19.056  0.3884 -0.0622 -0.5208
 1864TIP3    H129787   0.314   7.294  19.124 -1.4379  0.9478 -1.2007
 1864TIP3    H229788   0.400   7.266  19.003  1.4714 -0.8504  1.1300
 1865TIP3   OH229789   0.516   1.786  18.164 -0.3885  0.2279 -0.7954
 1865TIP3    H129790   0.429   1.748  18.161 -0.7566  1.0568 -0.8599
 1865TIP3    H229791   0.505   1.869  18.210  0.6193 -0.3108  0.5072
 1866TIP3   OH229792   0.936   3.489  18.161  0.6484 -0.0724 -0.1673
 1866TIP3    H129793   1.025   3.486  18.126  1.6603  2.2030  1.9103
 1866TIP3    H229794   0.940   3.440  18.243  0.2652  0.8200  0.4031
 1867TIP3   OH229795   2.466   6.489  16.919 -0.2420  0.6002  0.1821
 1867TIP3    H129796   2.472   6.479  16.824 -2.2955 -0.0289  0.0836
 1867TIP3    H229797   2.550   6.456  16.952 -0.4296 -1.4808 -1.2627
 1868TIP3   OH229798   3.757   0.975  17.850  0.1813  0.1142  0.0823
 1868TIP3    H129799   3.696   0.923  17.903  0.1337 -0.9601 -0.9844
 1868TIP3    H229800   3.702   1.045  17.813 -0.0204  0.2026  0.5368
 1869TIP3   OH229801   4.870   6.046  16.442  0.0756 -0.5551  0.2132
 1869TIP3    H129802   4.916   6.130  16.449 -0.6472 -0.1873  0.6868
 1869TIP3    H229803   4.940   5.981  16.430  0.6540  0.0898  0.0306
 1870TIP3   OH229804   5.907   6.907  18.732  1.3343 -0.4196  0.2506
 1870TIP3    H129805   5.999   6.919  18.755  1.3504 -0.1063  0.0255
 1870TIP3    H229806   5.859   6.935  18.810  1.4488 -1.6009  0.7787
 1871TIP3   OH229807   5.506   7.102  17.728 -0.1010 -0.1543  0.5232
 1871TIP3    H129808   5.599   7.086  17.711 -0.1063  0.3503 -0.0011
 1871TIP3    H229809   5.503   7.192  17.761 -0.5342  0.2996 -0.6970
 1872TIP3   OH229810   5.202   3.568  18.661 -0.0604  0.3578 -0.0856
 1872TIP3    H129811   5.172   3.515  18.734  0.0740  1.5785  0.8938
 1872TIP3    H229812   5.282   3.610  18.694 -0.0478  0.9905 -0.9084
 1873TIP3   OH229813   1.989   3.875  19.163 -0.6017  0.6666 -0.3278
 1873TIP3    H129814   2.063   3.925  19.128 -0.0236  1.0470  1.3187
 1873TIP3    H229815   2.004   3.785  19.135 -1.0053  1.1835 -2.3117
 1874TIP3   OH229816   6.148   7.043  16.574 -0.0841 -0.0576  0.0868
 1874TIP3    H129817   6.110   7.070  16.490 -0.5617 -0.7123  0.0882
 1874TIP3    H229818   6.153   7.124  16.625  0.1486  0.3367 -0.5445
 1875TIP3   OH229819   5.378   5.955  16.773 -0.1535  0.0592 -0.1505
 1875TIP3    H129820   5.449   6.019  16.761 -0.4264  0.2373 -0.9369
 1875TIP3    H229821   5.397   5.913  16.856 -0.2969  1.6009  0.6985
 1876TIP3   OH229822   0.756   4.451  17.603  0.0208 -0.2191 -0.4370
 1876TIP3    H129823   0.703   4.525  17.573 -0.4107 -1.3164 -2.6309
 1876TIP3    H229824   0.838   4.490  17.633 -0.1168  1.1434 -1.7317
 1877TIP3   OH229825   0.888   4.369  17.285 -0.2517  0.1359  0.2093
 1877TIP3    H129826   0.951   4.340  17.219 -0.0646 -0.4492  0.6374
 1877TIP3    H229827   0.932   4.355  17.368 -0.9558 -0.3154  0.5180
 1878TIP3   OH229828   4.204   7.653  17.590  0.2434 -0.5174 -0.2222
 1878TIP3    H129829   4.274   7.671  17.652 -0.0015 -2.4239  0.6526
 1878TIP3    H229830   4.126   7.691  17.630  0.6846  1.4456 -1.1124
 1879TIP3   OH229831   2.282   4.879  19.106 -0.0436 -0.3017  0.1037
 1879TIP3    H129832   2.254   4.970  19.112  1.8472  0.2929  0.7665
 1879TIP3    H229833   2.299   4.853  19.196  1.1523 -0.7033 -0.2159
 1880TIP3   OH229834   3.523   3.513  18.563 -0.3680 -0.5802  0.0118
 1880TIP3    H129835   3.614   3.483  18.558 -0.0194  0.2520  0.9046
 1880TIP3    H229836   3.525   3.602  18.527 -1.3078 -1.4065 -2.2500
 1881TIP3   OH229837   7.230   3.958  17.878  0.1254  0.4446 -0.3253
 1881TIP3    H129838   7.150   3.953  17.826  0.1607 -0.1794 -0.3261
 1881TIP3    H229839   7.266   4.044  17.858 -0.1951  0.4639 -0.8464
 1882TIP3   OH229840   3.326   4.659  19.903 -0.0886  0.2483  0.1375
 1882TIP3    H129841   3.295   4.654  19.993  0.1997  0.7618  0.2705
 1882TIP3    H229842   3.289   4.582  19.860 -0.9629  0.4826  0.4610
 1883TIP3   OH229843   2.810   3.627  17.018 -0.3988  0.1515  0.2076
 1883TIP3    H129844   2.870   3.635  16.944  0.2255  0.3208  0.7243
 1883TIP3    H229845   2.817   3.535  17.045  0.1388  0.3228  0.6808
 1884TIP3   OH229846   0.516   1.374  17.550 -0.2509  0.3832 -0.1713
 1884TIP3    H129847   0.456   1.300  17.546  0.3243 -0.1730  1.0807
 1884TIP3    H229848   0.580   1.356  17.481  0.0697 -0.4657  0.3362
 1885TIP3   OH229849   0.000   1.036  17.807 -0.4348  0.0345 -0.0162
 1885TIP3    H129850  -0.082   1.066  17.846 -0.1350 -0.4418  1.0285
 1885TIP3    H229851   0.022   0.957  17.857 -1.8969 -2.8469 -3.4478
 1886TIP3   OH229852   7.662   5.469  16.663 -0.0216 -0.2081  0.1046
 1886TIP3    H129853   7.751   5.497  16.686 -0.6436  2.5299 -0.4729
 1886TIP3    H229854   7.659   5.377  16.688  2.6548 -0.1261  1.0655
 1887TIP3   OH229855   6.886   3.510  18.779 -0.1056 -0.6131 -0.1708
 1887TIP3    H129856   6.891   3.467  18.693  3.2347  1.6165 -1.2624
 1887TIP3    H229857   6.935   3.452  18.837 -0.4002 -0.9943 -0.2976
 1888TIP3   OH229858   3.043   6.169  18.460  0.2245  0.5924  0.1001
 1888TIP3    H129859   3.006   6.119  18.534 -0.1007  0.1157 -0.3751
 1888TIP3    H229860   3.100   6.106  18.415 -0.7182  0.4280 -0.9056
 1889TIP3   OH229861   7.291   6.810  16.791 -0.2191  0.0397  0.4780
 1889TIP3    H129862   7.207   6.795  16.748  1.1416  0.2976 -2.6136
 1889TIP3    H229863   7.345   6.737  16.761  0.5859 -0.3670  2.7550
 1890TIP3   OH229864   4.023   0.393  18.742  0.3053  0.3079 -0.1919
 1890TIP3    H129865   3.929   0.407  18.734 -0.0383 -1.6853 -0.1635
 1890TIP3    H229866   4.040   0.313  18.691  2.0160  0.7283 -0.3534
 1891TIP3   OH229867   7.322   4.609  17.558 -0.0156  0.4765 -0.2201
 1891TIP3    H129868   7.284   4.524  17.534 -1.1054  1.1110 -0.8137
 1891TIP3    H229869   7.304   4.618  17.652 -0.4015  0.2998 -0.2760
 1892TIP3   OH229870   1.570   4.438  17.945  0.2235  0.0614 -0.4085
 1892TIP3    H129871   1.665   4.445  17.946  0.2966 -0.8848  0.3844
 1892TIP3    H229872   1.542   4.498  17.876  1.4193  0.0265 -0.9395
 1893TIP3   OH229873   7.332   1.964  17.914  0.1323 -0.8003 -0.5008
 1893TIP3    H129874   7.252   1.912  17.905 -0.6503  0.4674 -1.2996
 1893TIP3    H229875   7.393   1.908  17.962 -1.7049 -1.2880  1.4068
 1894TIP3   OH229876   4.964   6.931  17.787 -0.4571 -0.1870 -0.0930
 1894TIP3    H129877   5.005   6.908  17.703 -0.2742  1.4059 -0.4584
 1894TIP3    H229878   5.011   6.878  17.852  1.7263  1.0484 -0.5852
 1895TIP3   OH229879   3.321   0.659  18.125 -0.0562 -0.0385  0.3443
 1895TIP3    H129880   3.369   0.576  18.115 -0.5434 -0.2474 -0.3996
 1895TIP3    H229881   3.360   0.717  18.059 -1.3253 -0.4671 -0.8393
 1896TIP3   OH229882   1.686   3.935  18.361  0.3667 -0.2628  0.2966
 1896TIP3    H129883   1.620   3.981  18.310  1.2490  1.3238  0.4985
 1896TIP3    H229884   1.638   3.897  18.434 -0.6014 -0.8334 -0.6170
 1897TIP3   OH229885   1.089   6.905  17.051 -0.5885  0.1485 -0.7680
 1897TIP3    H129886   1.100   6.840  16.982 -2.1701 -2.1422  0.9610
 1897TIP3    H229887   1.051   6.856  17.124 -1.2775  2.9246  0.8960
 1898TIP3   OH229888   2.948   5.334  17.234  0.1387 -0.0726 -0.2639
 1898TIP3    H129889   2.948   5.307  17.326  1.9582 -0.3540 -0.3149
 1898TIP3    H229890   2.893   5.270  17.190  1.1199 -1.3044  0.2695
 1899TIP3   OH229891   1.844   6.770  18.188  0.3500  0.5390  0.1401
 1899TIP3    H129892   1.856   6.704  18.120  1.3404  2.5066 -1.6892
 1899TIP3    H229893   1.899   6.739  18.260  2.4615  0.3608 -1.4598
 1900TIP3   OH229894   7.435   2.293  19.140  0.2328 -0.1465  0.5667
 1900TIP3    H129895   7.509   2.236  19.116  0.3670 -0.6063  1.9853
 1900TIP3    H229896   7.463   2.381  19.113  0.6654 -0.5202 -0.2496
 1901TIP3   OH229897   4.828   5.578  18.411 -0.1603  0.3215  0.2896
 1901TIP3    H129898   4.806   5.658  18.459  1.4130 -0.2419  2.0803
 1901TIP3    H229899   4.746   5.530  18.407 -0.5990  0.9138  1.4610
 1902TIP3   OH229900   0.563   1.228  18.732 -0.4856 -0.2098 -0.3101
 1902TIP3    H129901   0.515   1.270  18.803 -1.7760  0.4802 -1.5490
 1902TIP3    H229902   0.655   1.249  18.750 -0.5468 -1.6828  2.1878
 1903TIP3   OH229903   2.617   1.988  17.987  0.3001  0.0298  0.3038
 1903TIP3    H129904   2.597   2.066  18.038 -0.7434 -0.4217  0.6147
 1903TIP3    H229905   2.552   1.988  17.916 -0.1398 -0.8926  0.6888
 1904TIP3   OH229906   0.643   5.820  17.576 -0.3253 -0.3439  0.3083
 1904TIP3    H129907   0.578   5.751  17.564 -0.9695  0.4805 -1.3293
 1904TIP3    H229908   0.641   5.839  17.670 -1.5169 -1.2293  0.4832
 1905TIP3   OH229909   4.328   0.295  19.183  0.2628 -0.5649 -0.2799
 1905TIP3    H129910   4.407   0.249  19.211  0.5673 -0.0340 -0.2512
 1905TIP3    H229911   4.291   0.329  19.265  1.3776  1.3486 -0.5128
 1906TIP3   OH229912   1.232   5.376  18.834 -0.1041 -0.0534  0.2798
 1906TIP3    H129913   1.319   5.335  18.835  1.6377  3.2256 -0.6531
 1906TIP3    H229914   1.194   5.352  18.918  2.0566 -0.9836  1.0809
 1907TIP3   OH229915   2.425   0.302  17.243 -0.1039 -0.3026  0.2817
 1907TIP3    H129916   2.392   0.240  17.179 -1.5119  1.3530 -0.6798
 1907TIP3    H229917   2.456   0.376  17.191 -2.2458  1.5526  1.4599
 1908TIP3   OH229918   4.005   4.997  18.683 -0.6354 -0.5424  0.3564
 1908TIP3    H129919   4.041   4.936  18.619 -1.2561 -1.4720  0.8647
 1908TIP3    H229920   3.946   4.944  18.737  2.3890 -0.6551  3.9270
 1909TIP3   OH229921   5.237   6.272  17.054  0.3303 -0.3143 -0.3405
 1909TIP3    H129922   5.223   6.308  17.141  1.2668  1.2675 -0.7985
 1909TIP3    H229923   5.259   6.348  17.000  0.5150 -1.3529 -1.7914
 1910TIP3   OH229924   1.829   6.832  17.105  0.1708 -0.3721  0.4819
 1910TIP3    H129925   1.837   6.897  17.175 -0.8413 -0.7382  0.9445
 1910TIP3    H229926   1.916   6.793  17.099  0.7833  0.9499  0.2598
 1911TIP3   OH229927   5.779   3.190  18.708 -0.1010 -0.3419  0.6450
 1911TIP3    H129928   5.773   3.259  18.774  0.6443  0.1954  0.1665
 1911TIP3    H229929   5.763   3.234  18.625 -0.9836 -1.0045  0.4389
 1912TIP3   OH229930   0.290   1.132  18.274  0.0657 -0.0105 -0.5966
 1912TIP3    H129931   0.287   1.124  18.179 -1.1982 -0.0859 -0.5607
 1912TIP3    H229932   0.365   1.189  18.291  0.8903 -0.7730 -1.5749
 1913TIP3   OH229933   2.042   6.058  18.689 -0.3688  0.1055  0.1268
 1913TIP3    H129934   2.053   6.002  18.767 -1.5740  0.1595  0.3427
 1913TIP3    H229935   2.006   5.999  18.622  0.0371  0.2173 -0.1957
 1914TIP3   OH229936   4.980   3.524  18.467 -0.1943 -0.0594 -0.4579
 1914TIP3    H129937   4.933   3.480  18.538  0.8001 -0.9062 -0.2918
 1914TIP3    H229938   5.069   3.534  18.501 -0.0506  0.7946 -1.0669
 1915TIP3   OH229939   5.612   3.023  19.250 -0.4061 -0.3675 -0.1457
 1915TIP3    H129940   5.557   2.947  19.267 -0.9629 -0.2109 -1.1683
 1915TIP3    H229941   5.550   3.094  19.234  0.1065  0.2317  0.4466
 1916TIP3   OH229942   2.312   7.242  17.250 -0.0893 -0.3965 -0.0124
 1916TIP3    H129943   2.252   7.174  17.221 -1.0844  0.4261  0.0867
 1916TIP3    H229944   2.272   7.279  17.328  1.2172 -0.7332  0.8619
 1917TIP3   OH229945   2.998   5.473  18.751  0.4482  0.1903 -0.2920
 1917TIP3    H129946   3.047   5.503  18.827  1.2559 -3.1439  0.6607
 1917TIP3    H229947   2.906   5.474  18.780  0.4988  1.0810 -0.1174
 1918TIP3   OH229948   6.107   3.042  16.989  0.4090 -0.6381  0.0003
 1918TIP3    H129949   6.070   3.064  17.075  1.6216  1.6770  0.0228
 1918TIP3    H229950   6.033   3.049  16.928  0.1779  1.0849  0.4250
 1919TIP3   OH229951   7.372   2.176  17.617 -0.1733  0.3915 -0.2904
 1919TIP3    H129952   7.311   2.184  17.691  0.8073 -2.2604  0.9055
 1919TIP3    H229953   7.409   2.264  17.608 -1.4817  1.1736  1.3416
 1920TIP3   OH229954   1.504   3.646  17.401 -0.3286  0.2849 -0.2081
 1920TIP3    H129955   1.457   3.719  17.360 -0.9942 -0.3965 -0.6959
 1920TIP3    H229956   1.507   3.579  17.333  1.0115  0.1595 -0.0446
 1921TIP3   OH229957   2.105   5.335  19.249  0.5893 -0.4628  0.5131
 1921TIP3    H129958   2.055   5.375  19.320 -0.3608  1.2596 -1.0427
 1921TIP3    H229959   2.188   5.382  19.249 -1.1382  3.2060 -2.4288
 1922TIP3   OH229960   2.039   1.242  17.373  0.1125 -0.0087  0.0389
 1922TIP3    H129961   2.071   1.182  17.440 -0.6270  0.4689  0.8527
 1922TIP3    H229962   2.086   1.218  17.294 -1.4691 -2.8994 -0.1562
 1923TIP3   OH229963   6.116   5.584  18.835 -0.3501 -0.1224 -0.3071
 1923TIP3    H129964   6.027   5.615  18.822 -0.5791 -0.9338 -0.7988
 1923TIP3    H229965   6.111   5.489  18.819  0.4467 -0.3003  0.4224
 1924TIP3   OH229966   3.613   0.849  17.309  0.5418 -0.2494 -0.1804
 1924TIP3    H129967   3.552   0.796  17.362 -1.3785 -1.2040 -3.1099
 1924TIP3    H229968   3.688   0.791  17.296  0.5212 -0.4431  0.4901
 1925TIP3   OH229969   6.686   0.021  17.144  0.5517  0.0174 -0.5276
 1925TIP3    H129970   6.602   0.007  17.100 -0.0521  0.4579  0.4686
 1925TIP3    H229971   6.720  -0.067  17.158  0.0167 -0.1898 -0.4946
 1926TIP3   OH229972   1.391   7.336  18.856  0.3390 -0.2069 -0.3941
 1926TIP3    H129973   1.370   7.267  18.918  0.9704 -0.5458 -0.5403
 1926TIP3    H229974   1.487   7.338  18.854  0.3700  1.6351  0.6549
 1927TIP3   OH229975   2.279   5.537  16.817 -0.5715  0.4388  0.2010
 1927TIP3    H129976   2.209   5.480  16.848 -0.8041  0.1248 -0.8813
 1927TIP3    H229977   2.359   5.485  16.829 -0.8076 -0.2234 -1.0086
 1928TIP3   OH229978   7.389   3.125  17.338 -0.0929  0.1154 -0.3286
 1928TIP3    H129979   7.316   3.108  17.398  1.1175 -1.3111  0.8186
 1928TIP3    H229980   7.462   3.078  17.376  1.6000  1.9349 -1.1582
 1929TIP3   OH229981   3.653   6.306  18.162 -0.1883  0.0421 -0.2344
 1929TIP3    H129982   3.685   6.256  18.237  2.0372  1.0867 -0.4193
 1929TIP3    H229983   3.641   6.240  18.093 -2.1307 -0.9094  0.9122
 1930TIP3   OH229984   3.012   5.747  18.079 -0.3158 -0.1850 -0.2274
 1930TIP3    H129985   2.980   5.806  18.011 -1.2198  0.4447  0.7021
 1930TIP3    H229986   2.967   5.664  18.063 -1.0304  0.1568 -0.0214
 1931TIP3   OH229987   5.345   3.658  18.409  0.5421  0.2621 -0.4606
 1931TIP3    H129988   5.277   3.689  18.349 -0.1175 -1.3237 -0.5679
 1931TIP3    H229989   5.300   3.638  18.490  1.2912  1.4911  0.2957
 1932TIP3   OH229990   6.036   4.754  18.452 -0.4906  0.5806  0.1023
 1932TIP3    H129991   5.954   4.727  18.494 -1.5029  2.3767 -0.5913
 1932TIP3    H229992   6.020   4.741  18.358  0.4947 -0.2086  0.0304
 1933TIP3   OH229993   7.326   3.631  16.768 -0.0895  0.2712  0.1096
 1933TIP3    H129994   7.338   3.536  16.769 -2.2043 -0.0950 -1.4664
 1933TIP3    H229995   7.402   3.664  16.719  0.7777 -0.5560  0.8582
 1934TIP3   OH229996   2.739   4.318  18.152 -0.1510 -0.3682  0.0904
 1934TIP3    H129997   2.812   4.285  18.205  0.6142  0.4071 -0.4634
 1934TIP3    H229998   2.780   4.366  18.080 -1.1962  1.6480  0.7510
 1935TIP3   OH229999   0.345   7.561  17.239 -0.3634  0.3093  0.3806
 1935TIP3    H130000   0.324   7.489  17.180 -1.2013 -0.2562  1.3353
 1935TIP3    H230001   0.306   7.638  17.199 -0.2651  0.0703 -0.1792
 1936TIP3   OH230002   5.670   3.759  17.805  0.5712  0.4630 -0.3182
 1936TIP3    H130003   5.740   3.731  17.864  0.7107  0.1063 -0.6515
 1936TIP3    H230004   5.593   3.711  17.834  0.4477  0.8963  0.0840
 1937TIP3   OH230005   6.096   6.759  18.346 -0.0991 -0.2454  0.5753
 1937TIP3    H130006   6.161   6.722  18.406 -0.6263 -1.4569  0.4406
 1937TIP3    H230007   6.014   6.714  18.369 -0.8432  1.0623  0.5761
 1938TIP3   OH230008   6.138   3.223  18.846  0.0500 -0.0168  0.5320
 1938TIP3    H130009   6.203   3.229  18.917  0.2606  1.6032  0.2356
 1938TIP3    H230010   6.054   3.228  18.890  0.1813  1.8314  0.6594
 1939TIP3   OH230011   0.610   3.170  17.647  0.0240 -0.0713  0.2379
 1939TIP3    H130012   0.543   3.237  17.636  0.2074 -0.0080 -0.6090
 1939TIP3    H230013   0.568   3.101  17.698 -1.3390 -0.8986 -1.8364
 1940TIP3   OH230014   5.078   2.959  18.003 -0.1452 -0.4627 -0.2297
 1940TIP3    H130015   5.045   3.014  17.933  0.4256  0.3013  0.0768
 1940TIP3    H230016   5.124   3.020  18.061 -0.2985 -1.1299  0.6129
 1941TIP3   OH230017   0.739   4.477  17.891 -0.0442  0.0671 -0.1101
 1941TIP3    H130018   0.826   4.441  17.906 -0.2708 -0.9554 -1.1087
 1941TIP3    H230019   0.722   4.462  17.797 -1.1223  0.6206 -0.0236
 1942TIP3   OH230020   6.203   2.931  18.797 -0.6657 -0.2346 -0.6252
 1942TIP3    H130021   6.193   2.873  18.873  0.0834  0.0439 -0.3025
 1942TIP3    H230022   6.186   3.018  18.832  1.8736  0.1650 -0.2365
 1943TIP3   OH230023   2.958   0.405  17.611 -0.3788 -0.1350  0.0482
 1943TIP3    H130024   3.020   0.476  17.594 -2.0472  1.3440 -0.1162
 1943TIP3    H230025   2.886   0.447  17.657 -1.0963 -1.8870  0.5816
 1944TIP3   OH230026   4.522   4.005  18.640 -0.0232 -0.4760 -0.1352
 1944TIP3    H130027   4.485   4.042  18.560 -1.1707  1.0468  1.0399
 1944TIP3    H230028   4.449   4.002  18.701  1.5802  2.0365  2.0820
 1945TIP3   OH230029   0.097   4.025  17.122  0.2925  0.1321 -0.5131
 1945TIP3    H130030   0.180   3.985  17.145  0.8880  1.3853 -0.4029
 1945TIP3    H230031   0.035   3.994  17.188  0.9883  0.2707  0.2108
 1946TIP3   OH230032   6.234   2.119  17.794  0.6208 -0.3473  0.2249
 1946TIP3    H130033   6.202   2.209  17.801  1.0460 -0.1091 -0.8201
 1946TIP3    H230034   6.323   2.127  17.760  0.0677 -1.2290 -1.5464
 1947TIP3   OH230035   2.126   6.347  17.627 -0.0268  0.0806 -0.7009
 1947TIP3    H130036   2.211   6.352  17.671 -0.9091 -0.2340  1.1163
 1947TIP3    H230037   2.123   6.259  17.590  0.2869 -0.0318 -0.4652
 1948TIP3   OH230038   2.982   4.492  17.639  0.6684  0.6660  0.0799
 1948TIP3    H130039   2.998   4.570  17.585  0.9935  1.5557  1.4126
 1948TIP3    H230040   2.960   4.527  17.725  2.6304 -0.7119  1.2155
 1949TIP3   OH230041   5.911   2.803  17.751 -0.9436 -0.1129 -0.2118
 1949TIP3    H130042   5.861   2.721  17.752 -2.5297  0.8201  0.6919
 1949TIP3    H230043   5.964   2.799  17.830 -0.4841 -0.5642 -0.5351
 1950TIP3   OH230044   0.950   3.020  18.113 -0.3507  0.4524 -0.4072
 1950TIP3    H130045   0.993   2.934  18.114 -1.1372  0.0488  0.7589
 1950TIP3    H230046   0.870   3.006  18.063 -0.9414  0.2499  0.5678
 1951TIP3   OH230047   4.237   5.917  16.885 -0.3270 -0.3946 -0.6376
 1951TIP3    H130048   4.319   5.888  16.847  1.6215  0.4416  2.5185
 1951TIP3    H230049   4.224   6.005  16.851 -0.8491 -1.1263 -2.4142
 1952TIP3   OH230050   3.033   1.396  17.716 -0.3596 -0.5902  0.2753
 1952TIP3    H130051   3.109   1.371  17.769 -0.1815  1.2094  0.9519
 1952TIP3    H230052   2.957   1.365  17.766 -0.1310 -0.3325  0.7976
 1953TIP3   OH230053   0.540   2.747  17.445  0.3001  0.2480 -0.1864
 1953TIP3    H130054   0.636   2.749  17.445  0.3439 -0.2818 -1.5518
 1953TIP3    H230055   0.515   2.797  17.522  1.6796  0.2228  0.3113
 1954TIP3   OH230056   0.699   3.353  18.094  0.2701 -0.2210  0.2472
 1954TIP3    H130057   0.704   3.259  18.073 -1.8209 -0.4876  0.7106
 1954TIP3    H230058   0.789   3.384  18.087  0.9490 -2.1749 -0.3380
 1955TIP3   OH230059   2.064   7.275  19.030  0.0422  0.7792 -0.0715
 1955TIP3    H130060   2.039   7.359  19.070 -1.3070 -0.0845  1.0197
 1955TIP3    H230061   2.088   7.220  19.105  0.7142  0.1191 -0.7571
 1956TIP3   OH230062   0.298   2.062  17.836  0.4318 -0.2589 -0.2933
 1956TIP3    H130063   0.257   2.080  17.751  2.2553 -0.5091 -1.2754
 1956TIP3    H230064   0.286   1.968  17.849 -0.1562 -0.1593 -0.0988
 1957TIP3   OH230065   1.694   0.969  17.834  0.1148 -0.1568 -0.3285
 1957TIP3    H130066   1.705   0.982  17.928 -1.0976  1.5077 -0.3750
 1957TIP3    H230067   1.768   1.015  17.794 -0.8980  1.5874 -0.2626
 1958TIP3   OH230068   0.472   0.918  18.908  0.3004  0.0543 -0.5573
 1958TIP3    H130069   0.455   0.836  18.955  0.7292  0.6210  0.6135
 1958TIP3    H230070   0.385   0.954  18.892  0.1231 -0.4530 -0.7594
 1959TIP3   OH230071   2.958   1.324  19.307 -0.0114  0.2159  0.3127
 1959TIP3    H130072   3.005   1.289  19.383  0.9641 -0.4413 -0.5514
 1959TIP3    H230073   3.021   1.384  19.266  0.6462 -1.6459 -1.5850
 1960TIP3   OH230074   5.894   4.242  18.719 -0.3159  0.3477  0.1217
 1960TIP3    H130075   5.913   4.229  18.626  0.2447 -2.2827  0.5071
 1960TIP3    H230076   5.804   4.210  18.729  0.4231 -1.6462  0.8173
 1961TIP3   OH230077   5.483   3.794  17.453 -0.2143 -0.2245 -0.4826
 1961TIP3    H130078   5.550   3.847  17.495 -0.3153  0.1479 -0.7874
 1961TIP3    H230079   5.516   3.778  17.365 -0.2978 -0.4557 -0.4734
 1962TIP3   OH230080   2.100   5.498  16.571 -0.3495 -0.2815  0.1747
 1962TIP3    H130081   2.157   5.446  16.627 -0.3917  0.9644  1.4580
 1962TIP3    H230082   2.134   5.486  16.483  0.4832 -1.3428  0.6274
 1963TIP3   OH230083   1.899   5.439  17.628  0.1805  0.4082 -0.1698
 1963TIP3    H130084   1.824   5.475  17.676  1.7564  2.0696  1.2135
 1963TIP3    H230085   1.921   5.359  17.675 -0.2613  0.3207 -0.1084
 1964TIP3   OH230086   7.483   3.924  17.358 -0.4575  0.1851 -0.7819
 1964TIP3    H130087   7.486   3.914  17.263  0.6150  0.2784 -0.7670
 1964TIP3    H230088   7.390   3.933  17.378 -0.8360 -1.4172 -1.6532
 1965TIP3   OH230089   2.329   1.398  18.974 -0.1425 -0.2205  0.6762
 1965TIP3    H130090   2.301   1.313  19.009  0.7485 -1.1205 -0.7066
 1965TIP3    H230091   2.360   1.379  18.886 -1.5734  1.8288 -0.3743
 1966TIP3   OH230092   3.403   0.564  17.723  0.2282 -0.5096  0.0632
 1966TIP3    H130093   3.467   0.531  17.660 -0.6816 -0.2327 -1.0458
 1966TIP3    H230094   3.455   0.608  17.790  1.1906  0.3930 -1.2237
 1967TIP3   OH230095   6.923   3.069  17.949 -0.4471  0.0703 -0.1630
 1967TIP3    H130096   6.898   3.039  18.036  0.3059  0.8535  0.3420
 1967TIP3    H230097   6.858   3.136  17.928 -0.4926  0.0501 -0.0889
 1968TIP3   OH230098   3.658   4.391  18.809  0.1877 -0.3325  0.5314
 1968TIP3    H130099   3.645   4.329  18.881 -0.5406 -0.5527  0.2161
 1968TIP3    H230100   3.580   4.445  18.809  0.5043  0.1296  0.3526
 1969TIP3   OH230101   3.053   5.070  16.820  0.2177  0.0557 -0.0608
 1969TIP3    H130102   2.984   5.015  16.781  0.9504 -0.3743 -0.7876
 1969TIP3    H230103   3.126   5.010  16.835  0.4432  0.5058  0.7128
 1970TIP3   OH230104   0.471   5.372  18.572  0.1289  0.0611 -0.2482
 1970TIP3    H130105   0.555   5.417  18.572  1.6986 -2.6031 -2.6102
 1970TIP3    H230106   0.468   5.326  18.656  0.4540  1.0565  0.3302
 1971TIP3   OH230107   7.066   1.288  17.732 -0.9554 -0.5057 -0.2215
 1971TIP3    H130108   6.998   1.342  17.690 -0.2888  0.8475  0.3777
 1971TIP3    H230109   7.046   1.199  17.704 -3.7414 -0.3387  0.9624
 1972TIP3   OH230110   4.928   1.379  18.987  1.0840  0.2182 -0.5734
 1972TIP3    H130111   4.888   1.391  18.900 -0.2821  1.0900  0.1395
 1972TIP3    H230112   4.960   1.288  18.986 -2.1383 -1.0534 -0.7808
 1973TIP3   OH230113   5.434   3.899  18.511  0.0639  0.2333 -0.0829
 1973TIP3    H130114   5.400   3.826  18.459 -0.1069 -0.0167  0.3773
 1973TIP3    H230115   5.356   3.952  18.531  0.3235  1.1624 -1.3557
 1974TIP3   OH230116   4.272   6.542  18.506  0.7352 -0.7438 -0.2780
 1974TIP3    H130117   4.327   6.478  18.461  0.7894 -0.2662 -0.9032
 1974TIP3    H230118   4.321   6.564  18.586  0.2514 -2.2126  0.4560
 1975TIP3   OH230119   4.805   7.428  17.855 -0.1346 -0.2402 -0.1465
 1975TIP3    H130120   4.778   7.346  17.814 -0.6756 -0.8102  1.2825
 1975TIP3    H230121   4.871   7.402  17.919 -0.0808  0.4873  0.0992
 1976TIP3   OH230122   4.325   6.945  17.496 -0.0663 -0.3947  0.6891
 1976TIP3    H130123   4.397   6.882  17.498  0.5472  0.3220  1.3917
 1976TIP3    H230124   4.280   6.926  17.413  2.2445  0.6066 -0.9173
 1977TIP3   OH230125   4.769   0.877  18.081  0.6704  0.2406  0.3904
 1977TIP3    H130126   4.710   0.891  18.007  1.1883  0.1036 -0.0590
 1977TIP3    H230127   4.850   0.923  18.057  1.0568 -0.3097  0.5897
 1978TIP3   OH230128   6.308   7.610  17.876  0.4486  0.5074  0.0362
 1978TIP3    H130129   6.245   7.556  17.924  1.4135 -1.0161 -0.3510
 1978TIP3    H230130   6.259   7.690  17.855 -0.9085 -0.0380  0.9404
 1979TIP3   OH230131   3.303   4.352  19.284  0.1691 -0.0630  1.1281
 1979TIP3    H130132   3.381   4.347  19.229  0.5512  1.6340  1.4569
 1979TIP3    H230133   3.269   4.263  19.286  1.3976 -0.5899 -0.0341
 1980TIP3   OH230134   3.564   0.353  18.557  0.1949 -0.4659 -0.0002
 1980TIP3    H130135   3.491   0.293  18.542 -0.5788  0.6195 -0.7210
 1980TIP3    H230136   3.533   0.437  18.524  1.7919  0.0095 -0.3700
 1981TIP3   OH230137   3.363   1.769  19.047 -0.2267  0.0180  0.0648
 1981TIP3    H130138   3.342   1.677  19.031  0.4827 -0.4133  1.3761
 1981TIP3    H230139   3.433   1.789  18.985  0.2406 -0.6166  0.3702
 1982TIP3   OH230140   4.627   3.246  17.509 -0.3560 -0.9321  0.0624
 1982TIP3    H130141   4.589   3.272  17.594 -0.2314  0.5018 -0.3006
 1982TIP3    H230142   4.652   3.328  17.468  0.7842 -1.6987 -0.8293
 1983TIP3   OH230143   2.340   3.714  19.343  0.2384  0.3144 -0.5442
 1983TIP3    H130144   2.275   3.684  19.279 -0.1359  1.1709 -0.5759
 1983TIP3    H230145   2.302   3.793  19.381  1.5690  1.2385 -1.0553
 1984TIP3   OH230146   7.662   2.762  17.108 -0.6502 -0.1214  0.1000
 1984TIP3    H130147   7.653   2.836  17.047  1.6323 -0.5846 -0.9011
 1984TIP3    H230148   7.631   2.797  17.192 -0.2068  1.8114 -0.4723
 1985TIP3   OH230149   2.696   6.672  17.636 -0.2308  0.0756 -0.5177
 1985TIP3    H130150   2.645   6.718  17.702  0.6716  0.1587  0.1337
 1985TIP3    H230151   2.706   6.735  17.565  0.8313  0.8357  0.2835
 1986TIP3   OH230152   2.253   0.638  18.221 -0.4710  0.4450  0.0718
 1986TIP3    H130153   2.283   0.725  18.197  1.2554 -0.1523 -0.0354
 1986TIP3    H230154   2.332   0.585  18.224 -0.9020 -0.2901  3.8665
 1987TIP3   OH230155   7.274   2.965  19.063  0.0652  0.1381 -0.2542
 1987TIP3    H130156   7.231   3.050  19.067 -0.8577 -0.3643  2.3256
 1987TIP3    H230157   7.207   2.903  19.092  1.3056 -1.2124 -0.1519
 1988TIP3   OH230158   0.092   2.528  17.084 -0.2830 -0.0306 -0.1642
 1988TIP3    H130159   0.085   2.622  17.101 -1.9544 -0.5127  2.5053
 1988TIP3    H230160   0.074   2.488  17.169 -0.3948 -2.7906 -1.4044
 1989TIP3   OH230161   1.255   2.372  19.157  0.0073  0.6985  0.2637
 1989TIP3    H130162   1.334   2.355  19.209  0.0064  0.2236  0.1125
 1989TIP3    H230163   1.287   2.397  19.071 -0.0010  0.6137  0.2345
 1990TIP3   OH230164   3.415   5.606  18.817 -0.2799 -0.5983  0.1094
 1990TIP3    H130165   3.486   5.661  18.784 -0.2418 -0.5689  0.2378
 1990TIP3    H230166   3.386   5.651  18.897  1.5830 -2.1991  1.7990
 1991TIP3   OH230167   7.223   7.461  18.333  0.3182  0.4828  0.3691
 1991TIP3    H130168   7.163   7.526  18.296  1.0555  0.6249 -0.6408
 1991TIP3    H230169   7.189   7.443  18.420 -0.5652  1.3622  0.2231
 1992TIP3   OH230170   0.199   2.779  18.380 -0.8846 -0.3799 -0.0336
 1992TIP3    H130171   0.180   2.741  18.295  0.0494  0.1627 -0.5008
 1992TIP3    H230172   0.155   2.864  18.380 -1.9771 -0.9185  0.5529
 1993TIP3   OH230173   6.645   3.566  18.033 -0.2957 -0.4157 -0.1451
 1993TIP3    H130174   6.674   3.561  18.124  0.7943 -2.0347 -0.5364
 1993TIP3    H230175   6.552   3.541  18.037 -0.3437 -0.1618  0.5457
 1994TIP3   OH230176   3.637   1.563  18.698 -0.5867  0.5512 -0.0087
 1994TIP3    H130177   3.645   1.488  18.756 -2.3570 -0.1524 -0.6014
 1994TIP3    H230178   3.724   1.604  18.699 -0.3488  0.1237  2.4720
 1995TIP3   OH230179   1.536   5.654  17.143 -0.1361  0.0756  0.4230
 1995TIP3    H130180   1.480   5.635  17.218  0.7337 -1.9929  0.6251
 1995TIP3    H230181   1.477   5.690  17.077 -1.7210 -1.8815  0.6794
 1996TIP3   OH230182   1.062   5.805  19.191 -0.1976  0.0232  0.0138
 1996TIP3    H130183   1.097   5.775  19.108 -1.2222  0.7108 -0.6928
 1996TIP3    H230184   1.111   5.884  19.212 -0.2286  0.0822 -0.1420
 1997TIP3   OH230185   0.794   6.947  17.290 -0.1327  0.1422 -0.1536
 1997TIP3    H130186   0.787   6.855  17.265  0.1632 -0.4974  1.9117
 1997TIP3    H230187   0.703   6.978  17.294 -0.3783 -0.6670  1.1134
 1998TIP3   OH230188   0.941   7.405  18.255 -0.1390 -0.3201  0.3296
 1998TIP3    H130189   0.952   7.321  18.209 -0.4440 -0.6608  0.8680
 1998TIP3    H230190   0.866   7.391  18.312 -1.5262  0.9939 -1.0870
 1999TIP3   OH230191   6.815   5.943  18.488 -1.0468  0.2980  0.6298
 1999TIP3    H130192   6.830   5.989  18.405  0.8211  0.5270  1.0597
 1999TIP3    H230193   6.785   5.856  18.461  2.3429 -0.6907 -0.4929
 2000TIP3   OH230194   7.238   3.217  18.808  0.5670  0.0976  0.2673
 2000TIP3    H130195   7.241   3.145  18.745 -0.6041  0.7037 -0.5299
 2000TIP3    H230196   7.146   3.245  18.807  0.6365  0.4635  1.8763
 2001TIP3   OH230197   1.516   3.116  18.155  0.2016 -0.1508 -0.6436
 2001TIP3    H130198   1.580   3.158  18.097  2.5453 -1.2393  0.9738
 2001TIP3    H230199   1.560   3.112  18.240 -2.2242 -0.6338  0.6817
 2002TIP3   OH230200   6.121   7.370  16.967 -0.2358 -0.2940 -0.0316
 2002TIP3    H130201   6.167   7.454  16.979 -0.4626 -0.0643 -0.7174
 2002TIP3    H230202   6.028   7.394  16.962 -0.4167 -0.7198  0.9973
 2003TIP3   OH230203   1.964   0.868  16.944  0.0809  0.1368  0.0315
 2003TIP3    H130204   1.925   0.835  16.863  1.8858  0.2572 -0.9452
 2003TIP3    H230205   2.058   0.867  16.927  0.4860  0.5354  2.0077
 2004TIP3   OH230206   2.710   5.845  16.710  0.5619  0.7633  0.0855
 2004TIP3    H130207   2.765   5.770  16.689 -0.8487  0.4725 -3.2190
 2004TIP3    H230208   2.755   5.920  16.671  0.4121  1.1337  0.6078
 2005TIP3   OH230209   7.086   4.449  17.392  0.3417 -0.0472  0.3674
 2005TIP3    H130210   7.076   4.529  17.339  1.2153  0.1838  0.5314
 2005TIP3    H230211   7.001   4.437  17.434 -0.2044  0.0562 -0.6904
 2006TIP3   OH230212   1.627   0.342  17.856 -0.6220 -0.3533  0.1912
 2006TIP3    H130213   1.636   0.407  17.786  0.2700 -0.4288  0.2279
 2006TIP3    H230214   1.583   0.390  17.927  0.8127  0.4967  0.5546
 2007TIP3   OH230215   2.399   5.104  17.824 -0.2049 -0.1668 -0.2152
 2007TIP3    H130216   2.307   5.105  17.848 -0.2005 -0.5851 -0.1851
 2007TIP3    H230217   2.432   5.190  17.852 -0.5383 -0.0896 -0.0597
 2008TIP3   OH230218   1.297   0.899  17.290  0.5980  0.0434  0.0768
 2008TIP3    H130219   1.370   0.958  17.274  1.2455 -0.5645  0.7351
 2008TIP3    H230220   1.237   0.915  17.217 -0.1392  2.8299  1.1389
 2009TIP3   OH230221   0.121   5.152  18.832 -0.2715 -0.1070 -0.2719
 2009TIP3    H130222   0.116   5.236  18.788 -0.7076  0.6956  1.2349
 2009TIP3    H230223   0.036   5.142  18.876 -0.4707 -1.6356 -0.9147
 2010TIP3   OH230224   4.351   3.875  18.276  0.0136  0.5260  0.0296
 2010TIP3    H130225   4.441   3.856  18.301 -0.3346 -0.5706  0.5180
 2010TIP3    H230226   4.343   3.838  18.188 -0.0314  0.3843  0.0935
 2011TIP3   OH230227   1.326   5.870  16.346  0.6835 -0.9159 -0.5587
 2011TIP3    H130228   1.277   5.820  16.411  0.0103 -0.1546 -0.4771
 2011TIP3    H230229   1.418   5.848  16.364  0.5035 -0.7939  0.5953
 2012TIP3   OH230230   7.509   6.215  17.210 -0.3165 -0.3826  0.0856
 2012TIP3    H130231   7.455   6.181  17.139 -0.3058  0.3706 -0.2841
 2012TIP3    H230232   7.448   6.225  17.284 -0.7652  0.7563 -0.4162
 2013TIP3   OH230233   1.273   4.824  16.350  0.5559 -0.1544 -0.6718
 2013TIP3    H130234   1.281   4.919  16.359 -0.1737 -0.2425  1.4051
 2013TIP3    H230235   1.363   4.792  16.362  0.7780  0.2478 -1.2092
 2014TIP3   OH230236   1.517   4.362  18.849  0.3985  0.1397 -0.1219
 2014TIP3    H130237   1.427   4.340  18.823 -0.0379  0.8873  0.6816
 2014TIP3    H230238   1.507   4.404  18.935  1.0271  3.8541 -1.6355
 2015TIP3   OH230239   3.231   2.302  19.390  0.1912  0.3479  0.2111
 2015TIP3    H130240   3.326   2.293  19.384 -0.0043 -1.4387 -1.3939
 2015TIP3    H230241   3.199   2.212  19.396 -1.4366  0.8644 -0.1547
 2016TIP3   OH230242   3.263   1.673  19.302 -0.6875 -0.1195 -0.1230
 2016TIP3    H130243   3.174   1.698  19.278 -0.6766 -2.0634 -2.6908
 2016TIP3    H230244   3.317   1.703  19.229  0.1970 -2.0027 -0.2971
 2017TIP3   OH230245   6.090   6.386  19.462  0.0591  0.3506  0.2106
 2017TIP3    H130246   6.041   6.441  19.522 -0.0697  1.5345 -0.9445
 2017TIP3    H230247   6.073   6.297  19.492 -3.6362  0.5946 -0.7231
 2018TIP3   OH230248   7.570   3.884  17.621 -0.0412  0.9455 -0.2594
 2018TIP3    H130249   7.547   3.905  17.530  0.7267  2.0880 -0.2149
 2018TIP3    H230250   7.508   3.816  17.646  0.3229 -0.0485 -1.9282
 2019TIP3   OH230251   5.193   7.608  17.907 -0.3274  0.4687 -0.0320
 2019TIP3    H130252   5.288   7.607  17.896 -0.5503  0.6911 -2.3368
 2019TIP3    H230253   5.179   7.658  17.988  1.5059 -0.2091  0.7646
 2020TIP3   OH230254   5.273   1.463  18.117 -0.3053 -0.1938 -0.9311
 2020TIP3    H130255   5.273   1.539  18.175  2.4805 -0.9449  0.2164
 2020TIP3    H230256   5.260   1.500  18.029  1.4378  1.7262 -0.4615
 2021TIP3   OH230257   2.750   2.388  16.700 -0.1627 -0.1171 -0.2862
 2021TIP3    H130258   2.822   2.448  16.721  0.1618 -1.2883  2.3197
 2021TIP3    H230259   2.790   2.301  16.704 -1.4679 -0.7262  0.0579
 2022TIP3   OH230260   2.439   7.400  17.601  0.8334  0.1932 -0.5417
 2022TIP3    H130261   2.441   7.371  17.510  0.9780 -0.8065 -0.2320
 2022TIP3    H230262   2.531   7.411  17.625  0.8215 -0.1964 -0.3156
 2023TIP3   OH230263   7.344   5.107  19.271  0.0232  0.0513 -0.1081
 2023TIP3    H130264   7.328   5.012  19.267 -2.1618  0.3161  0.8119
 2023TIP3    H230265   7.439   5.115  19.275  0.2302 -2.1472  0.7292
 2024TIP3   OH230266   5.433   4.331  18.583  0.1111  0.7229  0.0520
 2024TIP3    H130267   5.397   4.299  18.666 -0.1124  1.0789  0.0960
 2024TIP3    H230268   5.378   4.291  18.516  2.2054 -2.1222 -0.1155
 2025TIP3   OH230269   0.588   2.910  17.240 -0.7346  0.1530  0.2404
 2025TIP3    H130270   0.515   2.946  17.190 -1.1298  0.3935  0.9688
 2025TIP3    H230271   0.553   2.831  17.282 -0.1161 -0.6262 -0.6667
 2026TIP3   OH230272   3.866   0.464  17.722  0.2906 -0.2901 -0.4460
 2026TIP3    H130273   3.951   0.452  17.765  0.4867  0.1112 -0.7169
 2026TIP3    H230274   3.861   0.558  17.705  0.0079 -0.3825 -0.8745
 2027TIP3   OH230275   4.335   4.728  16.776 -0.0731  0.2593  0.6007
 2027TIP3    H130276   4.253   4.750  16.820 -0.5984 -0.1711 -0.1531
 2027TIP3    H230277   4.329   4.770  16.690  0.9078  1.0194  0.8793
 2028TIP3   OH230278   0.298   0.004  16.625 -0.2757 -0.0113 -0.0566
 2028TIP3    H130279   0.259  -0.083  16.620  2.4306 -1.3020  0.0316
 2028TIP3    H230280   0.344   0.016  16.542  1.2277  0.3644  0.7902
 2029TIP3   OH230281   4.934   0.452  18.916 -0.1490  0.3519  0.3105
 2029TIP3    H130282   4.852   0.414  18.948  0.3568 -0.8926  0.2080
 2029TIP3    H230283   4.981   0.377  18.878  0.0403  1.4435 -1.7321
 2030TIP3   OH230284   1.207   0.584  18.177 -0.8245  0.0735  0.0262
 2030TIP3    H130285   1.146   0.510  18.174 -0.2166 -0.4837  0.8876
 2030TIP3    H230286   1.150   0.660  18.191 -1.2666 -0.6735  3.0413
 2031TIP3   OH230287   4.682   0.661  18.196  0.2771  0.1314 -0.6219
 2031TIP3    H130288   4.700   0.662  18.291 -1.2591  2.6063 -0.2855
 2031TIP3    H230289   4.729   0.737  18.162 -0.0667 -0.1181 -1.6951
 2032TIP3   OH230290   6.052   5.386  17.501 -0.1878 -0.3132  0.5004
 2032TIP3    H130291   6.026   5.376  17.592 -0.1569 -0.2680  0.5136
 2032TIP3    H230292   6.103   5.307  17.482  2.0346  0.8577  1.2714
 2033TIP3   OH230293   1.446   1.281  17.052  0.0675 -0.3586  0.2309
 2033TIP3    H130294   1.517   1.340  17.078  0.5812 -1.6636  1.9558
 2033TIP3    H230295   1.439   1.292  16.957  2.2237  0.1939  0.0951
 2034TIP3   OH230296   2.118   7.070  17.170 -0.1231  0.1709 -0.1577
 2034TIP3    H130297   2.118   6.993  17.228 -0.5118 -0.3078 -0.7690
 2034TIP3    H230298   2.156   7.038  17.088  0.1687  0.7690 -0.2587
 2035TIP3   OH230299   2.413   2.613  18.723 -0.0216  0.0411 -0.5201
 2035TIP3    H130300   2.427   2.606  18.817 -0.4997  0.1606 -0.4359
 2035TIP3    H230301   2.391   2.525  18.695 -1.7890  0.3451 -0.1871
 2036TIP3   OH230302   3.154   3.108  18.205 -0.1519 -0.2383 -0.1224
 2036TIP3    H130303   3.150   3.153  18.120 -1.8467 -0.5898 -0.2742
 2036TIP3    H230304   3.091   3.155  18.260  0.8272 -0.1056  0.9252
 2037TIP3   OH230305   7.217   3.334  17.326 -0.0211 -0.3905  0.5131
 2037TIP3    H130306   7.266   3.254  17.306 -2.6506 -1.7960 -0.7523
 2037TIP3    H230307   7.144   3.305  17.379 -1.4400  1.0223 -0.5726
 2038TIP3   OH230308   4.991   5.334  16.643 -0.0684  0.7018  0.3830
 2038TIP3    H130309   5.017   5.345  16.734  1.1289  1.4764 -0.0305
 2038TIP3    H230310   5.004   5.241  16.625 -0.5197  0.5041  1.0542
 2039TIP3   OH230311   5.516   1.154  18.640  0.0798  0.2065  0.0580
 2039TIP3    H130312   5.608   1.135  18.656 -0.0517 -0.1939  0.3390
 2039TIP3    H230313   5.511   1.250  18.643  0.6664  0.2916 -0.9664
 2040TIP3   OH230314   1.272   5.606  17.216  0.1504 -0.4168  0.1589
 2040TIP3    H130315   1.289   5.512  17.224 -0.3642 -0.4836  0.5646
 2040TIP3    H230316   1.178   5.612  17.196 -0.5897  0.0777  3.1947
 2041TIP3   OH230317   5.574   1.453  17.226  0.3636  0.4506  0.2513
 2041TIP3    H130318   5.651   1.444  17.170 -1.4597  0.2094 -2.3921
 2041TIP3    H230319   5.540   1.363  17.235 -0.8359  0.7925 -0.5586
 2042TIP3   OH230320   6.600   2.812  18.037  0.1435  0.6121 -0.6308
 2042TIP3    H130321   6.554   2.894  18.019 -0.2441  0.0143 -2.5553
 2042TIP3    H230322   6.568   2.751  17.970 -1.9133 -2.0791  2.4299
 2043TIP3   OH230323   6.676   4.846  18.724  0.0301 -0.1441 -0.2579
 2043TIP3    H130324   6.770   4.835  18.713 -0.3921 -3.1459 -1.7140
 2043TIP3    H230325   6.649   4.898  18.648  0.5565  1.5431  0.6511
 2044TIP3   OH230326   2.612   5.358  18.209  0.5044 -0.1955 -0.2841
 2044TIP3    H130327   2.587   5.447  18.233  1.0556  0.0410 -0.5895
 2044TIP3    H230328   2.694   5.342  18.255  0.4880 -0.4950 -0.3535
 2045TIP3   OH230329   6.321   2.619  18.180 -0.4496  0.2754 -0.7195
 2045TIP3    H130330   6.265   2.655  18.249 -0.6719 -0.3798 -0.5426
 2045TIP3    H230331   6.410   2.637  18.209 -0.4943 -1.0336  0.3663
 2046TIP3   OH230332   4.731   6.819  16.922  0.1507  0.5212 -0.4369
 2046TIP3    H130333   4.659   6.868  16.883 -1.6021 -0.8899  0.8619
 2046TIP3    H230334   4.755   6.868  17.000  0.2470  0.7171 -0.5883
 2047TIP3   OH230335   6.816   2.229  18.420 -0.1340  0.2025 -0.4531
 2047TIP3    H130336   6.799   2.324  18.416 -1.0181  0.1208  0.7046
 2047TIP3    H230337   6.743   2.190  18.372  0.1764  0.0981 -0.8421
 2048TIP3   OH230338   1.318   7.091  16.999  0.0424 -0.4439  0.0729
 2048TIP3    H130339   1.247   7.034  17.028 -1.9366  0.5268 -2.4391
 2048TIP3    H230340   1.275   7.173  16.975  2.4906  1.3799  1.4319
 2049TIP3   OH230341   2.615   6.645  18.666 -0.1683  0.6793 -0.2754
 2049TIP3    H130342   2.521   6.630  18.679  0.0636  0.8569  2.2580
 2049TIP3    H230343   2.621   6.739  18.649 -0.5633  0.3484 -2.4384
 2050TIP3   OH230344   3.481   3.334  19.411  0.1944 -0.2429 -0.2449
 2050TIP3    H130345   3.552   3.352  19.350 -0.6912 -1.1302 -1.5827
 2050TIP3    H230346   3.413   3.292  19.358 -1.4227  0.7561  0.9482
 2051TIP3   OH230347   3.601   1.062  17.153  0.3112  0.1280 -0.3837
 2051TIP3    H130348   3.622   1.129  17.219 -1.6262  0.9860 -0.5751
 2051TIP3    H230349   3.584   0.983  17.205 -2.0607  1.0071  0.3231
 2052TIP3   OH230350   0.233   5.672  18.935 -0.3057  0.7120  0.0759
 2052TIP3    H130351   0.285   5.677  19.015 -0.6601  0.3887  0.3261
 2052TIP3    H230352   0.142   5.675  18.965 -0.4473 -0.0940 -0.2669
 2053TIP3   OH230353   3.375   3.923  16.180 -0.0360 -0.0394 -0.0083
 2053TIP3    H130354   3.331   3.853  16.132 -0.4988  0.9399 -1.0490
 2053TIP3    H230355   3.307   3.959  16.237 -0.0752  0.2051 -0.2053
 2054TIP3   OH230356   3.763   0.424  18.709  0.3596  0.0393 -0.4599
 2054TIP3    H130357   3.727   0.480  18.778 -0.1561  1.1281 -1.5871
 2054TIP3    H230358   3.688   0.401  18.654  0.7959 -0.6691 -0.7855
 2055TIP3   OH230359   1.321   6.116  18.566  0.1384  0.7035 -0.2930
 2055TIP3    H130360   1.252   6.151  18.509 -0.1946 -0.1441 -0.4283
 2055TIP3    H230361   1.275   6.086  18.645  0.1626 -0.9211 -0.8505
 2056TIP3   OH230362   6.054   7.514  18.373 -0.0153 -0.0982 -0.8117
 2056TIP3    H130363   6.063   7.590  18.316  2.9566 -1.2121 -2.0244
 2056TIP3    H230364   6.011   7.447  18.319 -0.3717 -0.0727 -0.5668
 2057TIP3   OH230365   5.510   0.351  17.127 -0.2844  0.9000 -0.1119
 2057TIP3    H130366   5.573   0.328  17.059 -0.0404 -3.3975  1.2981
 2057TIP3    H230367   5.425   0.353  17.082  0.2017  1.2258 -1.0420
 2058TIP3   OH230368   0.674   2.672  16.968 -0.3994 -0.4502 -0.4004
 2058TIP3    H130369   0.620   2.678  16.889  0.7044 -0.4291 -1.1813
 2058TIP3    H230370   0.758   2.636  16.937  0.6254  1.0830  0.4613
 2059TIP3   OH230371   5.288   6.439  17.543 -0.6039  0.3472 -0.4758
 2059TIP3    H130372   5.262   6.353  17.577 -2.9647  1.1825  0.0020
 2059TIP3    H230373   5.323   6.485  17.619 -0.5756  0.2832 -0.4489
 2060TIP3   OH230374   2.071   4.366  18.383  0.7294 -0.1480 -1.2502
 2060TIP3    H130375   2.043   4.331  18.468  1.8364  1.4957 -0.1408
 2060TIP3    H230376   2.073   4.290  18.325  2.8631 -1.9579  0.9650
 2061TIP3   OH230377   0.060   6.781  17.758 -0.2531 -0.6618 -0.0677
 2061TIP3    H130378   0.087   6.714  17.820  1.6071 -1.6299 -1.7831
 2061TIP3    H230379   0.049   6.734  17.675 -0.3048  0.9243 -1.0102
 2062TIP3   OH230380   2.838   1.495  18.113  0.0118  0.1019  0.3589
 2062TIP3    H130381   2.899   1.533  18.049  0.3727 -2.8561 -1.2392
 2062TIP3    H230382   2.753   1.528  18.086  0.5243  1.9341  0.8016
 2063TIP3   OH230383   6.451   2.452  17.503 -0.1410 -0.2956 -0.0306
 2063TIP3    H130384   6.536   2.490  17.483 -0.9188  0.1828 -2.7400
 2063TIP3    H230385   6.388   2.521  17.483 -1.2742 -1.1127  0.5716
 2064TIP3   OH230386   1.563   6.155  16.417  0.2042  0.1611 -0.2207
 2064TIP3    H130387   1.499   6.206  16.366  1.1270  1.1146 -0.4615
 2064TIP3    H230388   1.605   6.098  16.353  1.2876  1.2833 -0.5650
 2065TIP3   OH230389   7.479   0.042  18.095 -0.7408  0.3853 -0.5610
 2065TIP3    H130390   7.488  -0.036  18.149  0.0339  0.5324 -0.4726
 2065TIP3    H230391   7.420   0.016  18.025  0.0255 -0.4744 -0.9012
 2066TIP3   OH230392   2.991   4.228  19.376 -0.4519  0.8354  0.1888
 2066TIP3    H130393   3.016   4.206  19.466 -2.2694 -0.6322  0.4205
 2066TIP3    H230394   2.953   4.316  19.382  0.2048  1.0874  0.6985
 2067TIP3   OH230395   4.666   3.252  18.752 -0.0500 -0.2851 -0.2852
 2067TIP3    H130396   4.718   3.171  18.758 -0.0666 -0.2707  0.0554
 2067TIP3    H230397   4.611   3.238  18.674 -2.0278 -1.7739  1.2698
 2068TIP3   OH230398   3.462   5.866  17.166  0.1217 -0.8024  0.0461
 2068TIP3    H130399   3.376   5.895  17.137 -0.1505  0.4976  1.9364
 2068TIP3    H230400   3.519   5.880  17.090 -0.9464  0.2673 -0.5954
 2069TIP3   OH230401   0.551   0.452  18.936 -0.0197 -0.6558 -0.4837
 2069TIP3    H130402   0.603   0.375  18.913  0.9619  1.0946 -5.6696
 2069TIP3    H230403   0.615   0.517  18.963 -0.1466 -0.2175 -1.1941
 2070TIP3   OH230404   2.500   3.938  19.588 -0.7424 -0.1713  0.4803
 2070TIP3    H130405   2.494   3.985  19.505 -0.0466  1.0484  1.1035
 2070TIP3    H230406   2.425   3.879  19.587 -0.6383 -0.3211 -1.0969
 2071TIP3   OH230407   2.202   1.626  18.210  0.3397 -0.4810  0.4679
 2071TIP3    H130408   2.221   1.545  18.163  0.8305 -0.0683 -0.0679
 2071TIP3    H230409   2.142   1.674  18.152  0.3181 -0.3151  0.6259
 2072TIP3   OH230410   3.688   0.213  19.307 -0.6294 -0.3389 -0.5150
 2072TIP3    H130411   3.700   0.228  19.213 -0.4962  1.9150 -0.2012
 2072TIP3    H230412   3.610   0.158  19.313 -0.3553 -0.9321 -1.9461
 2073TIP3   OH230413   2.911   3.759  16.781 -0.5766  0.2848  0.5747
 2073TIP3    H130414   2.898   3.824  16.712 -1.3521  1.3527  1.6838
 2073TIP3    H230415   3.006   3.755  16.792 -0.4225 -0.1422 -0.7567
 2074TIP3   OH230416   7.178   3.649  17.273 -0.9586  0.2548 -0.0026
 2074TIP3    H130417   7.154   3.599  17.195 -1.5519  0.1538  0.2379
 2074TIP3    H230418   7.267   3.620  17.293 -0.7429  0.3977 -0.7298
 2075TIP3   OH230419   2.904   0.005  17.756 -0.1442  0.0918 -0.0215
 2075TIP3    H130420   2.896  -0.052  17.833  0.8108  1.4313  1.1211
 2075TIP3    H230421   2.813   0.027  17.733 -0.4656 -0.8473  0.3017
 2076TIP3   OH230422   1.409   2.251  17.252 -0.5813  0.1779 -0.1151
 2076TIP3    H130423   1.453   2.335  17.267  0.7472 -0.5273  0.0871
 2076TIP3    H230424   1.417   2.204  17.335 -0.0493 -0.6926 -0.6394
 2077TIP3   OH230425   3.758   0.490  19.250  0.3543 -0.3218  0.2427
 2077TIP3    H130426   3.730   0.443  19.172  1.8616 -0.1325 -0.4557
 2077TIP3    H230427   3.713   0.446  19.322 -0.0990 -1.3038 -0.6124
 2078TIP3   OH230428   5.478   2.296  17.053  0.1258 -0.3668  0.3606
 2078TIP3    H130429   5.449   2.210  17.022 -0.9582  0.0384  0.1882
 2078TIP3    H230430   5.423   2.314  17.129  0.0780  0.3405  0.1666
 2079TIP3   OH230431   5.873   2.004  17.557 -0.4926  0.1434  0.0950
 2079TIP3    H130432   5.796   1.948  17.546  0.3386 -0.9461 -0.2501
 2079TIP3    H230433   5.847   2.088  17.519 -1.1934 -0.4987 -0.8869
 2080TIP3   OH230434   2.971   3.204  19.015 -0.1631  0.6946 -0.0371
 2080TIP3    H130435   2.889   3.244  18.984 -0.6699  0.1554  0.5817
 2080TIP3    H230436   2.955   3.109  19.010 -0.5863  0.5516  2.6116
 2081TIP3   OH230437   5.694   4.444  18.905 -0.2106  0.2138 -0.4190
 2081TIP3    H130438   5.686   4.537  18.881 -0.5164  1.0664  2.5398
 2081TIP3    H230439   5.657   4.397  18.831  1.5461  2.3157 -2.8290
 2082TIP3   OH230440   3.238   6.844  18.469  0.7204  0.4020 -0.0291
 2082TIP3    H130441   3.325   6.875  18.496  0.9041 -0.5590  0.5103
 2082TIP3    H230442   3.250   6.751  18.449 -0.4557 -0.1056  1.4226
 2083TIP3   OH230443   3.861   3.257  18.650 -0.7573 -0.1380  0.4444
 2083TIP3    H130444   3.852   3.262  18.746  1.4867  1.6824  0.6461
 2083TIP3    H230445   3.911   3.178  18.634 -0.8303 -0.2576  0.7915
 2084TIP3   OH230446   3.778   3.501  16.795 -0.4936  0.4720 -0.2832
 2084TIP3    H130447   3.683   3.490  16.784 -0.5133  1.6792 -1.5974
 2084TIP3    H230448   3.813   3.492  16.707  0.7577 -1.0074  0.3398
 2085TIP3   OH230449   2.442   2.783  16.715 -0.1169 -0.2049 -0.0398
 2085TIP3    H130450   2.407   2.728  16.645 -0.2006  1.3840 -1.3149
 2085TIP3    H230451   2.469   2.721  16.783 -3.3382 -1.6586  0.1111
 2086TIP3   OH230452   1.776   6.606  16.916 -0.3493 -0.2529  0.1700
 2086TIP3    H130453   1.799   6.681  16.971 -2.6382 -1.2929  2.7976
 2086TIP3    H230454   1.832   6.535  16.947 -0.7774 -0.5396  0.2981
 2087TIP3   OH230455   6.812   6.572  17.552  0.1327  0.0606  0.2010
 2087TIP3    H130456   6.889   6.628  17.557 -1.2848  2.0400  1.1189
 2087TIP3    H230457   6.779   6.584  17.463  0.5083 -0.3030  0.0056
 2088TIP3   OH230458   7.675   5.379  18.493 -0.0821 -0.3066 -0.4018
 2088TIP3    H130459   7.676   5.435  18.571 -0.1187  0.7077 -1.1054
 2088TIP3    H230460   7.766   5.379  18.462  0.4466 -2.6359  0.9327
 2089TIP3   OH230461   3.794   6.530  18.091 -0.1499 -0.0271  0.0719
 2089TIP3    H130462   3.721   6.474  18.117 -1.5320  0.3501 -2.5119
 2089TIP3    H230463   3.870   6.473  18.089 -0.9457 -1.1206  0.2312
 2090TIP3   OH230464   5.266   5.240  18.144 -0.5476 -0.1653  0.6533
 2090TIP3    H130465   5.322   5.166  18.166 -0.3210 -0.3096 -0.3567
 2090TIP3    H230466   5.308   5.280  18.068 -1.9284 -0.4228 -0.2740
 2091TIP3   OH230467   6.114   5.822  16.697 -0.3687 -0.2072 -0.0909
 2091TIP3    H130468   6.182   5.889  16.705 -0.0532 -0.5296 -0.0805
 2091TIP3    H230469   6.160   5.739  16.704 -0.5475 -0.4651 -1.5947
 2092TIP3   OH230470   4.864   7.405  19.182 -0.1850  0.1981  0.0508
 2092TIP3    H130471   4.876   7.320  19.224 -1.4217 -0.0178  0.0111
 2092TIP3    H230472   4.948   7.450  19.193  0.9384 -1.5192 -1.0770
 2093TIP3   OH230473   2.751   1.376  17.806  0.0398 -0.2292  0.4499
 2093TIP3    H130474   2.709   1.456  17.836 -0.9355 -0.6935  0.3576
 2093TIP3    H230475   2.758   1.386  17.711  1.8784  0.6463  0.6250
 2094TIP3   OH230476   3.838   4.031  16.742 -0.4189 -0.6459 -0.1880
 2094TIP3    H130477   3.896   4.105  16.725  1.0522 -1.8566 -0.6521
 2094TIP3    H230478   3.762   4.047  16.686 -0.4755  0.8661  0.2786
 2095TIP3   OH230479   4.264   2.271  17.504 -0.5319 -0.3486 -0.2932
 2095TIP3    H130480   4.237   2.179  17.504  1.0192 -0.8690  1.5271
 2095TIP3    H230481   4.191   2.318  17.544 -1.0350 -0.8770 -0.5786
 2096TIP3   OH230482   6.138   6.361  17.952 -0.0619 -0.5167 -0.0219
 2096TIP3    H130483   6.098   6.292  18.005  2.0474 -1.6058  0.2491
 2096TIP3    H230484   6.118   6.336  17.861 -0.1259 -0.9555  0.1105
 2097TIP3   OH230485   6.872   5.064  17.591  0.3415 -0.0743 -0.1229
 2097TIP3    H130486   6.948   5.103  17.634  0.4100  1.0448 -1.2133
 2097TIP3    H230487   6.909   5.004  17.526  0.3175  0.5749 -0.7498
 2098TIP3   OH230488   3.519   3.005  16.847  0.0396  0.4428  0.3058
 2098TIP3    H130489   3.577   2.936  16.817  0.5759  1.4401 -1.0480
 2098TIP3    H230490   3.435   2.962  16.859  0.5429 -0.5945  0.2597
 2099TIP3   OH230491   6.761   1.245  19.347  0.0021 -0.0937 -0.6838
 2099TIP3    H130492   6.782   1.154  19.368  1.0357  0.6440  1.8571
 2099TIP3    H230493   6.825   1.296  19.396 -2.0036  2.0627 -0.1225
 2100TIP3   OH230494   5.979   0.469  17.123  0.3460 -0.5538 -0.1003
 2100TIP3    H130495   6.054   0.497  17.176  1.0273 -1.6140 -0.4689
 2100TIP3    H230496   5.911   0.447  17.187  0.2030  0.7715  0.2270
 2101TIP3   OH230497   2.313   4.696  17.269 -0.0316 -0.4013 -0.4657
 2101TIP3    H130498   2.354   4.623  17.315 -0.5239 -0.9030 -0.8056
 2101TIP3    H230499   2.385   4.740  17.224  0.6769  0.9025  1.8070
 2102TIP3   OH230500   2.813   6.261  18.281 -0.5457  0.5602  0.1882
 2102TIP3    H130501   2.794   6.187  18.224  0.8269  0.3432 -0.0199
 2102TIP3    H230502   2.894   6.237  18.326  0.4348  2.2875 -0.5566
 2103TIP3   OH230503   5.683   6.155  18.334  0.0732 -0.6138 -0.3345
 2103TIP3    H130504   5.730   6.153  18.251 -1.4028 -0.6353 -1.2099
 2103TIP3    H230505   5.609   6.096  18.321 -0.8230  0.2660  0.5939
 2104TIP3   OH230506   2.955   7.331  17.832 -0.1107 -0.6598 -0.0113
 2104TIP3    H130507   2.978   7.259  17.773  0.6931 -1.9355  1.7424
 2104TIP3    H230508   3.015   7.321  17.906 -0.6531  1.2507  0.7473
 2105TIP3   OH230509   1.570   6.201  19.186 -0.2695 -0.2926 -0.3800
 2105TIP3    H130510   1.530   6.289  19.184 -1.7498 -0.7728  2.3217
 2105TIP3    H230511   1.644   6.210  19.245 -0.3547 -0.8249 -0.1882
 2106TIP3   OH230512   3.235   6.618  17.364 -0.2984 -0.0791 -0.2066
 2106TIP3    H130513   3.277   6.544  17.408  1.2618  1.8538  1.7610
 2106TIP3    H230514   3.146   6.620  17.399 -0.0946 -0.5320  0.3555
 2107TIP3   OH230515   2.021   3.097  18.148  0.0163  0.0617 -0.1724
 2107TIP3    H130516   2.065   3.034  18.205 -0.9487  0.5526  1.1488
 2107TIP3    H230517   2.093   3.145  18.107  0.7398 -0.2616  0.6726
 2108TIP3   OH230518   7.177   2.933  17.396  0.0619  0.5335  0.4144
 2108TIP3    H130519   7.170   2.882  17.315  0.9192 -0.6365  1.0454
 2108TIP3    H230520   7.092   2.975  17.405 -0.1090  0.5569 -1.0009
 2109TIP3   OH230521   1.185   4.041  18.488  0.1369  0.0075 -0.1781
 2109TIP3    H130522   1.115   4.016  18.548 -0.6287  0.6033 -0.8027
 2109TIP3    H230523   1.250   4.084  18.544 -0.5929  0.6089  0.2307
 2110TIP3   OH230524   5.454   3.672  18.714 -0.2632 -0.5767  0.1940
 2110TIP3    H130525   5.471   3.684  18.807 -0.7732 -0.9120  0.3402
 2110TIP3    H230526   5.443   3.760  18.679  3.5458 -0.1270 -0.3211
 2111TIP3   OH230527   5.467   5.096  18.437 -0.0802  0.0107  0.2508
 2111TIP3    H130528   5.438   5.183  18.410 -5.4502 -1.9087 -1.5151
 2111TIP3    H230529   5.511   5.060  18.360  0.2210  0.4302  0.2264
 2112TIP3   OH230530   7.649   7.546  19.189 -0.3232  0.0656 -0.1308
 2112TIP3    H130531   7.616   7.635  19.179  0.5698  0.5328  0.9603
 2112TIP3    H230532   7.695   7.546  19.273 -1.6285 -1.8299  0.6578
 2113TIP3   OH230533   7.162   7.471  18.960  0.2740 -0.2542 -0.5919
 2113TIP3    H130534   7.149   7.378  18.979 -1.2821  0.4912  2.7227
 2113TIP3    H230535   7.245   7.492  19.003  0.4352 -0.0125 -1.0157
 2114TIP3   OH230536   2.214   1.110  18.243  0.7326 -0.2445  0.0273
 2114TIP3    H130537   2.157   1.141  18.172  0.0150 -0.1930  0.6128
 2114TIP3    H230538   2.231   1.019  18.222 -1.8533 -1.0878  1.2439
 2115TIP3   OH230539   7.565   2.976  17.523 -0.4395 -0.4156  1.0746
 2115TIP3    H130540   7.544   2.885  17.545  1.6496 -0.7004  2.1892
 2115TIP3    H230541   7.617   3.007  17.598  1.8404  0.5700 -0.7628
 2116TIP3   OH230542   5.810   7.655  17.389  0.2212 -0.3479  0.7109
 2116TIP3    H130543   5.717   7.678  17.393  0.4203  0.6470 -0.0410
 2116TIP3    H230544   5.848   7.719  17.328  1.3278 -0.9772  0.7198
 2117TIP3   OH230545   6.109   5.273  18.210 -0.7933 -0.3896 -0.0940
 2117TIP3    H130546   6.121   5.193  18.261 -0.1182  0.8438  1.8095
 2117TIP3    H230547   6.072   5.336  18.273 -2.0660  0.5909 -1.7273
 2118TIP3   OH230548   5.822   7.035  19.724 -0.6801 -0.1632  0.0177
 2118TIP3    H130549   5.780   7.070  19.802  1.9976  1.6115  0.8056
 2118TIP3    H230550   5.772   6.956  19.702 -1.6976 -0.5762  3.3328
 2119TIP3   OH230551   1.209   2.663  18.385 -0.1236 -0.2841  0.1068
 2119TIP3    H130552   1.199   2.569  18.368 -1.8985  0.1890 -1.9508
 2119TIP3    H230553   1.276   2.692  18.324 -0.5244 -0.0031 -0.2088
 2120TIP3   OH230554   1.604   6.875  18.666  0.1345 -1.3159  0.2093
 2120TIP3    H130555   1.569   6.945  18.611  1.5014 -0.8167 -0.0647
 2120TIP3    H230556   1.640   6.812  18.604  2.8715 -0.1349  0.4438
 2121TIP3   OH230557   6.189   1.197  17.976 -0.8732 -0.1089 -0.6580
 2121TIP3    H130558   6.111   1.142  17.989 -1.6253  0.9992 -0.2651
 2121TIP3    H230559   6.162   1.260  17.909 -0.1781  0.0580 -0.7861
 2122TIP3   OH230560   1.646   4.389  17.147 -0.2242  0.1730  0.0697
 2122TIP3    H130561   1.708   4.329  17.105 -0.8612  1.4831 -3.0849
 2122TIP3    H230562   1.616   4.343  17.225  1.2256 -2.4610 -0.8057
 2123TIP3   OH230563   0.253   1.110  17.977  0.0238 -0.8700 -0.4463
 2123TIP3    H130564   0.174   1.099  17.924 -0.0216  0.2215 -0.6421
 2123TIP3    H230565   0.321   1.062  17.929 -0.2752 -0.8718 -0.8770
 2124TIP3   OH230566   4.953   2.335  17.838 -0.4323  0.1916 -0.3847
 2124TIP3    H130567   4.923   2.414  17.794  0.1564  0.2913 -0.6177
 2124TIP3    H230568   4.944   2.266  17.772 -1.8023 -0.1247  0.0977
 2125TIP3   OH230569   5.304   7.153  19.416  0.1365 -0.1510 -0.0595
 2125TIP3    H130570   5.325   7.116  19.330 -1.3439  0.2624 -0.6310
 2125TIP3    H230571   5.247   7.088  19.457 -0.3182  0.2953  0.0216
 2126TIP3   OH230572   6.301   2.191  19.313 -0.3702 -0.0049  0.0584
 2126TIP3    H130573   6.304   2.221  19.404  3.0850  2.3552 -0.6323
 2126TIP3    H230574   6.373   2.127  19.307  1.1513  1.7552 -1.4674
 2127TIP3   OH230575   3.921   4.775  18.414 -0.1671  0.4172  0.7345
 2127TIP3    H130576   4.004   4.800  18.374 -0.0646 -2.0946 -0.7900
 2127TIP3    H230577   3.944   4.754  18.505  0.7112  0.5031  0.5419
 2128TIP3   OH230578   4.992   5.421  17.386 -0.5063  0.1301 -0.0768
 2128TIP3    H130579   4.994   5.508  17.347  1.0419  0.0340 -0.2996
 2128TIP3    H230580   4.947   5.367  17.322 -1.0975  0.6756 -0.1337
 2129TIP3   OH230581   4.749   0.180  17.942 -0.4304  0.3403 -0.3957
 2129TIP3    H130582   4.700   0.110  17.986  0.3380 -0.5073 -0.8286
 2129TIP3    H230583   4.728   0.259  17.990 -1.2322 -0.2176  0.1911
 2130TIP3   OH230584   1.683   2.434  17.349  0.2213 -0.4267  0.4319
 2130TIP3    H130585   1.729   2.360  17.309  0.8290 -0.1578  0.6128
 2130TIP3    H230586   1.670   2.497  17.277 -0.9891 -1.0263  0.1087
 2131TIP3   OH230587   4.028   0.315  18.188 -0.4049 -0.0603  0.3965
 2131TIP3    H130588   4.108   0.367  18.180 -1.3522  1.3084 -0.6082
 2131TIP3    H230589   4.000   0.329  18.279  0.7684 -1.0310  0.9428
 2132TIP3   OH230590   4.515   0.730  17.147  0.8213 -0.3480  0.1282
 2132TIP3    H130591   4.552   0.753  17.232  2.9222 -0.6681 -0.6531
 2132TIP3    H230592   4.489   0.814  17.109  0.8213 -0.1061  0.6522
 2133TIP3   OH230593   4.306   3.990  18.815  0.2884  0.3120 -0.2869
 2133TIP3    H130594   4.221   3.945  18.822  0.8806 -0.8883 -0.4252
 2133TIP3    H230595   4.344   3.982  18.902  0.1072  1.1992 -0.1185
 2134TIP3   OH230596   4.816   6.241  19.316  0.1611  0.1247 -0.4304
 2134TIP3    H130597   4.745   6.305  19.311 -2.4042 -2.5256 -0.8758
 2134TIP3    H230598   4.868   6.257  19.238 -2.1119 -0.0671 -2.1039
 2135TIP3   OH230599   2.067   2.408  17.194  0.1564  0.2302  0.1279
 2135TIP3    H130600   2.112   2.352  17.132  0.6737 -0.1514  0.8305
 2135TIP3    H230601   2.001   2.351  17.234  1.5734 -0.3209  1.8282
 2136TIP3   OH230602   3.305   6.030  17.794 -0.4318  0.9353  0.2403
 2136TIP3    H130603   3.388   6.002  17.756 -0.7563  0.3744 -0.0755
 2136TIP3    H230604   3.305   5.992  17.882  0.1165  1.8460  0.6437
 2137TIP3   OH230605   4.130   3.534  17.874 -0.1631 -0.3429 -0.0015
 2137TIP3    H130606   4.053   3.543  17.818  0.0459 -0.7914 -0.3663
 2137TIP3    H230607   4.096   3.542  17.963 -0.3785  1.3516 -0.1854
 2138TIP3   OH230608   4.552   3.994  19.373  0.2577  0.0035  0.4199
 2138TIP3    H130609   4.507   4.074  19.397  0.0108  0.6648 -2.0094
 2138TIP3    H230610   4.628   4.023  19.321  1.1273 -1.2668  0.9245
 2139TIP3   OH230611   7.108   2.380  18.906  0.0310  0.1641 -0.2202
 2139TIP3    H130612   7.058   2.348  18.981 -0.0581  1.9485  0.5357
 2139TIP3    H230613   7.181   2.429  18.945 -0.9179  2.5116 -1.2091
 2140TIP3   OH230614   3.577   4.092  17.630 -0.7679  0.0210  0.1900
 2140TIP3    H130615   3.642   4.135  17.574  0.5530 -2.2068 -0.1056
 2140TIP3    H230616   3.629   4.035  17.687 -2.3674 -0.6377  1.0450
 2141TIP3   OH230617   7.221   5.642  16.302  0.2560  0.2893  0.0978
 2141TIP3    H130618   7.176   5.559  16.316  0.9391 -0.4730 -1.8893
 2141TIP3    H230619   7.177   5.703  16.361 -3.4322 -0.3579 -1.6785
 2142TIP3   OH230620   1.379   6.975  19.078 -0.2811  0.4438 -0.2003
 2142TIP3    H130621   1.306   7.035  19.070  0.2140  0.8760 -1.9324
 2142TIP3    H230622   1.456   7.028  19.061  0.3180 -0.3090  0.1031
 2143TIP3   OH230623   3.470   6.770  18.800  0.0495 -0.0818 -0.2482
 2143TIP3    H130624   3.532   6.699  18.786  2.0112  1.2970  0.8258
 2143TIP3    H230625   3.466   6.780  18.895  0.9098  2.0561 -0.3729
 2144TIP3   OH230626   2.865   3.086  17.134  0.1351 -0.5382  0.1082
 2144TIP3    H130627   2.828   3.003  17.164  0.2501 -0.3402  0.8069
 2144TIP3    H230628   2.880   3.137  17.214 -1.0065  0.6033 -0.3591
 2145TIP3   OH230629   6.913   1.856  17.663  0.2628  0.0480  0.1855
 2145TIP3    H130630   6.861   1.830  17.587  0.8080  0.9185 -0.5075
 2145TIP3    H230631   6.850   1.890  17.726 -0.0272  0.9077 -0.5600
 2146TIP3   OH230632   4.089   4.995  19.000  0.1779  0.2991 -0.3038
 2146TIP3    H130633   4.129   5.057  19.060 -1.0223  0.9764 -0.1672
 2146TIP3    H230634   4.063   5.048  18.924 -1.3039  0.1023  0.0204
 2147TIP3   OH230635   2.294   3.246  18.021  0.2465  0.4960  0.3369
 2147TIP3    H130636   2.355   3.178  18.049  0.2065  0.6112  0.7032
 2147TIP3    H230637   2.334   3.283  17.942 -0.1804 -0.5786 -0.4195
 2148TIP3   OH230638   2.836   4.167  18.484  0.0066 -0.4421  0.3905
 2148TIP3    H130639   2.855   4.160  18.578  1.0151 -1.2410  0.1548
 2148TIP3    H230640   2.761   4.109  18.471  0.6112 -1.2822  0.5245
 2149TIP3   OH230641   1.553   2.715  18.040  0.0105  0.5655 -0.7631
 2149TIP3    H130642   1.556   2.655  17.966 -0.1318  2.0999 -2.0722
 2149TIP3    H230643   1.475   2.768  18.025 -2.2924 -1.5114  2.5476
 2150TIP3   OH230644   2.214   5.771  18.438 -0.3132 -0.2559 -0.0566
 2150TIP3    H130645   2.251   5.721  18.512 -0.9434 -1.6547 -0.6511
 2150TIP3    H230646   2.136   5.812  18.473 -0.5231 -0.7864  0.1087
 2151TIP3   OH230647   0.101   3.690  17.748  0.1857 -0.4135 -0.0683
 2151TIP3    H130648   0.036   3.712  17.814  0.3614  0.9815 -0.3388
 2151TIP3    H230649   0.176   3.746  17.767  0.0797  0.3392 -1.6791
 2152TIP3   OH230650   2.386   5.866  19.365  0.3102  0.2673 -0.1008
 2152TIP3    H130651   2.382   5.821  19.280  0.2998 -0.0429  0.0664
 2152TIP3    H230652   2.387   5.959  19.341  1.5721  0.1774 -0.5011
 2153TIP3   OH230653   6.402   6.659  18.921 -0.2116  0.1603 -0.3655
 2153TIP3    H130654   6.405   6.714  18.843 -2.5009 -0.1635 -0.7521
 2153TIP3    H230655   6.316   6.677  18.960 -0.9065 -2.8016 -0.2997
 2154TIP3   OH230656   7.497   5.825  18.902  0.2029  0.1845  0.3224
 2154TIP3    H130657   7.523   5.895  18.842  0.8864  0.1417  0.5614
 2154TIP3    H230658   7.407   5.803  18.876  0.6361 -0.1187 -0.9585
 2155TIP3   OH230659   5.578   6.531  19.131  0.2751 -0.8209  0.4440
 2155TIP3    H130660   5.605   6.460  19.191  0.4236 -1.7054 -0.6396
 2155TIP3    H230661   5.660   6.564  19.094  0.1744 -0.3668  0.6184
 2156TIP3   OH230662   5.723   6.128  18.938  0.3327  0.5389  0.5166
 2156TIP3    H130663   5.767   6.176  19.009 -0.8498  1.8009  0.4509
 2156TIP3    H230664   5.720   6.190  18.866 -2.4877  0.9602  0.8818
 2157TIP3   OH230665   1.714   6.339  18.738 -0.3327 -0.3339  0.6707
 2157TIP3    H130666   1.743   6.383  18.817 -0.7125  0.2792  0.4744
 2157TIP3    H230667   1.792   6.296  18.704 -0.5289 -2.2094  2.3834
 2158TIP3   OH230668   2.277   4.125  17.690 -0.1590 -0.5695  0.8815
 2158TIP3    H130669   2.206   4.064  17.711 -0.2249 -0.7738  0.1045
 2158TIP3    H230670   2.355   4.070  17.685 -0.5346 -1.0221 -1.9109
 2159TIP3   OH230671   0.260   6.797  17.379 -0.0110 -0.7628  0.2179
 2159TIP3    H130672   0.242   6.806  17.285  1.4840  0.7597  0.0373
 2159TIP3    H230673   0.207   6.866  17.420  1.1300  0.1383  0.2244
 2160TIP3   OH230674   1.188   2.697  17.710  0.2995  0.6121 -0.1660
 2160TIP3    H130675   1.196   2.694  17.805 -2.6867  0.1033  0.1832
 2160TIP3    H230676   1.238   2.621  17.680  0.6969  0.3609  1.0684
 2161TIP3   OH230677   0.083   4.161  17.939 -0.4023  0.1096 -0.4737
 2161TIP3    H130678   0.174   4.139  17.919 -0.5746 -0.2123 -0.9072
 2161TIP3    H230679   0.047   4.083  17.980 -0.2325  0.5489  0.5367
 2162TIP3   OH230680   5.914   4.121  18.471  0.7020 -0.1750 -0.1983
 2162TIP3    H130681   5.882   4.093  18.385  0.4381  0.3475 -0.2768
 2162TIP3    H230682   6.004   4.090  18.474  0.1963 -1.6944  0.0375
 2163TIP3   OH230683   1.049   5.629  18.501  0.2583 -0.0081  0.9205
 2163TIP3    H130684   1.093   5.544  18.507  0.7930  0.2243  0.4452
 2163TIP3    H230685   1.070   5.672  18.584 -0.0826 -0.3755  1.1945
 2164TIP3   OH230686   7.599   0.125  19.165  0.3323  0.1451 -0.0317
 2164TIP3    H130687   7.573   0.181  19.092 -0.7519  0.5648  0.6400
 2164TIP3    H230688   7.623   0.186  19.235 -0.7383 -0.1926  0.6686
 2165TIP3   OH230689   1.898   5.770  18.762  0.1001  0.4689  0.4889
 2165TIP3    H130690   1.829   5.750  18.700  0.7967  2.0777 -0.9163
 2165TIP3    H230691   1.970   5.711  18.739 -0.0607  0.2551  0.5403
 2166TIP3   OH230692   5.554   3.123  17.280  0.2927 -0.0579 -0.2955
 2166TIP3    H130693   5.546   3.027  17.281  0.0577 -0.0376 -0.1992
 2166TIP3    H230694   5.616   3.140  17.210  0.4181 -0.2884 -0.2427
 2167TIP3   OH230695   0.310   4.906  17.076  0.0799 -0.2990 -0.0610
 2167TIP3    H130696   0.329   4.999  17.090  0.8405 -0.2942 -1.0402
 2167TIP3    H230697   0.309   4.896  16.981  0.4338 -1.3661  0.0398
 2168TIP3   OH230698   2.038   6.357  19.080  0.1341  0.0738  0.8020
 2168TIP3    H130699   2.064   6.269  19.108 -0.5736 -0.3685  0.1171
 2168TIP3    H230700   2.113   6.412  19.104  1.2727 -0.9765 -0.1473
 2169TIP3   OH230701   6.757   6.307  18.503  0.2127  0.6258  0.4087
 2169TIP3    H130702   6.852   6.315  18.507  0.3910 -1.2285  0.6876
 2169TIP3    H230703   6.735   6.329  18.413  1.0190  0.1699  0.0888
 2170TIP3   OH230704   6.588   2.418  18.535  0.0585 -0.9723  0.7598
 2170TIP3    H130705   6.554   2.380  18.616 -1.4941  0.5312  0.8621
 2170TIP3    H230706   6.523   2.398  18.469  2.2688 -4.0147 -0.7328
 2171TIP3   OH230707   3.475   0.867  18.764 -0.0167 -0.3309  0.3171
 2171TIP3    H130708   3.417   0.791  18.758 -2.4320  1.3480  0.6283
 2171TIP3    H230709   3.563   0.830  18.771 -1.1968 -3.1643  2.4802
 2172TIP3   OH230710   7.584   4.970  17.905 -0.2372  0.1506  0.0256
 2172TIP3    H130711   7.657   4.922  17.945  0.5898  0.8515 -0.5933
 2172TIP3    H230712   7.506   4.929  17.941  0.3612 -2.5122 -1.4443
 2173TIP3   OH230713   6.068   0.992  17.565 -0.2779 -0.0926 -0.1281
 2173TIP3    H130714   6.056   1.079  17.527  0.8030  0.2804  0.3685
 2173TIP3    H230715   6.005   0.987  17.636 -1.0860 -0.1305 -0.8328
 2174TIP3   OH230716   1.718   4.576  17.608  0.0471 -0.2214 -0.2400
 2174TIP3    H130717   1.726   4.532  17.523  2.7508  1.8952 -1.2424
 2174TIP3    H230718   1.790   4.540  17.660  0.1390  0.4908  0.1399
 2175TIP3   OH230719   6.849   5.219  17.975  0.5191 -0.1959  0.0153
 2175TIP3    H130720   6.887   5.303  17.949  0.5563 -0.2395 -0.0706
 2175TIP3    H230721   6.766   5.214  17.926 -0.6182  0.8397  1.7320
 2176TIP3   OH230722   3.177   0.353  16.903 -0.3996  0.3951  0.6816
 2176TIP3    H130723   3.135   0.396  16.829  0.3458 -0.3833 -0.2185
 2176TIP3    H230724   3.168   0.415  16.975 -1.3108  1.0864 -0.0035
 2177TIP3   OH230725   2.945   0.343  17.150 -0.2286 -0.5170  0.2969
 2177TIP3    H130726   3.015   0.406  17.137  0.0210 -0.0851  3.0459
 2177TIP3    H230727   2.870   0.380  17.104 -0.4435  2.5534  2.7818
 2178TIP3   OH230728   0.206   1.250  17.532  0.9026  0.4854  0.6542
 2178TIP3    H130729   0.267   1.252  17.458  0.6386  1.6595  0.4567
 2178TIP3    H230730   0.188   1.157  17.545  1.2581  0.2368 -0.5056
 2179TIP3   OH230731   6.221   1.640  17.301  0.0225  0.0170 -0.1883
 2179TIP3    H130732   6.188   1.723  17.337 -1.4050 -0.2184 -0.8865
 2179TIP3    H230733   6.143   1.596  17.268  0.7618 -1.6281  0.1766
 2180TIP3   OH230734   5.240   6.164  19.117 -0.0110  0.2415  0.3512
 2180TIP3    H130735   5.313   6.111  19.087 -0.8890 -0.0488 -1.4285
 2180TIP3    H230736   5.245   6.244  19.064 -1.3766 -0.1039 -0.3511
 2181TIP3   OH230737   2.634   6.332  18.480 -0.1277  0.3637  0.3523
 2181TIP3    H130738   2.687   6.311  18.402 -0.6840 -0.8875  0.2821
 2181TIP3    H230739   2.663   6.268  18.546  2.0379  2.8638  2.0263
 2182TIP3   OH230740   4.821   5.291  17.246  0.0375  0.2554  0.3646
 2182TIP3    H130741   4.784   5.284  17.158 -0.0938  0.2128  0.4219
 2182TIP3    H230742   4.785   5.215  17.293  0.5153 -0.0110  0.3091
 2183TIP3   OH230743   2.114   6.607  17.499  0.3866  0.3849 -0.3687
 2183TIP3    H130744   2.081   6.651  17.577  0.1065  2.2220 -1.4704
 2183TIP3    H230745   2.133   6.518  17.528 -0.5896  0.7564  1.5540
 2184TIP3   OH230746   7.649   5.835  17.701 -0.1780  0.0417 -0.0333
 2184TIP3    H130747   7.683   5.760  17.748  0.4608 -1.2701 -2.4037
 2184TIP3    H230748   7.719   5.900  17.704  0.5920 -0.7444 -0.7116
 2185TIP3   OH230749   6.174   1.534  17.671 -0.3501 -0.3126  0.1974
 2185TIP3    H130750   6.154   1.628  17.675 -0.6751 -0.3911  0.4803
 2185TIP3    H230751   6.091   1.491  17.690 -0.3694 -0.6692 -0.6717
 2186TIP3   OH230752   2.063   5.772  19.133 -0.2861 -0.2580  0.4136
 2186TIP3    H130753   2.004   5.719  19.186 -1.1332 -1.0925 -1.2737
 2186TIP3    H230754   2.006   5.831  19.085  0.2204 -0.9288 -1.0734
 2187TIP3   OH230755   5.537   1.097  17.913  0.0073  0.2626  0.0045
 2187TIP3    H130756   5.620   1.092  17.866 -0.5349  0.2794 -0.9796
 2187TIP3    H230757   5.531   1.188  17.942  0.3021  0.2762  0.0224
 2188TIP3   OH230758   2.633   4.364  18.951  0.1400 -0.2012 -0.4365
 2188TIP3    H130759   2.655   4.457  18.949 -3.6953  0.8848 -1.6178
 2188TIP3    H230760   2.658   4.331  18.865  2.4654 -0.6215  0.3428
 2189TIP3   OH230761   0.782   4.130  19.044  0.0393 -0.0749  0.0731
 2189TIP3    H130762   0.740   4.191  18.983  0.5429  1.7945  1.4829
 2189TIP3    H230763   0.750   4.044  19.018 -1.2358  0.8419 -1.6093
 2190TIP3   OH230764   1.346   4.868  17.245  0.6018 -0.0057  0.3667
 2190TIP3    H130765   1.284   4.875  17.173 -2.1312 -0.3320  2.5226
 2190TIP3    H230766   1.407   4.800  17.217 -2.0637 -2.2294 -0.5836
 2191TIP3   OH230767   0.734   7.491  17.831 -0.2895  0.4029 -0.1661
 2191TIP3    H130768   0.825   7.487  17.861  0.2731  2.0803 -1.5639
 2191TIP3    H230769   0.725   7.416  17.773  0.1196  0.1087  0.1417
 2192TIP3   OH230770   2.550   7.440  17.242 -0.0558 -0.2061 -0.4120
 2192TIP3    H130771   2.567   7.423  17.149  1.4134 -0.9343 -0.0408
 2192TIP3    H230772   2.634   7.471  17.276  0.5396 -3.4412  1.4303
 2193TIP3   OH230773   5.794   7.190  18.860 -0.4558  0.2208  0.2419
 2193TIP3    H130774   5.813   7.273  18.904  0.0933  0.0969  0.2380
 2193TIP3    H230775   5.720   7.154  18.909 -0.0177  0.2076  0.9152
 2194TIP3   OH230776   1.582   3.749  18.550 -0.8523 -0.2958  0.5202
 2194TIP3    H130777   1.595   3.756  18.645 -1.3048 -0.6962  0.6177
 2194TIP3    H230778   1.510   3.687  18.541 -2.1179  1.1834 -0.0145
 2195TIP3   OH230779   2.608   1.741  19.000  0.0408 -0.2751  0.3481
 2195TIP3    H130780   2.695   1.772  19.025 -0.0902 -0.6507  1.3500
 2195TIP3    H230781   2.555   1.821  18.993  0.2612 -0.1046  0.6122
 2196TIP3   OH230782   1.100   6.238  18.456  0.3235  0.0820  0.1270
 2196TIP3    H130783   1.128   6.324  18.489 -0.1415  0.1185  0.4354
 2196TIP3    H230784   1.018   6.221  18.501  1.3360 -1.3960  1.5632
 2197TIP3   OH230785   1.827   1.819  18.626  0.2013 -0.2629  0.0543
 2197TIP3    H130786   1.919   1.797  18.641  0.7814  0.9333 -1.4746
 2197TIP3    H230787   1.822   1.839  18.532 -1.3908  0.7551  0.3125
 2198TIP3   OH230788   2.215   0.891  18.775 -0.1695  0.6819 -0.2379
 2198TIP3    H130789   2.170   0.907  18.692  0.8638 -2.2014 -1.5070
 2198TIP3    H230790   2.146   0.880  18.839 -1.0836  0.6592 -1.2086
 2199TIP3   OH230791   2.610   4.475  16.823  0.1680  0.6580 -0.2958
 2199TIP3    H130792   2.519   4.458  16.798  0.3061  1.6740 -1.5555
 2199TIP3    H230793   2.658   4.397  16.795 -0.6963 -1.4217  3.2554
 2200TIP3   OH230794   7.609   5.691  16.980 -0.0163 -0.2702  0.9865
 2200TIP3    H130795   7.609   5.597  17.000  1.6673 -0.3390  0.7540
 2200TIP3    H230796   7.578   5.732  17.061 -0.8748 -1.0082  1.0542
 2201TIP3   OH230797   4.445   0.518  19.408  0.8278 -0.5099  0.0957
 2201TIP3    H130798   4.358   0.480  19.400  0.3072  0.6228  0.2026
 2201TIP3    H230799   4.452   0.578  19.334  1.0598  0.2754  0.7449
 2202TIP3   OH230800   4.410   1.903  18.879 -0.0222  0.0036  0.2936
 2202TIP3    H130801   4.376   1.991  18.894 -1.4086 -0.8766  3.1365
 2202TIP3    H230802   4.341   1.845  18.914  1.4221 -2.1524 -0.2243
 2203TIP3   OH230803   2.811   5.044  18.689 -0.4220 -0.2470  0.1882
 2203TIP3    H130804   2.834   5.033  18.597  0.6737  0.2731  0.3924
 2203TIP3    H230805   2.716   5.059  18.688 -0.5310 -0.9089 -0.7866
 2204TIP3   OH230806   2.397   7.190  19.190  0.0950  0.5738 -0.2118
 2204TIP3    H130807   2.418   7.251  19.119  1.0473  1.3953  0.7385
 2204TIP3    H230808   2.477   7.139  19.202 -0.6241 -0.7454 -0.8518
 2205TIP3   OH230809   0.125   6.122  18.630  0.3556  0.2934  0.4225
 2205TIP3    H130810   0.196   6.059  18.635  0.3200  0.3135  1.4321
 2205TIP3    H230811   0.162   6.197  18.583  0.7786  0.0266  0.3267
 2206TIP3   OH230812   6.607   6.888  18.568  0.4283  0.2016 -0.0850
 2206TIP3    H130813   6.694   6.905  18.604 -0.2740 -0.9896  2.3425
 2206TIP3    H230814   6.556   6.965  18.593 -0.1751 -0.8182  2.0359
 2207TIP3   OH230815   1.214   4.763  19.313 -0.2203  0.3545 -0.4013
 2207TIP3    H130816   1.144   4.701  19.330 -0.3579  0.5887 -0.0990
 2207TIP3    H230817   1.174   4.849  19.329  0.7129  0.4263  1.9664
 2208TIP3   OH230818   1.701   1.628  16.383 -0.4705 -0.1447  0.4773
 2208TIP3    H130819   1.628   1.618  16.323 -0.5614  0.9874  0.3771
 2208TIP3    H230820   1.663   1.671  16.460 -0.2262 -0.9826  1.0779
 2209TIP3   OH230821   6.367   6.312  18.150  0.0581  0.5219  1.0737
 2209TIP3    H130822   6.323   6.392  18.177 -2.5073 -0.4088 -0.0383
 2209TIP3    H230823   6.350   6.304  18.057 -1.7300 -2.3426  1.4973
 2210TIP3   OH230824   4.437   1.169  18.166  0.1520  0.6275  0.2724
 2210TIP3    H130825   4.463   1.160  18.257 -1.3432  1.8627  0.8726
 2210TIP3    H230826   4.447   1.263  18.147  1.7515  0.2088 -1.2917
 2211TIP3   OH230827   1.101   5.547  19.293 -0.0945  0.1981 -0.5482
 2211TIP3    H130828   1.150   5.629  19.288 -0.2155  0.2918 -0.2545
 2211TIP3    H230829   1.024   5.562  19.238  0.1801  0.0681 -0.9703
 2212TIP3   OH230830   5.527   2.159  17.897  0.2384  0.1722 -0.5225
 2212TIP3    H130831   5.612   2.117  17.888  0.1322  0.0945 -1.2720
 2212TIP3    H230832   5.478   2.104  17.958  0.4535 -0.2221 -0.7055
 2213TIP3   OH230833   2.789   6.242  17.296  0.3669 -0.4215  0.1343
 2213TIP3    H130834   2.857   6.203  17.351 -2.5632 -1.2133  3.4670
 2213TIP3    H230835   2.772   6.328  17.335  0.9157  0.7928 -2.0766
 2214TIP3   OH230836   0.379   7.550  18.772  0.7937  0.1569 -0.1130
 2214TIP3    H130837   0.299   7.546  18.720  0.4690 -0.1829  0.3992
 2214TIP3    H230838   0.355   7.600  18.850  1.4792  1.3265 -0.6199
 2215TIP3   OH230839   3.950   3.503  18.895  0.2863  0.5011  0.1378
 2215TIP3    H130840   3.884   3.550  18.844  0.4006 -0.7655 -1.2452
 2215TIP3    H230841   4.033   3.536  18.864  0.3432  0.9462  0.7425
 2216TIP3   OH230842   3.114   5.209  18.864 -0.6917 -0.5079 -0.8464
 2216TIP3    H130843   3.059   5.285  18.845  0.2050  0.0695 -1.1962
 2216TIP3    H230844   3.056   5.148  18.909 -1.0606  1.0102  0.8708
 2217TIP3   OH230845   3.240   0.245  16.636  0.1051  0.1876  0.2377
 2217TIP3    H130846   3.237   0.150  16.648 -0.3515  0.1231 -0.3920
 2217TIP3    H230847   3.315   0.273  16.689 -0.5159 -0.3629  1.4435
 2218TIP3   OH230848   3.433   4.791  18.056  0.1010  0.9285  0.1656
 2218TIP3    H130849   3.412   4.725  18.122  0.9043  0.3088 -0.1738
 2218TIP3    H230850   3.529   4.791  18.052  0.0815  0.2539 -1.6471
 2219TIP3   OH230851   7.096   3.536  17.531 -0.2219  0.3025  0.2742
 2219TIP3    H130852   7.166   3.470  17.536 -0.0138  0.6460  2.4415
 2219TIP3    H230853   7.116   3.585  17.451  0.3211 -1.4328 -0.7290
 2220TIP3   OH230854   0.858   5.531  16.975  0.0340 -0.0370 -0.0174
 2220TIP3    H130855   0.768   5.519  17.004 -0.1230  0.5231 -0.2633
 2220TIP3    H230856   0.850   5.563  16.885  0.4443  1.1206  0.3393
 2221TIP3   OH230857   0.186   7.420  16.574  0.6795  0.3425 -0.2511
 2221TIP3    H130858   0.192   7.374  16.658 -0.0360  1.6239  0.5325
 2221TIP3    H230859   0.112   7.380  16.530 -0.1331  0.9092  0.5560
 2222TIP3   OH230860   1.406   4.144  16.339  0.1280 -0.7614 -0.1291
 2222TIP3    H130861   1.495   4.179  16.341  0.1025 -0.4572 -1.9180
 2222TIP3    H230862   1.416   4.052  16.315 -0.0418  0.0163 -3.9662
 2223TIP3   OH230863   4.893   6.579  17.794  0.0446  0.2707  0.5985
 2223TIP3    H130864   4.863   6.635  17.722  0.3981 -1.5507 -1.0781
 2223TIP3    H230865   4.976   6.618  17.821  1.0100 -0.1431 -1.5066
 2224TIP3   OH230866   4.666   1.885  16.979  0.1070 -0.0807  0.0687
 2224TIP3    H130867   4.604   1.840  16.922 -0.5358  0.7156  0.1303
 2224TIP3    H230868   4.645   1.978  16.971  0.2658  0.0835  1.2758
 2225TIP3   OH230869   1.381   4.254  19.122 -0.1888 -0.0694  0.2359
 2225TIP3    H130870   1.381   4.159  19.110  2.0271  0.0714 -1.8590
 2225TIP3    H230871   1.341   4.288  19.042  0.8023  0.7742  0.0745
 2226TIP3   OH230872   1.791   0.279  18.107  0.1704  0.0796  0.5276
 2226TIP3    H130873   1.831   0.366  18.105  0.1978  0.2402  3.7055
 2226TIP3    H230874   1.796   0.249  18.016 -0.1530  3.4831 -0.7661
 2227TIP3   OH230875   5.723   2.143  16.618  0.5013 -0.4688  0.1476
 2227TIP3    H130876   5.640   2.174  16.582  0.7563  0.6487  0.4893
 2227TIP3    H230877   5.789   2.204  16.583  1.1355 -1.1313  0.1575
 2228TIP3   OH230878   5.483   6.531  19.536  0.2465  0.3770  1.2947
 2228TIP3    H130879   5.464   6.438  19.525  1.7146  0.1229  0.6550
 2228TIP3    H230880   5.410   6.577  19.494 -0.0853 -0.5005  0.9061
 2229TIP3   OH230881   3.306   7.622  16.472 -0.4935 -0.0909 -0.0874
 2229TIP3    H130882   3.343   7.535  16.456  0.3884 -0.4959  3.3351
 2229TIP3    H230883   3.231   7.627  16.413  0.3738 -2.4696 -1.5692
 2230TIP3   OH230884   6.921   4.048  17.445 -0.3795 -0.1191  0.4168
 2230TIP3    H130885   6.958   4.132  17.474 -1.9358  0.5563  0.5549
 2230TIP3    H230886   6.893   4.064  17.355 -3.5142  0.5533  1.3993
 2231TIP3   OH230887   3.332   6.263  19.388  0.6845  0.1638  0.3616
 2231TIP3    H130888   3.374   6.179  19.371  1.0372  0.6822 -1.5662
 2231TIP3    H230889   3.404   6.326  19.383  0.2011  0.7238  0.4170
 2232TIP3   OH230890   3.403   5.427  18.594 -0.0637 -0.2889  0.1312
 2232TIP3    H130891   3.432   5.489  18.661  0.1827  0.0200 -0.2571
 2232TIP3    H230892   3.389   5.345  18.642  0.5749 -0.2011  0.4819
 2233TIP3   OH230893   5.790   0.575  18.998 -0.3532 -0.2465 -0.1024
 2233TIP3    H130894   5.720   0.637  18.978 -0.4720 -0.2281  0.3548
 2233TIP3    H230895   5.836   0.615  19.072  0.2027 -0.2128 -0.4618
 2234TIP3   OH230896   2.994   4.873  17.251 -0.3371  0.0609 -0.2539
 2234TIP3    H130897   2.917   4.900  17.201 -0.3092 -1.7131 -1.3312
 2234TIP3    H230898   2.958   4.842  17.335 -0.5131  1.6279  0.2974
 2235TIP3   OH230899   6.155   6.312  18.362 -0.0402 -0.0752 -0.4838
 2235TIP3    H130900   6.226   6.247  18.354  0.0711  0.2873 -4.6137
 2235TIP3    H230901   6.200   6.395  18.375  0.4623  0.1369 -2.9860
 2236TIP3   OH230902   1.718   1.404  16.697 -0.4945  0.3021 -0.4976
 2236TIP3    H130903   1.624   1.399  16.682 -0.6532 -0.2017  0.5642
 2236TIP3    H230904   1.757   1.371  16.616 -1.2105  0.7293 -1.0374
 2237TIP3   OH230905   1.320   0.460  17.863  0.1837  0.2234 -0.5434
 2237TIP3    H130906   1.356   0.421  17.783 -0.4671  0.6395 -1.0528
 2237TIP3    H230907   1.229   0.433  17.864  0.2137  0.1346  0.1209
 2238TIP3   OH230908   6.078   3.972  17.996 -0.0693 -0.4563  0.0442
 2238TIP3    H130909   6.086   3.903  17.930 -0.7293 -0.9825  0.4961
 2238TIP3    H230910   6.146   3.952  18.060  1.7267  1.0513 -1.3179
 2239TIP3   OH230911   2.372   6.364  17.786 -0.2966 -0.4273  0.6308
 2239TIP3    H130912   2.451   6.352  17.838  2.1505 -0.2318 -2.6895
 2239TIP3    H230913   2.378   6.453  17.752 -1.1634 -0.8781 -0.8140
 2240TIP3   OH230914   1.845   6.217  19.251  0.6678 -0.0943 -0.0962
 2240TIP3    H130915   1.887   6.294  19.215  1.2462 -0.5481 -0.3998
 2240TIP3    H230916   1.910   6.147  19.243 -0.0641 -0.7581 -0.3843
 2241TIP3   OH230917   1.262   4.626  16.821  0.3047  0.2265  0.1203
 2241TIP3    H130918   1.323   4.592  16.755  0.8682  0.1571  0.6755
 2241TIP3    H230919   1.237   4.550  16.872  3.2298  0.8285  2.7590
 2242TIP3   OH230920   6.484   5.839  18.895  0.0140  0.4054 -0.0991
 2242TIP3    H130921   6.470   5.921  18.943  0.5584 -0.4528  1.6098
 2242TIP3    H230922   6.579   5.833  18.887 -0.0577  0.3199 -0.9335
 2243TIP3   OH230923   4.264   6.935  16.886 -0.6350 -0.0921 -0.6091
 2243TIP3    H130924   4.326   6.977  16.945 -0.4722 -0.2372 -0.6739
 2243TIP3    H230925   4.262   6.991  16.809  0.1811 -0.6106 -1.0245
 2244TIP3   OH230926   0.067   6.239  19.142 -0.0995 -0.2231  0.0517
 2244TIP3    H130927   0.133   6.257  19.209 -0.4916 -1.5057  0.7950
 2244TIP3    H230928   0.071   6.315  19.084  0.9161  0.4534  0.9810
 2245TIP3   OH230929   6.513   3.529  16.869 -0.0638  0.0161 -0.0317
 2245TIP3    H130930   6.497   3.600  16.931 -0.9532  0.8119 -1.1230
 2245TIP3    H230931   6.591   3.557  16.821 -1.0377  0.8348 -1.2039
 2246TIP3   OH230932   2.261   0.255  17.000  0.0934  0.5997  0.4899
 2246TIP3    H130933   2.329   0.250  16.933  0.4443  2.0034  0.7118
 2246TIP3    H230934   2.221   0.168  17.000  2.2232 -0.4327  0.7061
 2247TIP3   OH230935   3.967   3.765  16.704 -0.1435 -0.6163  0.0850
 2247TIP3    H130936   4.057   3.756  16.733 -0.7381 -0.2537  2.2399
 2247TIP3    H230937   3.950   3.859  16.707 -0.5817 -0.6736 -0.3939
 2248TIP3   OH230938   3.864   1.355  16.656 -0.0311  0.2613 -0.2276
 2248TIP3    H130939   3.930   1.337  16.722 -0.3777  0.0834  0.0760
 2248TIP3    H230940   3.802   1.413  16.700 -1.6081 -1.8065  0.4550
 2249TIP3   OH230941   4.815   1.576  17.335 -0.4246 -0.0157  0.5151
 2249TIP3    H130942   4.781   1.582  17.246  0.8229  0.2450  0.0366
 2249TIP3    H230943   4.867   1.496  17.335 -0.2278  0.1112  0.9404
 2250TIP3   OH230944   0.453   4.975  19.124  0.2677  0.3184 -0.7639
 2250TIP3    H130945   0.411   4.990  19.039 -1.4998 -0.8495 -0.1616
 2250TIP3    H230946   0.380   4.974  19.186  1.1745 -1.7027  0.3567
 2251TIP3   OH230947   6.371   3.486  19.136  0.4920  0.3029  0.0414
 2251TIP3    H130948   6.329   3.537  19.067  1.2610 -0.6877 -1.2003
 2251TIP3    H230949   6.309   3.414  19.154  0.0433  0.8594  0.8062
 2252TIP3   OH230950   3.164   2.100  17.538 -0.3074  0.3408  0.0707
 2252TIP3    H130951   3.154   2.068  17.627  0.1935 -0.3357 -0.1066
 2252TIP3    H230952   3.140   2.026  17.483  4.5293 -1.2434 -0.3933
 2253TIP3   OH230953   7.577   2.059  17.416  0.1372 -0.0735 -0.2816
 2253TIP3    H130954   7.488   2.094  17.419  1.1358  2.8601 -0.8834
 2253TIP3    H230955   7.602   2.047  17.507 -0.7317 -0.5450 -0.1031
 2254TIP3   OH230956   3.888   4.104  18.006 -0.1611 -0.5810 -0.1759
 2254TIP3    H130957   3.970   4.153  17.994 -2.2015  2.8389 -1.3577
 2254TIP3    H230958   3.871   4.106  18.100  0.8571 -0.9997  0.0326
 2255TIP3   OH230959   6.085   4.850  18.986 -0.2962 -0.0854  0.5300
 2255TIP3    H130960   6.174   4.820  18.967 -0.2857  0.2039  0.1105
 2255TIP3    H230961   6.093   4.945  18.995 -0.8041  0.1292 -0.9875
 2256TIP3   OH230962   6.491   1.654  19.187 -0.2224 -0.0378  0.0114
 2256TIP3    H130963   6.418   1.594  19.178  0.5724 -0.9800 -0.3543
 2256TIP3    H230964   6.556   1.622  19.124  0.0083  1.5366 -0.6035
 2257TIP3   OH230965   3.480   4.047  19.456 -0.6015 -0.0586 -0.1336
 2257TIP3    H130966   3.549   3.990  19.422 -1.8685 -1.5212 -0.3352
 2257TIP3    H230967   3.418   4.056  19.383 -0.7259  1.1143  0.0889
 2258TIP3   OH230968   5.554   3.361  18.053 -0.5178  0.1769 -0.4573
 2258TIP3    H130969   5.505   3.355  18.135 -0.5205  1.9900 -0.2936
 2258TIP3    H230970   5.641   3.390  18.079  0.0958 -1.1769 -0.9321
 2259TIP3   OH230971   5.640   0.939  18.919  0.0262 -0.1586  0.1926
 2259TIP3    H130972   5.558   0.977  18.889 -0.1594 -0.0236  0.8556
 2259TIP3    H230973   5.614   0.872  18.982  0.4037 -0.4639  0.0249
 2260TIP3   OH230974   7.321   5.015  18.737 -0.0657 -0.8675  0.1127
 2260TIP3    H130975   7.395   5.038  18.682 -0.0291 -1.2899 -0.0153
 2260TIP3    H230976   7.350   5.035  18.826 -0.1941 -0.0087 -0.0312
 2261TIP3   OH230977   4.554   3.624  16.796 -0.9361 -0.4325 -0.1758
 2261TIP3    H130978   4.646   3.626  16.821 -0.9923 -0.6335  0.0470
 2261TIP3    H230979   4.552   3.665  16.709 -0.3321 -2.2310 -1.0972
 2262TIP3   OH230980   4.525   7.648  18.963  0.1015  0.2910 -0.5395
 2262TIP3    H130981   4.478   7.730  18.948  1.2401  0.8957 -0.8850
 2262TIP3    H230982   4.617   7.671  18.953  0.3914 -1.3061 -2.0361
 2263TIP3   OH230983   4.823   6.059  18.816  0.1891 -0.5930  0.3636
 2263TIP3    H130984   4.782   5.975  18.796  1.6608 -1.0887 -0.8017
 2263TIP3    H230985   4.901   6.037  18.867  1.7247 -0.1831 -1.6830
 2264TIP3   OH230986   5.761   5.863  16.907 -0.1826  1.0649 -0.0980
 2264TIP3    H130987   5.686   5.857  16.965 -0.8199  1.6936 -0.8327
 2264TIP3    H230988   5.723   5.884  16.821  0.6132 -0.9459 -1.0158
 2265TIP3   OH230989   6.087   5.459  19.342  0.3278 -0.5957 -0.2761
 2265TIP3    H130990   6.165   5.501  19.305  0.3862 -0.7742 -0.3534
 2265TIP3    H230991   6.091   5.369  19.310 -0.5537 -0.2953 -1.2863
 2266TIP3   OH230992   6.647   7.161  18.367  0.4486  0.2280 -0.2834
 2266TIP3    H130993   6.667   7.246  18.330  1.5954 -0.3210 -0.9802
 2266TIP3    H230994   6.636   7.177  18.461  0.8997  1.0969 -0.3748
 2267TIP3   OH230995   1.875   1.034  17.131  0.0132 -0.2182  0.5036
 2267TIP3    H130996   1.858   1.104  17.068  1.8741 -1.1995 -1.1746
 2267TIP3    H230997   1.913   0.964  17.079 -0.6642 -2.0431  2.3475
 2268TIP3   OH230998   3.064   7.341  18.781 -0.8062  0.7056  0.2531
 2268TIP3    H130999   3.149   7.346  18.738 -1.1851  1.1624 -0.4623
 2268TIP3    H231000   3.063   7.254  18.822 -0.3982  0.2855 -0.5981
 2269TIP3   OH231001   0.266   1.466  17.107  1.1115  0.1797  0.0088
 2269TIP3    H131002   0.176   1.497  17.093  1.5305  1.2876 -0.3788
 2269TIP3    H231003   0.297   1.520  17.180  0.7214 -1.8102  1.7290
 2270TIP3   OH231004   4.984   0.854  19.123  0.4461 -0.0004  0.0786
 2270TIP3    H131005   4.903   0.820  19.162  0.0841 -1.3585 -1.7260
 2270TIP3    H231006   5.026   0.777  19.086  2.0857  0.8495  0.0990
 2271TIP3   OH231007   1.027   5.435  17.791 -0.2234  0.4389 -0.3817
 2271TIP3    H131008   0.973   5.474  17.721  1.1378  0.0157 -1.7094
 2271TIP3    H231009   0.979   5.357  17.817 -0.6814  0.5183 -0.9588
 2272TIP3   OH231010   5.832   0.170  17.209 -0.9326 -0.1093 -0.0269
 2272TIP3    H131011   5.816   0.254  17.251  1.2915  0.4389 -0.1624
 2272TIP3    H231012   5.809   0.184  17.117  1.9015  1.2429 -0.6168
 2273TIP3   OH231013   5.705   6.621  16.833  0.0380 -0.5479 -0.0838
 2273TIP3    H131014   5.737   6.598  16.921  0.3856 -1.1263 -0.3502
 2273TIP3    H231015   5.682   6.714  16.839 -1.1113 -0.8763  0.9490
 2274TIP3   OH231016   6.586   6.638  18.441 -0.2690 -0.0114  0.9758
 2274TIP3    H131017   6.671   6.601  18.464 -0.5511 -0.6763  0.9668
 2274TIP3    H231018   6.601   6.733  18.437  0.4011 -0.1016  1.2551
 2275TIP3   OH231019   2.539   4.953  18.647 -0.4412  0.1232  0.6240
 2275TIP3    H131020   2.514   4.931  18.736 -1.7684 -0.7562  0.0646
 2275TIP3    H231021   2.497   4.886  18.593 -0.6843  1.3372 -0.7623
 2276TIP3   OH231022   2.003   6.871  16.726 -0.1339  0.0651  0.7083
 2276TIP3    H131023   2.016   6.777  16.713 -1.3705 -0.2038  1.2793
 2276TIP3    H231024   1.916   6.878  16.766  0.2145  1.4067  1.2879
 2277TIP3   OH231025   7.184   3.940  17.333 -0.0765 -0.0550  0.2018
 2277TIP3    H131026   7.178   3.855  17.289  0.7147 -0.2344  0.4267
 2277TIP3    H231027   7.129   3.998  17.280  0.5757 -0.3532 -0.8347
 2278TIP3   OH231028   1.191   1.077  18.766  0.1183 -0.0261  0.2022
 2278TIP3    H131029   1.163   1.165  18.789 -1.5276 -0.7531  1.1089
 2278TIP3    H231030   1.114   1.036  18.726  1.1738 -0.7255 -1.2322
 2279TIP3   OH231031   5.565   6.147  16.762  0.2529 -0.1614  0.3980
 2279TIP3    H131032   5.567   6.223  16.820  1.3744 -1.0735  1.6064
 2279TIP3    H231033   5.646   6.153  16.711  1.1860 -1.3721  1.6611
 2280TIP3   OH231034   3.666   4.793  18.274 -0.3140  0.0374  0.1018
 2280TIP3    H131035   3.756   4.805  18.305  0.2785 -1.3143 -0.9658
 2280TIP3    H231036   3.614   4.781  18.354  0.8423 -1.4505  0.6745
 2281TIP3   OH231037   0.841   7.451  18.936  0.1458  0.0732 -0.0934
 2281TIP3    H131038   0.828   7.527  18.880  1.2108  0.9917  0.8290
 2281TIP3    H231039   0.889   7.486  19.012  2.7879 -1.9085 -0.7157
 2282TIP3   OH231040   4.924   7.463  16.930  0.1666  0.1196 -0.2454
 2282TIP3    H131041   4.991   7.459  16.862  1.2702  1.1959  0.7083
 2282TIP3    H231042   4.865   7.533  16.902  0.6552  0.6034 -0.0963
 2283TIP3   OH231043   5.573   7.072  18.997  0.2761  0.0212  0.8805
 2283TIP3    H131044   5.518   7.040  19.068  0.1388 -0.2504  0.6538
 2283TIP3    H231045   5.539   7.029  18.918  0.0196  0.8006  0.5516
 2284TIP3   OH231046   1.169   6.748  17.714  0.3045  0.0881 -0.2754
 2284TIP3    H131047   1.201   6.693  17.786  0.4022 -1.1156 -1.2030
 2284TIP3    H231048   1.243   6.753  17.653 -0.6957 -1.4376 -1.7030
 2285TIP3   OH231049   0.023   5.377  19.142 -0.0510 -0.5652  0.0294
 2285TIP3    H131050  -0.016   5.294  19.169  0.2581 -0.6925  0.0763
 2285TIP3    H231051  -0.024   5.400  19.062  0.1677 -0.9997 -0.2253
 2286TIP3   OH231052   0.311   2.241  17.078  1.2193  0.3572 -0.0136
 2286TIP3    H131053   0.241   2.243  17.144 -1.7775  0.0353 -2.8919
 2286TIP3    H231054   0.359   2.160  17.098 -0.5421 -0.5420  0.9115
 2287TIP3   OH231055   1.075   5.917  16.697 -0.3839 -0.0971  0.0877
 2287TIP3    H131056   1.131   5.846  16.667  0.2591  0.7681 -0.8270
 2287TIP3    H231057   1.022   5.940  16.621 -0.1674  0.7938  0.1957
 2288TIP3   OH231058   5.779   4.958  17.389  0.1800  0.3595 -0.1419
 2288TIP3    H131059   5.787   4.898  17.315  1.0997  0.7827 -0.3932
 2288TIP3    H231060   5.695   5.002  17.375  0.2870  0.3449 -0.8645
 2289TIP3   OH231061   0.449   4.453  18.616 -0.1653 -0.4054 -0.0691
 2289TIP3    H131062   0.496   4.519  18.668  0.7440 -1.9058  1.1016
 2289TIP3    H231063   0.373   4.430  18.670 -0.4993 -0.3163 -0.4928
 2290TIP3   OH231064   1.715   7.280  18.694 -0.2033  0.0664  0.3596
 2290TIP3    H131065   1.764   7.219  18.749 -0.9918 -0.2902  0.6753
 2290TIP3    H231066   1.631   7.238  18.680 -0.2726  0.4784 -0.5389
 2291TIP3   OH231067   2.294   2.511  17.861 -0.1422 -0.4164  0.0831
 2291TIP3    H131068   2.222   2.532  17.801  0.6829  0.2868 -0.6941
 2291TIP3    H231069   2.258   2.527  17.948 -1.0972 -0.6327 -0.2539
 2292TIP3   OH231070   7.481   5.582  19.224  0.2292  0.0175 -0.4150
 2292TIP3    H131071   7.523   5.500  19.198  0.8112 -0.2568  1.2375
 2292TIP3    H231072   7.551   5.647  19.220  0.1445  0.1189 -0.2611
 2293TIP3   OH231073   7.218   2.145  19.208  0.2343 -0.0475  0.6541
 2293TIP3    H131074   7.300   2.171  19.166 -0.4240  2.4197  0.7418
 2293TIP3    H231075   7.225   2.177  19.298 -0.7804  0.1485  0.6764
 2294TIP3   OH231076   2.715   1.409  17.533 -0.1457 -0.4604 -0.2369
 2294TIP3    H131077   2.669   1.493  17.544  2.8651  0.9689  4.2774
 2294TIP3    H231078   2.647   1.343  17.545 -2.3531  1.2154 -2.4667
 2295TIP3   OH231079   5.519   1.776  18.766  0.6368 -0.7249  0.0296
 2295TIP3    H131080   5.468   1.790  18.846 -0.5353  3.0944 -1.1510
 2295TIP3    H231081   5.553   1.863  18.744  0.5955 -1.5019 -3.8047
 2296TIP3   OH231082   6.776   5.215  18.845  0.2416  0.2100  0.4328
 2296TIP3    H131083   6.856   5.175  18.881  0.2047  0.9605  1.3980
 2296TIP3    H231084   6.725   5.141  18.812 -0.1414 -0.6763  2.7860
 2297TIP3   OH231085   4.377   2.511  18.001  0.6221  0.2071  0.0324
 2297TIP3    H131086   4.443   2.457  17.958  1.0178  0.0531  0.8185
 2297TIP3    H231087   4.302   2.508  17.942  1.5222  0.9232 -1.2038
 2298TIP3   OH231088   2.968   2.422  18.736  0.1319 -0.1317 -0.5071
 2298TIP3    H131089   2.985   2.451  18.826  1.6038  0.4196 -0.9278
 2298TIP3    H231090   3.015   2.484  18.682 -0.3600 -0.7338 -1.6482
 2299TIP3   OH231091   2.782   2.667  18.566  0.1820 -0.8914  0.0850
 2299TIP3    H131092   2.826   2.712  18.494  1.2649 -0.5634  0.9193
 2299TIP3    H231093   2.826   2.582  18.571  1.0080 -0.4267  1.1534
 2300TIP3   OH231094   3.738   1.791  17.160 -0.2117  0.9118  0.0316
 2300TIP3    H131095   3.693   1.784  17.075 -1.1381  0.3559  0.5511
 2300TIP3    H231096   3.822   1.832  17.139 -0.7818  1.5897 -1.0380
 2301TIP3   OH231097   0.996   2.330  19.092  0.2982 -0.1585  0.2961
 2301TIP3    H131098   1.078   2.334  19.141  1.8474 -2.2651 -1.8821
 2301TIP3    H231099   0.996   2.411  19.041  0.3531  0.4540  1.2442
 2302TIP3   OH231100   4.695   1.069  16.863 -0.5826 -0.0586  0.0478
 2302TIP3    H131101   4.691   1.165  16.858 -2.3453 -0.1187 -0.3494
 2302TIP3    H231102   4.681   1.039  16.773 -0.1665 -0.6950  0.1879
 2303TIP3   OH231103   1.500   4.414  19.335 -0.7245 -0.5809 -0.3038
 2303TIP3    H131104   1.429   4.372  19.287 -0.1027 -0.5442 -1.2792
 2303TIP3    H231105   1.558   4.342  19.359 -1.5364 -0.7398  1.3282
 2304TIP3   OH231106   5.832   0.159  18.317  0.1282 -0.0623 -0.5963
 2304TIP3    H131107   5.849   0.253  18.317 -0.7465  0.1127 -1.0196
 2304TIP3    H231108   5.773   0.145  18.391  1.9035 -0.6290  0.7652
 2305TIP3   OH231109   5.136   4.624  16.791 -0.3321  0.6755  0.1221
 2305TIP3    H131110   5.228   4.604  16.804 -0.2580  0.0325 -1.2451
 2305TIP3    H231111   5.112   4.578  16.711 -1.7684  1.0737  0.2906
 2306TIP3   OH231112   3.222   2.833  17.955  0.3985  0.5161  0.3369
 2306TIP3    H131113   3.281   2.869  18.021  0.8508  1.4462 -0.5473
 2306TIP3    H231114   3.277   2.776  17.902  0.1548  0.1887  0.4331
 2307TIP3   OH231115   3.773   7.367  17.909 -0.1748  0.3230  0.4377
 2307TIP3    H131116   3.725   7.429  17.965  0.4203  2.4433 -1.2615
 2307TIP3    H231117   3.844   7.335  17.964 -0.0219  1.7945  1.1369
 2308TIP3   OH231118   3.146   5.098  17.601 -0.1480  0.1031  0.3832
 2308TIP3    H131119   3.051   5.100  17.589 -0.2298  0.6763  1.0309
 2308TIP3    H231120   3.163   5.167  17.665  0.3969 -1.7352  2.3172
 2309TIP3   OH231121   7.011   5.285  18.214 -0.1625  0.6072 -0.0758
 2309TIP3    H131122   6.920   5.259  18.223  0.4268 -0.9104  2.4653
 2309TIP3    H231123   7.047   5.222  18.150 -0.2611 -0.7704  1.1686
 2310TIP3   OH231124   5.571   1.517  17.599  0.0562 -0.4413  0.1246
 2310TIP3    H131125   5.508   1.582  17.567 -0.0368 -0.7668 -0.3701
 2310TIP3    H231126   5.633   1.567  17.652 -0.3756 -0.0514  0.2633
 2311TIP3   OH231127   2.381   0.778  17.512 -0.2544  0.2455  0.1389
 2311TIP3    H131128   2.419   0.696  17.481 -1.5912 -0.1065 -0.6482
 2311TIP3    H231129   2.361   0.827  17.432 -0.8377  0.6918  0.5482
 2312TIP3   OH231130   1.014   5.891  17.762  0.4312  0.0646  0.3676
 2312TIP3    H131131   0.977   5.974  17.790  0.2596  0.0490  0.1897
 2312TIP3    H231132   1.099   5.914  17.723 -0.7029  0.4852 -2.0483
 2313TIP3   OH231133   7.611   4.516  18.793  0.4017 -0.1009 -0.0349
 2313TIP3    H131134   7.541   4.581  18.795  0.0299 -0.5052  0.8739
 2313TIP3    H231135   7.630   4.504  18.700 -0.6651  0.0929 -0.2914
 2314TIP3   OH231136   4.111   1.054  17.261  0.3808  0.5146  0.2043
 2314TIP3    H131137   4.122   1.142  17.297 -0.2853 -0.0587  1.8668
 2314TIP3    H231138   4.017   1.036  17.269  0.5778 -0.5315  0.3051
 2315TIP3   OH231139   2.677   6.411  17.784 -0.1477 -0.4611 -0.3469
 2315TIP3    H131140   2.681   6.488  17.727 -1.2859  0.5008  0.8052
 2315TIP3    H231141   2.769   6.388  17.800  0.1994 -0.5519 -2.2467
 2316TIP3   OH231142   1.650   6.912  18.387 -0.0520  0.4701 -0.5161
 2316TIP3    H131143   1.703   6.866  18.322  1.9351 -0.4046  1.5897
 2316TIP3    H231144   1.693   6.997  18.397  2.1168 -0.7621  2.2526
 2317TIP3   OH231145   7.467   3.977  16.817 -0.3011 -0.1608 -0.7410
 2317TIP3    H131146   7.482   3.894  16.773  0.5776 -0.1602 -0.4543
 2317TIP3    H231147   7.554   4.016  16.827 -0.7663  1.2358 -1.7289
 2318TIP3   OH231148   1.485   0.077  16.543 -0.5247  0.6057 -0.0136
 2318TIP3    H131149   1.507   0.009  16.607  0.2250 -0.7139 -1.5884
 2318TIP3    H231150   1.398   0.052  16.511 -0.2994  0.4464 -0.5102
 2319TIP3   OH231151   3.496   3.294  17.772 -0.4055  0.0615 -0.8573
 2319TIP3    H131152   3.490   3.222  17.835 -0.4836 -0.1106 -1.0561
 2319TIP3    H231153   3.496   3.250  17.686  3.0502  0.0032 -0.9799
 2320TIP3   OH231154   5.558   5.723  18.945  0.1073 -0.7267  0.2737
 2320TIP3    H131155   5.613   5.797  18.921  2.3410 -2.1187  0.8074
 2320TIP3    H231156   5.490   5.720  18.877  0.9708  0.7681 -0.7049
 2321TIP3   OH231157   0.548   1.801  17.234 -0.1327 -0.0217  0.3527
 2321TIP3    H131158   0.628   1.773  17.190 -0.4753  2.0207 -1.7454
 2321TIP3    H231159   0.577   1.865  17.299 -0.0411  0.7823 -0.4669
 2322TIP3   OH231160   0.232   4.960  17.845 -0.5580 -0.2879 -0.4690
 2322TIP3    H131161   0.322   4.966  17.875 -0.5153  1.3234 -0.8127
 2322TIP3    H231162   0.189   4.902  17.908  0.5627 -0.5464  0.0718
 2323TIP3   OH231163   1.116   6.324  16.428  0.1809  0.4897 -0.3296
 2323TIP3    H131164   1.184   6.388  16.408  0.2964  0.6076  0.4109
 2323TIP3    H231165   1.160   6.239  16.422  1.2743  0.6377  3.0886
 2324TIP3   OH231166   5.044   6.364  18.212  0.0785 -0.3051  0.5941
 2324TIP3    H131167   5.073   6.334  18.298  0.9648 -2.2969 -0.3392
 2324TIP3    H231168   5.003   6.287  18.171 -0.2741  0.5712 -0.7971
 2325TIP3   OH231169   3.510   2.706  18.467 -0.1563  0.1086 -0.1817
 2325TIP3    H131170   3.456   2.781  18.492 -0.4283  0.3607 -1.4474
 2325TIP3    H231171   3.471   2.676  18.385  1.4872  0.1436 -1.0016
 2326TIP3   OH231172   1.260   6.698  16.896  0.5593  0.3728 -0.0454
 2326TIP3    H131173   1.285   6.608  16.919  1.1352  0.5217 -0.0744
 2326TIP3    H231174   1.225   6.692  16.808 -2.1128 -0.2902  0.9677
 2327TIP3   OH231175   0.422   2.582  18.414  0.4184  0.3280  0.5579
 2327TIP3    H131176   0.337   2.612  18.446 -0.3805 -1.3651  0.1463
 2327TIP3    H231177   0.413   2.487  18.409  2.1159  0.1733 -0.1538
 2328TIP3   OH231178   4.496   0.866  16.687 -0.4270 -0.0828 -0.4673
 2328TIP3    H131179   4.536   0.800  16.742 -1.0751 -1.1657 -1.2591
 2328TIP3    H231180   4.566   0.929  16.670  0.1428 -0.4581  0.4503
 2329TIP3   OH231181   6.375   0.345  18.949  0.3388 -0.0283  0.2580
 2329TIP3    H131182   6.383   0.373  19.040  2.0383  0.5710 -0.0390
 2329TIP3    H231183   6.397   0.423  18.898  1.0100 -0.7799 -0.6430
 2330TIP3   OH231184   0.234   3.370  18.734  0.7283  0.2470  0.1164
 2330TIP3    H131185   0.162   3.412  18.687  1.2615 -0.5704 -1.4693
 2330TIP3    H231186   0.275   3.311  18.670  2.0713 -0.1990  1.3232
 2331TIP3   OH231187   4.667   4.448  18.491  0.0534 -0.2459  0.4233
 2331TIP3    H131188   4.730   4.513  18.524 -0.3266  1.0635 -1.2605
 2331TIP3    H231189   4.591   4.500  18.465 -0.0284 -1.2604 -1.5570
 2332TIP3   OH231190   2.850   4.754  17.796 -0.0011  0.1162 -0.0300
 2332TIP3    H131191   2.757   4.748  17.819  0.0628  2.3670  1.1021
 2332TIP3    H231192   2.895   4.755  17.881  0.8785  0.9702 -0.4899
 2333TIP3   OH231193   5.372   6.993  18.771 -0.0450  0.1092 -0.9229
 2333TIP3    H131194   5.293   7.018  18.723 -0.3321 -0.7619 -0.9229
 2333TIP3    H231195   5.407   6.919  18.722  0.0292 -0.3611 -0.1812
 2334TIP3   OH231196   4.852   5.555  16.593 -0.1287 -0.4441 -0.3627
 2334TIP3    H131197   4.893   5.469  16.594  0.1719 -0.3016 -0.6086
 2334TIP3    H231198   4.916   5.613  16.634 -0.9637 -0.6183  1.2828
 2335TIP3   OH231199   1.856   4.075  18.158  0.0636  0.1028  0.0481
 2335TIP3    H131200   1.821   4.013  18.223 -0.2674 -0.5361 -0.7195
 2335TIP3    H231201   1.778   4.116  18.120  0.2722  0.7936  0.3486
 2336TIP3   OH231202   0.556   3.772  17.348  0.2467 -0.0802  0.2410
 2336TIP3    H131203   0.603   3.689  17.350  0.9910  0.3351  1.1951
 2336TIP3    H231204   0.469   3.750  17.316  0.6406 -1.1134 -0.1600
 2337TIP3   OH231205   1.252   6.021  18.832  0.3545  0.1403 -0.2290
 2337TIP3    H131206   1.183   6.086  18.822  0.4441  0.4706  1.1888
 2337TIP3    H231207   1.286   6.035  18.920  0.8357 -1.3773 -0.1502
 2338TIP3   OH231208   6.128   4.517  18.236  0.1032  0.7446 -0.5351
 2338TIP3    H131209   6.206   4.470  18.265  0.4917  1.6030 -0.1736
 2338TIP3    H231210   6.055   4.467  18.274  0.5447  0.9993  0.7012
 2339TIP3   OH231211   0.677   0.793  18.760 -0.6461  0.3459 -0.1447
 2339TIP3    H131212   0.598   0.846  18.774 -0.4174  0.8381 -0.7224
 2339TIP3    H231213   0.693   0.797  18.666  0.8761  1.4081  0.1252
 2340TIP3   OH231214   6.525   2.728  18.568 -0.0961 -0.4263 -0.8646
 2340TIP3    H131215   6.541   2.745  18.475  0.3830  0.0655 -0.6970
 2340TIP3    H231216   6.517   2.633  18.574 -1.8922 -0.3613 -1.6805
 2341TIP3   OH231217   6.184   6.126  19.140  0.3721 -0.7308 -0.3795
 2341TIP3    H131218   6.089   6.138  19.141  0.4419 -0.1166 -0.4910
 2341TIP3    H231219   6.216   6.189  19.076  0.9011 -0.5434  0.0566
 2342TIP3   OH231220   6.841   0.581  17.716  0.2525 -0.3345 -0.2543
 2342TIP3    H131221   6.749   0.557  17.708  0.3437 -0.4467 -1.0228
 2342TIP3    H231222   6.871   0.537  17.796 -0.7936  1.1156  1.0192
 2343TIP3   OH231223   3.833   0.754  17.643  0.0341  0.0776  0.3818
 2343TIP3    H131224   3.738   0.756  17.653 -0.2554  0.3752 -1.7676
 2343TIP3    H231225   3.865   0.824  17.700 -1.1503  0.7665  0.2463
 2344TIP3   OH231226   1.550   5.069  17.283  0.1118  0.3629  0.1019
 2344TIP3    H131227   1.636   5.038  17.256  0.5779 -0.2837  2.1230
 2344TIP3    H231228   1.493   4.993  17.277 -0.3335  0.7792 -1.1907
 2345TIP3   OH231229   5.417   6.667  17.440  0.0477 -0.1638  0.3129
 2345TIP3    H131230   5.430   6.712  17.524 -0.8853  0.2526  0.2507
 2345TIP3    H231231   5.370   6.587  17.463 -0.3357  0.0195  0.1853
 2346TIP3   OH231232   0.804   3.317  19.205 -0.6231 -0.0326  0.9174
 2346TIP3    H131233   0.761   3.394  19.167 -2.0515 -1.1976  0.0390
 2346TIP3    H231234   0.855   3.351  19.278 -0.1787  1.9058 -0.2194
 2347TIP3   OH231235   5.590   0.239  19.319  0.2715  0.2039  0.0318
 2347TIP3    H131236   5.570   0.146  19.319 -0.4572  0.3460 -0.6908
 2347TIP3    H231237   5.505   0.282  19.311  0.5458  0.9528  1.0367
 2348TIP3   OH231238   7.283   0.112  16.798  0.2525 -0.4869  0.7614
 2348TIP3    H131239   7.276   0.208  16.796 -1.1891 -0.5623 -0.5435
 2348TIP3    H231240   7.205   0.084  16.846  1.0162 -1.0124  1.7282
 2349TIP3   OH231241   3.463   2.452  17.443  0.1916 -0.2417 -0.3417
 2349TIP3    H131242   3.399   2.402  17.494 -0.1178 -0.8240 -1.2787
 2349TIP3    H231243   3.488   2.524  17.500 -0.9569 -0.2688  0.2252
 2350TIP3   OH231244   6.411   3.470  17.551 -0.8184  0.0936 -0.2144
 2350TIP3    H131245   6.369   3.550  17.582 -0.1331  0.2956  0.2326
 2350TIP3    H231246   6.475   3.501  17.487  0.0976  0.0095  0.6394
 2351TIP3   OH231247   3.798   7.625  19.334  0.2313  0.1718 -0.4725
 2351TIP3    H131248   3.733   7.695  19.341 -0.3454 -0.3656 -0.4132
 2351TIP3    H231249   3.818   7.620  19.241  0.8854  0.9620 -0.3842
 2352TIP3   OH231250   5.512   0.693  18.653  0.0317 -0.1637 -0.1283
 2352TIP3    H131251   5.607   0.704  18.656  0.0073  0.6621 -1.5776
 2352TIP3    H231252   5.493   0.634  18.725  1.5456  0.3595  0.7500
 2353TIP3   OH231253   1.514   1.783  17.017  0.2456  0.2182  0.1258
 2353TIP3    H131254   1.532   1.877  17.015 -2.1165  0.7655  1.1641
 2353TIP3    H231255   1.464   1.767  16.937 -0.3630  0.1097  0.5205
 2354TIP3   OH231256   5.469   7.599  17.851  1.0367  0.2002  0.3201
 2354TIP3    H131257   5.533   7.570  17.786  2.1170  1.4177  0.7965
 2354TIP3    H231258   5.460   7.693  17.836  2.1985  0.7609  2.6060
 2355TIP3   OH231259   3.963   1.441  18.190 -0.2295  0.1247  0.0121
 2355TIP3    H131260   3.905   1.482  18.126 -2.7379 -2.2561  0.5885
 2355TIP3    H231261   4.008   1.514  18.232 -0.6672  1.9125 -2.4172
 2356TIP3   OH231262   2.736   7.477  18.950  0.7364  0.1360 -0.0804
 2356TIP3    H131263   2.649   7.506  18.922  0.8225 -1.1569 -1.8831
 2356TIP3    H231264   2.750   7.395  18.902  2.2709 -0.5640  1.4602
 2357TIP3   OH231265   0.789   6.791  18.449  0.2068  0.0328 -0.1989
 2357TIP3    H131266   0.809   6.698  18.464 -1.2681 -0.1333  0.9925
 2357TIP3    H231267   0.871   6.837  18.469  0.7351 -0.9407 -0.0540
 2358TIP3   OH231268   0.399   3.540  19.363  0.3724 -0.2459  0.1321
 2358TIP3    H131269   0.403   3.450  19.330  0.2824  0.5214 -2.1329
 2358TIP3    H231270   0.486   3.576  19.345 -0.6504  1.1939 -2.4774
 2359TIP3   OH231271   3.933   7.061  18.305 -0.2320 -0.2692 -0.7101
 2359TIP3    H131272   3.983   7.075  18.385 -2.0015  0.1987  0.3588
 2359TIP3    H231273   3.924   6.966  18.298 -1.0057 -0.2733  0.2539
 2360TIP3   OH231274   0.596   7.134  18.581 -0.2944  0.2376  0.5985
 2360TIP3    H131275   0.666   7.127  18.645  0.6288 -1.6340 -0.5441
 2360TIP3    H231276   0.521   7.167  18.630  0.9462  0.7981  2.1745
 2361TIP3   OH231277   2.332   0.673  18.624  0.0410 -0.0798  0.7581
 2361TIP3    H131278   2.283   0.736  18.676 -0.1587  2.2302 -2.0041
 2361TIP3    H231279   2.267   0.631  18.568  0.6437 -0.0849  0.0418
 2362TIP3   OH231280   0.811   6.049  16.201 -0.7067  0.5324  0.0942
 2362TIP3    H131281   0.872   6.071  16.130  0.3710 -1.5041  0.3229
 2362TIP3    H231282   0.827   6.116  16.268 -0.3545  1.3441 -0.7736
 2363TIP3   OH231283   0.766   3.945  17.216 -0.4159  0.0361  0.1382
 2363TIP3    H131284   0.702   3.929  17.285  0.5580  1.1559  1.3599
 2363TIP3    H231285   0.838   3.990  17.260  0.4532  0.3704 -1.5319
 2364TIP3   OH231286   6.795   7.135  18.795  0.3856 -0.1030  0.1984
 2364TIP3    H131287   6.787   7.221  18.836  0.0072  0.3835 -0.8679
 2364TIP3    H231288   6.711   7.121  18.752  0.5620 -0.8706  0.0847
 2365TIP3   OH231289   6.516   5.432  18.960  0.1329 -0.6766 -0.3265
 2365TIP3    H131290   6.441   5.491  18.948  2.5546  2.9143  0.5457
 2365TIP3    H231291   6.520   5.417  19.054  1.8331  1.3629  0.0211
 2366TIP3   OH231292   7.460   4.795  17.268 -0.2746 -0.8877  0.5874
 2366TIP3    H131293   7.380   4.833  17.233  1.2327  1.4823 -0.4887
 2366TIP3    H231294   7.505   4.868  17.311  1.1493 -2.2415  1.5219
 2367TIP3   OH231295   3.153   1.958  19.098  0.2205 -0.1084  0.1659
 2367TIP3    H131296   3.240   1.922  19.084  0.2232 -0.1700  0.3404
 2367TIP3    H231297   3.093   1.891  19.066  0.2295 -0.1934  0.3301
 2368TIP3   OH231298   0.638   2.741  18.572 -0.6206 -0.2069  0.2629
 2368TIP3    H131299   0.668   2.831  18.556  0.9395 -0.6440  0.5686
 2368TIP3    H231300   0.577   2.723  18.501 -0.2239  0.7683 -0.3472
 2369TIP3   OH231301   0.312   1.680  17.279  0.2740 -0.5410 -0.3144
 2369TIP3    H131302   0.243   1.746  17.271 -1.5716 -2.1018  1.5421
 2369TIP3    H231303   0.394   1.728  17.263 -1.0220  2.0013  0.2088
 2370TIP3   OH231304   0.917   7.611  19.182  0.1019 -0.3464 -0.1143
 2370TIP3    H131305   0.972   7.682  19.150  3.2463 -1.9986  1.2480
 2370TIP3    H231306   0.857   7.653  19.244  1.3556  1.2209  0.0901
 2371TIP3   OH231307   1.499   4.035  17.099 -0.0020  0.1957 -0.0673
 2371TIP3    H131308   1.500   4.003  17.009 -0.7734  0.4784 -0.1832
 2371TIP3    H231309   1.555   3.974  17.147  0.7532  0.2810 -0.8101
 2372TIP3   OH231310   1.169   6.622  18.202  0.0117 -0.0370 -0.0461
 2372TIP3    H131311   1.164   6.646  18.295 -0.2880 -1.3405  0.2927
 2372TIP3    H231312   1.088   6.574  18.185  0.6789 -0.9955 -0.6242
 2373TIP3   OH231313   2.458   6.596  17.459  0.0807 -0.0528  0.2346
 2373TIP3    H131314   2.460   6.631  17.548  0.6206 -1.6031  0.8669
 2373TIP3    H231315   2.373   6.622  17.424  1.0526  3.3319 -0.0115
 2374TIP3   OH231316   0.522   2.754  18.230  0.6635  0.3176 -0.3345
 2374TIP3    H131317   0.513   2.849  18.243  0.1519  0.2051  0.1711
 2374TIP3    H231318   0.481   2.715  18.307  0.6081 -0.3234 -0.6803
 2375TIP3   OH231319   1.757   7.525  17.787 -0.5315  0.0109 -0.2152
 2375TIP3    H131320   1.727   7.478  17.865 -0.1228 -0.9370 -0.6179
 2375TIP3    H231321   1.680   7.532  17.732 -0.4831 -0.6307 -0.3676
 2376TIP3   OH231322   5.130   3.698  16.774 -0.2117 -0.0605 -0.5273
 2376TIP3    H131323   5.181   3.650  16.709 -1.5314 -1.2236 -0.7352
 2376TIP3    H231324   5.176   3.782  16.783  2.4298 -1.4770  0.2046
 2377TIP3   OH231325   0.498   6.295  17.760 -0.1635 -0.4859  0.2338
 2377TIP3    H131326   0.425   6.292  17.698 -1.2714 -0.9550  1.5003
 2377TIP3    H231327   0.459   6.324  17.842  0.5010 -3.2352  1.6593
 2378TIP3   OH231328   1.298   6.710  17.968 -0.0877 -0.4499  0.0345
 2378TIP3    H131329   1.240   6.685  18.040 -1.2010  0.8813 -0.3661
 2378TIP3    H231330   1.345   6.787  18.001  0.2142 -0.5027 -0.2677
 2379TIP3   OH231331   7.046   0.909  17.961  0.3477 -0.2404 -0.0671
 2379TIP3    H131332   7.136   0.940  17.971  0.3500 -0.7620  1.6947
 2379TIP3    H231333   7.007   0.970  17.897  1.1182  1.7855  1.2942
 2380TIP3   OH231334   4.270   7.141  18.002 -0.0427 -0.1131  0.3918
 2380TIP3    H131335   4.179   7.114  17.996 -0.1965  0.6664 -1.4168
 2380TIP3    H231336   4.304   7.132  17.913  1.1974  1.0877  0.6963
 2381TIP3   OH231337   0.516   3.941  18.287  0.0640 -0.0892  0.0280
 2381TIP3    H131338   0.519   3.947  18.191 -0.0835  1.5686  0.0952
 2381TIP3    H231339   0.433   3.898  18.305 -0.3280  0.3853 -0.5834
 2382TIP3   OH231340   7.539   2.714  17.625 -0.3427 -0.3927  0.5770
 2382TIP3    H131341   7.631   2.693  17.609 -0.3746  0.1989 -0.5050
 2382TIP3    H231342   7.508   2.645  17.683  0.7344 -0.6909  0.8244
 2383TIP3   OH231343   0.992   5.111  16.486 -0.4782  0.4460 -0.1024
 2383TIP3    H131344   0.978   5.020  16.458 -1.7032  1.1673 -2.0429
 2383TIP3    H231345   1.086   5.124  16.475 -0.6364  0.1244 -2.3067
 2384TIP3   OH231346   4.146   1.915  19.240 -0.0672  0.1693  0.0794
 2384TIP3    H131347   4.192   1.860  19.177  0.4607 -0.4575  0.9900
 2384TIP3    H231348   4.053   1.897  19.224  0.0877 -0.7002  0.1039
 2385TIP3   OH231349   0.624   6.530  18.217 -0.1448  1.0421  0.1493
 2385TIP3    H131350   0.564   6.542  18.144 -0.6139 -0.6251  0.2288
 2385TIP3    H231351   0.568   6.530  18.295  0.2281  1.6692  0.4337
 2386TIP3   OH231352   1.195   7.157  19.009  0.1410  0.0216  0.4211
 2386TIP3    H131353   1.132   7.103  19.059 -0.3591  0.4243  0.2350
 2386TIP3    H231354   1.140   7.215  18.957  0.6728  1.1968  1.1344
 2387TIP3   OH231355   5.817   7.406  16.477  0.6767 -0.2117 -0.2540
 2387TIP3    H131356   5.732   7.440  16.448  2.1165  2.5374 -1.7138
 2387TIP3    H231357   5.818   7.421  16.571 -0.5654 -0.6113 -0.1580
 2388TIP3   OH231358   7.229   4.953  18.266 -0.1760 -0.5190  0.1117
 2388TIP3    H131359   7.208   4.865  18.234 -0.7046 -0.1713 -0.5192
 2388TIP3    H231360   7.265   4.998  18.190 -0.8470  0.1206  0.1676
 2389TIP3   OH231361   4.873   6.601  17.416 -0.2352 -0.2370  0.3034
 2389TIP3    H131362   4.886   6.517  17.461  0.0613 -0.7732 -0.7537
 2389TIP3    H231363   4.845   6.661  17.486  0.6676 -0.9202  1.2935
 2390TIP3   OH231364   1.962   7.285  17.094  0.2837 -0.0235  0.2058
 2390TIP3    H131365   1.992   7.207  17.141  1.8470  1.0334  1.0380
 2390TIP3    H231366   1.927   7.251  17.011 -0.0790 -1.6776  0.9952
 2391TIP3   OH231367   5.116   0.591  19.062  0.4843 -0.2311 -0.0326
 2391TIP3    H131368   5.136   0.533  19.136  1.9833  0.4726  0.1426
 2391TIP3    H231369   5.051   0.542  19.011 -0.1172 -1.0007  1.4034
 2392TIP3   OH231370   1.138   0.017  18.835 -0.2174  0.1767 -0.0797
 2392TIP3    H131371   1.173   0.067  18.761  1.4690 -0.0945  0.4739
 2392TIP3    H231372   1.214  -0.030  18.870 -1.9588 -4.3993 -1.7246
 2393TIP3   OH231373   3.148   1.233  18.938  0.3091  0.0421 -0.3786
 2393TIP3    H131374   3.100   1.169  18.991 -0.4298 -0.1093 -1.2067
 2393TIP3    H231375   3.144   1.198  18.849 -0.0009  1.1762 -0.8222
 2394TIP3   OH231376   6.184   1.540  18.659 -0.3160 -0.0546  0.1100
 2394TIP3    H131377   6.164   1.615  18.604 -2.4628 -1.0596 -0.5705
 2394TIP3    H231378   6.190   1.466  18.599  4.7317 -0.1919  0.3264
 2395TIP3   OH231379   1.468   6.878  16.876  0.3775 -0.5699  0.1028
 2395TIP3    H131380   1.421   6.951  16.917  0.8464 -0.1210 -0.1403
 2395TIP3    H231381   1.404   6.807  16.873 -0.5882  0.3001 -1.0446
 2396TIP3   OH231382   4.256   6.034  18.515  0.1208 -0.5722 -0.5210
 2396TIP3    H131383   4.295   6.108  18.467  0.5163 -0.0975  0.5044
 2396TIP3    H231384   4.164   6.034  18.488  0.0592  0.4578 -0.3638
 2397TIP3   OH231385   6.338   5.003  18.886 -0.2297  0.0960 -0.2113
 2397TIP3    H131386   6.401   4.940  18.921  0.8604  0.2758 -1.7381
 2397TIP3    H231387   6.321   4.973  18.796  0.3112  1.9441 -0.9736
 2398TIP3   OH231388   4.303   7.377  18.755 -0.4910  0.2243  0.1634
 2398TIP3    H131389   4.236   7.440  18.730 -1.0940 -0.6460 -0.4555
 2398TIP3    H231390   4.299   7.310  18.687 -1.3525 -1.5866  1.9089
 2399TIP3   OH231391   2.830   0.100  18.220 -0.3202 -0.0603  0.3674
 2399TIP3    H131392   2.846   0.020  18.169  1.0274 -0.4335  1.3122
 2399TIP3    H231393   2.735   0.103  18.230 -0.4929 -0.8750 -0.7251
 2400TIP3   OH231394   1.870   0.174  17.271 -0.0914  0.2125 -0.2234
 2400TIP3    H131395   1.956   0.136  17.287 -0.6515 -0.9073  0.2813
 2400TIP3    H231396   1.826   0.110  17.215 -0.4981  0.9220 -0.7352
 2401TIP3   OH231397   0.929   7.450  16.861  0.2258  0.0877  0.1897
 2401TIP3    H131398   0.845   7.411  16.836  0.0396  1.2695 -1.1182
 2401TIP3    H231399   0.927   7.538  16.823  2.2346 -0.0197 -0.2419
 2402TIP3   OH231400   7.665   5.732  18.272 -0.3463  0.0753  0.4098
 2402TIP3    H131401   7.588   5.681  18.296  0.0576 -0.4808  0.5483
 2402TIP3    H231402   7.725   5.668  18.233 -0.2816  0.6460 -0.4661
 2403TIP3   OH231403   1.439   3.519  19.134  0.7917  0.1443  0.4783
 2403TIP3    H131404   1.521   3.499  19.180  1.5001 -0.4625 -0.9977
 2403TIP3    H231405   1.465   3.532  19.043 -0.6748  0.6058  0.1040
 2404TIP3   OH231406   1.584   6.592  19.002 -0.3359 -0.0384  0.0457
 2404TIP3    H131407   1.677   6.569  19.003  0.3649  2.4756  0.2403
 2404TIP3    H231408   1.559   6.584  18.910 -0.7835 -3.4093  0.3256
 2405TIP3   OH231409   6.444   2.466  17.121 -0.0908 -0.2316  0.4601
 2405TIP3    H131410   6.486   2.546  17.090 -1.2273  0.8643  1.6457
 2405TIP3    H231411   6.504   2.431  17.187 -0.4814  0.7346  1.3579
 2406TIP3   OH231412   6.466   1.394  18.561  0.0767  0.1803 -0.1317
 2406TIP3    H131413   6.446   1.487  18.550 -0.4711  0.1950  0.9130
 2406TIP3    H231414   6.384   1.349  18.538  0.9082 -0.2068 -2.6590
 2407TIP3   OH231415   2.735   6.908  18.501 -0.1870  0.5691  0.5109
 2407TIP3    H131416   2.792   6.857  18.443 -1.0443  1.2244 -0.9508
 2407TIP3    H231417   2.796   6.963  18.551  0.5216  1.0921 -0.8643
 2408TIP3   OH231418   0.983   4.578  18.755  0.2248 -0.3801 -0.2043
 2408TIP3    H131419   0.975   4.568  18.850  0.8040  1.1211  0.0267
 2408TIP3    H231420   0.966   4.671  18.739  0.8483 -0.4634 -1.4788
 2409TIP3   OH231421   1.519   4.691  17.796  0.0843 -0.3854  0.3555
 2409TIP3    H131422   1.572   4.667  17.720  0.0361  1.1220 -0.1746
 2409TIP3    H231423   1.464   4.762  17.766 -0.9966 -0.7446  1.4110
 2410TIP3   OH231424   1.612   2.143  18.212 -0.6354 -0.5072 -0.4629
 2410TIP3    H131425   1.645   2.140  18.302  0.1351  1.3660 -0.6412
 2410TIP3    H231426   1.682   2.106  18.159  0.0850  0.9010 -0.5448
 2411TIP3   OH231427   0.424   7.091  18.929  0.5186  0.2845 -0.0032
 2411TIP3    H131428   0.384   7.004  18.925 -4.1707  2.0876  1.1981
 2411TIP3    H231429   0.420   7.123  18.839 -0.9841  0.4432  0.0944
 2412TIP3   OH231430   1.203   2.129  18.086  0.2068  0.0928  0.4248
 2412TIP3    H131431   1.128   2.166  18.134  1.6552  0.4803  2.5310
 2412TIP3    H231432   1.172   2.044  18.055 -1.1556  0.2953  1.1306
 2413TIP3   OH231433   0.699   5.625  17.317 -0.0477 -0.1662  0.0939
 2413TIP3    H131434   0.792   5.644  17.322  0.2374 -1.3882 -0.2111
 2413TIP3    H231435   0.688   5.544  17.367 -1.0252  0.2058  0.5088
 2414TIP3   OH231436   5.479   4.745  17.849  0.1010  0.5457  0.1493
 2414TIP3    H131437   5.420   4.818  17.862  0.3566  0.6799  0.5582
 2414TIP3    H231438   5.504   4.751  17.756  2.2107  2.5843  0.7552
 2415TIP3   OH231439   0.126   3.361  19.026  0.4720 -0.4241 -0.0163
 2415TIP3    H131440   0.089   3.427  18.967  3.0225  2.4196  1.2422
 2415TIP3    H231441   0.117   3.278  18.979 -4.4481  0.3582 -1.0180
 2416TIP3   OH231442   7.108   3.193  19.094 -0.2670 -0.3423 -0.0180
 2416TIP3    H131443   7.014   3.178  19.085 -0.3967  0.9193 -0.9323
 2416TIP3    H231444   7.117   3.286  19.114  0.7290 -0.7377  1.6599
 2417TIP3   OH231445   3.533   1.102  18.006  0.0793 -0.2001  0.3539
 2417TIP3    H131446   3.611   1.152  17.982 -0.5742 -0.2052 -2.0845
 2417TIP3    H231447   3.460   1.158  17.980 -0.7624 -0.5347  1.8461
 2418TIP3   OH231448   3.999   7.341  18.715  0.5044  0.2132 -0.0162
 2418TIP3    H131449   4.013   7.285  18.792 -1.6994  1.0581  1.0810
 2418TIP3    H231450   4.021   7.429  18.745  0.8071  0.4032 -0.7593
 2419TIP3   OH231451   0.622   4.704  18.002 -0.1412 -0.1271  0.2799
 2419TIP3    H131452   0.626   4.612  17.977  1.2723 -0.2600  0.8978
 2419TIP3    H231453   0.712   4.735  17.993 -0.1472  0.5978  2.2200
 2420TIP3   OH231454   6.350   4.871  18.171 -0.3854 -0.7250 -0.2460
 2420TIP3    H131455   6.411   4.839  18.105 -1.0921 -0.4943 -1.0416
 2420TIP3    H231456   6.387   4.955  18.200  1.6703 -2.3148  2.1284
 2421TIP3   OH231457   4.550   7.386  18.126  0.4198  0.6135 -0.1743
 2421TIP3    H131458   4.631   7.429  18.099  0.7213 -1.0874 -2.2591
 2421TIP3    H231459   4.547   7.398  18.221  2.3067  2.0533 -0.2385
 2422TIP3   OH231460   5.865   2.953  19.313  0.3720  0.0534  0.6217
 2422TIP3    H131461   5.892   2.945  19.404  0.4558  2.1127  0.8310
 2422TIP3    H231462   5.771   2.969  19.317  0.3635  0.0833  0.3517
 2423TIP3   OH231463   2.146   4.961  18.754 -0.0064  0.0698  0.5695
 2423TIP3    H131464   2.217   4.912  18.712 -0.5806 -0.5273  0.2721
 2423TIP3    H231465   2.066   4.915  18.727 -0.5089  0.7365  0.8878
 2424TIP3   OH231466   0.077   2.613  17.366 -0.6088 -0.0052 -0.2718
 2424TIP3    H131467   0.128   2.589  17.444 -0.0697  0.8758 -0.3409
 2424TIP3    H231468   0.132   2.675  17.319 -1.0009 -0.3916 -1.2823
 2425TIP3   OH231469   6.175   5.727  17.163 -0.1989 -0.0663 -0.2405
 2425TIP3    H131470   6.112   5.749  17.232  0.6381  0.7198  0.2868
 2425TIP3    H231471   6.126   5.741  17.081 -1.1067 -0.7216  0.1677
 2426TIP3   OH231472   0.044   0.145  18.115 -0.2001 -0.0473  0.3156
 2426TIP3    H131473  -0.045   0.112  18.123 -0.2669 -0.0564 -0.4576
 2426TIP3    H231474   0.079   0.103  18.037 -0.2690  1.6143 -0.6766
 2427TIP3   OH231475   0.742   4.139  18.538  0.2327  0.3697  0.1596
 2427TIP3    H131476   0.687   4.156  18.461 -1.1359 -0.9523  0.8010
 2427TIP3    H231477   0.743   4.222  18.585 -0.3922  0.6955 -0.3771
 2428TIP3   OH231478   3.263   2.894  16.840 -0.2196 -0.0867  0.0905
 2428TIP3    H131479   3.177   2.928  16.864  0.2831  0.1783  1.6702
 2428TIP3    H231480   3.250   2.800  16.831 -0.9811  0.1231 -1.2530
 2429TIP3   OH231481   5.078   4.115  18.139  0.0062  0.1825 -0.0298
 2429TIP3    H131482   5.075   4.180  18.209 -2.8239 -0.4569  0.5695
 2429TIP3    H231483   5.125   4.158  18.068 -0.7346  2.4596  0.7758
 2430TIP3   OH231484   3.677   3.800  16.831 -0.2190  0.0593  0.1335
 2430TIP3    H131485   3.585   3.811  16.853 -0.5005  0.3133 -1.0973
 2430TIP3    H231486   3.702   3.882  16.790  1.1175  0.7552  2.1895
 2431TIP3   OH231487   7.529   6.839  18.530  0.9703  0.4615 -0.5517
 2431TIP3    H131488   7.511   6.933  18.537 -0.6536  0.2141 -0.9226
 2431TIP3    H231489   7.611   6.834  18.481  2.5055  1.7147  1.7142
 2432TIP3   OH231490   0.593   5.588  18.290 -0.0897  0.3348 -0.3383
 2432TIP3    H131491   0.684   5.590  18.320  0.2117 -1.1624 -1.0328
 2432TIP3    H231492   0.541   5.582  18.370  0.5686 -1.0946  0.0200
 2433TIP3   OH231493   7.006   3.041  17.703  0.2264 -0.9623  0.0551
 2433TIP3    H131494   7.071   2.974  17.679  1.1723 -0.5961  1.4790
 2433TIP3    H231495   7.001   3.036  17.798 -0.8353 -0.0333  0.0616
 2434TIP3   OH231496   5.231   3.497  18.140 -0.1614  0.1326 -0.5879
 2434TIP3    H131497   5.225   3.453  18.055 -0.9672 -0.9132 -0.0136
 2434TIP3    H231498   5.182   3.578  18.128 -2.3743 -1.1258 -0.4594
 2435TIP3   OH231499   5.835   5.918  19.492  0.2473  0.0775 -0.2992
 2435TIP3    H131500   5.743   5.904  19.469  0.3644 -0.0783 -0.6899
 2435TIP3    H231501   5.874   5.831  19.486  0.3961  0.1249 -0.0230
 2436TIP3   OH231502   6.764   3.824  17.660 -0.4228 -0.2791  0.1266
 2436TIP3    H131503   6.702   3.756  17.686  1.3838 -1.3671  1.9297
 2436TIP3    H231504   6.770   3.815  17.565 -3.0785 -0.0031 -0.1407
 2437TIP3   OH231505   7.119   0.459  17.202 -0.6216 -0.5622 -0.0033
 2437TIP3    H131506   7.063   0.518  17.150 -1.7163 -0.5160  1.1888
 2437TIP3    H231507   7.183   0.426  17.139 -1.7550 -0.3174 -1.3407
 2438TIP3   OH231508   2.742   3.664  17.307  0.0104  0.0435  0.5419
 2438TIP3    H131509   2.743   3.671  17.212  0.3715 -0.3252  0.5158
 2438TIP3    H231510   2.833   3.674  17.333 -0.1135  0.3558  0.8687
 2439TIP3   OH231511   4.105   7.646  18.352 -0.1035 -0.1060 -0.5089
 2439TIP3    H131512   4.110   7.554  18.380  0.0129 -0.1558 -0.6933
 2439TIP3    H231513   4.046   7.645  18.277 -0.0567 -0.0369 -0.5464
 2440TIP3   OH231514   3.395   2.949  17.198 -0.1648 -0.0659  0.5193
 2440TIP3    H131515   3.320   2.999  17.166  0.8787  0.6403 -0.9775
 2440TIP3    H231516   3.468   3.012  17.196  0.9478 -1.3089 -0.3015
 2441TIP3   OH231517   3.953   2.911  18.313 -0.2845 -0.6177 -0.4403
 2441TIP3    H131518   3.955   3.001  18.281 -1.0382 -0.5838 -0.4236
 2441TIP3    H231519   4.025   2.905  18.376  0.3892 -0.3114 -1.1681
 2442TIP3   OH231520   1.257   5.544  18.231  0.8363  0.6906 -0.0946
 2442TIP3    H131521   1.254   5.619  18.290 -0.7540 -1.1823  2.3999
 2442TIP3    H231522   1.184   5.557  18.170  1.2212  1.6395 -0.3677
 2443TIP3   OH231523   7.043   1.148  19.220 -0.0810 -0.0170 -0.4675
 2443TIP3    H131524   7.079   1.227  19.261 -0.4794 -1.2543  2.5739
 2443TIP3    H231525   6.998   1.180  19.142  0.4031  2.6502  0.2365
 2444TIP3   OH231526   2.118   0.751  17.877  0.4106  0.0014  0.4184
 2444TIP3    H131527   2.043   0.739  17.936  0.4772 -0.5052  0.3980
 2444TIP3    H231528   2.172   0.673  17.890  0.0446 -0.4860 -0.8721
 2445TIP3   OH231529   6.711   7.189  17.466  0.6224 -0.0777  0.1261
 2445TIP3    H131530   6.750   7.189  17.379 -0.2970  2.7194 -0.3996
 2445TIP3    H231531   6.785   7.205  17.525  1.1747 -1.4860 -0.1517
 2446TIP3   OH231532   5.652   4.470  17.800 -0.0240  0.2629 -0.0432
 2446TIP3    H131533   5.591   4.398  17.788  0.3481  0.1530 -1.5282
 2446TIP3    H231534   5.598   4.549  17.786 -0.3601  0.2766  1.2512
 2447TIP3   OH231535   6.144   0.695  17.554 -0.0847 -0.1112  0.2685
 2447TIP3    H131536   6.218   0.701  17.493  0.1777  0.6841  0.6424
 2447TIP3    H231537   6.105   0.783  17.553 -0.4269 -0.2522  0.8043
 2448TIP3   OH231538   6.419   3.785  18.599  0.3730  0.0354 -0.2484
 2448TIP3    H131539   6.438   3.790  18.692  0.5836 -2.6845 -0.0627
 2448TIP3    H231540   6.325   3.768  18.594  0.2202  0.9105 -0.5941
 2449TIP3   OH231541   2.999   6.825  18.856  0.0186  0.5068  0.5186
 2449TIP3    H131542   2.955   6.772  18.922  1.4899 -1.6983 -0.1459
 2449TIP3    H231543   3.063   6.765  18.817 -3.8986 -0.2468 -6.4547
 2450TIP3   OH231544   5.744   6.808  19.001  0.2194 -0.1829 -0.1701
 2450TIP3    H131545   5.782   6.886  19.041  0.4348 -0.4805  0.2163
 2450TIP3    H231546   5.795   6.735  19.037  0.2131 -0.4820 -0.7514
 2451TIP3   OH231547   0.905   5.294  18.688  0.5887  0.7195 -0.4834
 2451TIP3    H131548   0.974   5.235  18.658  1.3988  1.6723 -0.5431
 2451TIP3    H231549   0.952   5.365  18.733 -0.1941  2.3550 -2.1165
 2452TIP3   OH231550   5.482   7.244  18.511  0.0459 -0.0153  0.2241
 2452TIP3    H131551   5.424   7.261  18.585  0.9605 -0.1341  0.9944
 2452TIP3    H231552   5.531   7.165  18.537 -1.1404 -1.3759 -1.4514
 2453TIP3   OH231553   3.737   1.653  19.138 -0.1438 -0.3337  0.6868
 2453TIP3    H131554   3.690   1.720  19.189 -2.2564  0.5053 -2.1132
 2453TIP3    H231555   3.679   1.577  19.138  0.6461 -0.9483  0.9714
 2454TIP3   OH231556   7.659   4.869  19.179 -0.0425 -0.3803  0.0790
 2454TIP3    H131557   7.593   4.833  19.120  0.6296 -0.2870 -0.7362
 2454TIP3    H231558   7.710   4.793  19.207  0.1922 -0.3133 -0.1598
 2455TIP3   OH231559   7.237   5.089  17.558 -0.3036  0.0570 -0.1358
 2455TIP3    H131560   7.302   5.019  17.567 -1.5106 -1.1580 -0.4926
 2455TIP3    H231561   7.209   5.084  17.467  0.1566  1.5718 -0.3905
 2456TIP3   OH231562   1.255   0.092  17.682  0.1649  0.3023  0.0516
 2456TIP3    H131563   1.275   0.183  17.660  0.6099  0.1415 -0.2292
 2456TIP3    H231564   1.320   0.069  17.748 -0.8025  0.6032  1.1360
 2457TIP3   OH231565   7.473   2.832  18.025 -0.0874 -0.0915  0.6706
 2457TIP3    H131566   7.516   2.755  18.062  0.6422  0.1400  0.3153
 2457TIP3    H231567   7.539   2.871  17.967 -0.7658  0.2916  0.1496
 2458TIP3   OH231568   4.694   4.015  17.164 -0.9795 -0.7027 -0.1269
 2458TIP3    H131569   4.706   3.921  17.149  0.1338 -1.4573  4.1913
 2458TIP3    H231570   4.602   4.024  17.189 -1.1017 -0.6077 -0.6011
 2459TIP3   OH231571   1.988   7.506  19.137  0.7006  0.1224 -0.1167
 2459TIP3    H131572   2.051   7.574  19.113 -0.0108  0.8255 -0.0095
 2459TIP3    H231573   1.910   7.554  19.164 -0.3391 -0.7688 -1.4684
 2460TIP3   OH231574   3.464   6.956  18.568  0.3372  0.0107 -0.1109
 2460TIP3    H131575   3.503   7.041  18.588  1.8757 -0.6576 -0.1969
 2460TIP3    H231576   3.462   6.910  18.651 -0.6083  0.1422 -0.0422
 2461TIP3   OH231577   7.124   1.790  17.975  0.3169  0.5497 -0.5189
 2461TIP3    H131578   7.084   1.789  18.061  0.8834  1.4495 -0.2359
 2461TIP3    H231579   7.063   1.741  17.919 -0.1982  0.2271  0.3149
 2462TIP3   OH231580   3.178   5.238  19.220  0.1178 -0.0543 -0.3107
 2462TIP3    H131581   3.234   5.220  19.295  0.9367 -0.9355 -1.1187
 2462TIP3    H231582   3.192   5.330  19.200 -0.5344  0.3354  0.9486
 2463TIP3   OH231583   5.963   7.612  17.618 -1.0340  0.4714  0.0578
 2463TIP3    H131584   5.956   7.517  17.623 -0.3017  0.3376 -1.0473
 2463TIP3    H231585   5.911   7.636  17.541  1.6222  0.5404 -1.8706
 2464TIP3   OH231586   5.169   3.323  17.619  0.0256 -0.2609  0.1105
 2464TIP3    H131587   5.102   3.374  17.572  1.7518  1.1294 -0.9434
 2464TIP3    H231588   5.217   3.277  17.550  1.5210  0.4591  0.6517
 2465TIP3   OH231589   6.090   4.823  18.109  0.0124  0.3477 -0.4032
 2465TIP3    H131590   6.116   4.732  18.098 -0.8315 -0.3392  2.4027
 2465TIP3    H231591   6.168   4.867  18.143  0.0074  0.3295 -0.3689
 2466TIP3   OH231592   6.940   3.421  17.822 -0.8276 -0.7780 -0.5420
 2466TIP3    H131593   6.988   3.502  17.840 -0.6422 -0.7898 -0.9826
 2466TIP3    H231594   6.893   3.438  17.741 -0.8027 -1.1058 -0.6270
 2467TIP3   OH231595   7.232   1.340  18.992 -0.9011  1.1018  0.7602
 2467TIP3    H131596   7.326   1.330  18.974 -0.6831  1.5374  1.5864
 2467TIP3    H231597   7.204   1.410  18.934 -0.5802  1.3677  0.9187
 2468TIP3   OH231598   6.948   1.515  19.248 -0.6874  0.0731 -0.5978
 2468TIP3    H131599   6.865   1.491  19.289 -0.9688 -0.8654 -1.6707
 2468TIP3    H231600   6.924   1.543  19.160 -0.0771  1.9560 -0.2289
 2469TIP3   OH231601   1.717   5.626  18.986 -0.2060  0.7120  0.1215
 2469TIP3    H131602   1.704   5.718  18.964  0.9689  0.5252 -1.5024
 2469TIP3    H231603   1.776   5.627  19.061 -1.3759  1.2880  1.0691
 2470TIP3   OH231604   3.609   7.015  17.430 -0.4919  0.0825 -0.1663
 2470TIP3    H131605   3.638   7.106  17.437 -2.2610  0.5660  1.4276
 2470TIP3    H231606   3.515   7.021  17.414 -0.9289 -1.4564  1.5984
 2471TIP3   OH231607   3.399   7.245  18.192 -0.1102  0.0864  0.3243
 2471TIP3    H131608   3.319   7.194  18.192 -0.4125  0.4275 -2.1370
 2471TIP3    H231609   3.469   7.181  18.176 -0.2828  0.1599 -0.8203
 2472TIP3   OH231610   6.821   5.997  17.991  0.4538  0.1218  0.1835
 2472TIP3    H131611   6.830   6.015  18.085  0.7179  0.0093  0.1799
 2472TIP3    H231612   6.908   5.967  17.964  0.6401  1.0779 -0.2978
 2473TIP3   OH231613   0.433   4.165  19.130  0.3069  0.5407  0.3094
 2473TIP3    H131614   0.432   4.072  19.154 -0.5583  0.4111 -0.1791
 2473TIP3    H231615   0.461   4.166  19.038 -0.2819  0.7072  0.1251
 2474TIP3   OH231616   0.387   6.895  17.808 -0.1447  0.1518  0.1142
 2474TIP3    H131617   0.375   6.817  17.755  0.3701 -0.3878  0.7772
 2474TIP3    H231618   0.364   6.968  17.750 -1.0421 -0.5063 -0.3810
 2475TIP3   OH231619   0.628   6.930  17.638  0.0530  0.0241 -0.0290
 2475TIP3    H131620   0.702   6.874  17.663  0.8930  1.3520  0.5420
 2475TIP3    H231621   0.561   6.912  17.705  1.6620  2.3052  2.4263
 2476TIP3   OH231622   3.010   3.661  17.688  0.0175 -0.4547  0.1789
 2476TIP3    H131623   2.940   3.601  17.713  0.5754 -1.3861 -0.4692
 2476TIP3    H231624   3.091   3.618  17.717  0.3020  1.1262  1.9712
 2477TIP3   OH231625   4.106   2.235  19.632 -0.2079  0.3077 -0.0762
 2477TIP3    H131626   4.069   2.160  19.587 -0.6835  0.0770  0.6762
 2477TIP3    H231627   4.044   2.254  19.703  0.3038  0.9175  0.2248
 2478TIP3   OH231628   5.731   7.069  18.365 -0.1991  0.0581 -0.1378
 2478TIP3    H131629   5.692   7.064  18.452 -0.6851  1.2641 -0.2771
 2478TIP3    H231630   5.819   7.104  18.380 -0.1265 -0.1415 -0.0927
 2479TIP3   OH231631   6.320   6.553  18.465 -0.2753  0.2960 -0.1754
 2479TIP3    H131632   6.298   6.512  18.549  0.2208 -1.0041 -0.6660
 2479TIP3    H231633   6.414   6.573  18.472 -0.2876  0.4122 -0.3277
 2480TIP3   OH231634   3.386   0.130  18.502  0.1341  0.4664  0.0470
 2480TIP3    H131635   3.389   0.037  18.524  0.8921  0.5645  0.3696
 2480TIP3    H231636   3.331   0.134  18.423 -0.6561 -0.1476  0.5524
 2481TIP3   OH231637   7.512   3.185  16.710  0.6826  0.4838 -0.1707
 2481TIP3    H131638   7.543   3.105  16.754  1.1820  0.6897 -0.1407
 2481TIP3    H231639   7.578   3.202  16.642  0.2343  0.5086 -0.6036
 2482TIP3   OH231640   5.378   2.579  18.196  0.2813  0.0009  0.5071
 2482TIP3    H131641   5.337   2.515  18.255  0.4994  0.4055  1.1050
 2482TIP3    H231642   5.375   2.537  18.110  0.3047 -0.7625  0.8695
 2483TIP3   OH231643   0.855   6.456  19.057  0.2009  0.1316  0.0165
 2483TIP3    H131644   0.821   6.371  19.084 -0.6718  0.1242 -1.0535
 2483TIP3    H231645   0.874   6.502  19.140 -3.2306  0.4511  0.7501
 2484TIP3   OH231646   1.599   0.508  16.683 -0.7072 -0.3020  0.2708
 2484TIP3    H131647   1.595   0.425  16.635 -1.6513 -0.6807  0.9734
 2484TIP3    H231648   1.612   0.574  16.615  0.8649 -1.0734 -0.2232
 2485TIP3   OH231649   6.131   1.748  19.608 -0.1106  0.5319  0.1177
 2485TIP3    H131650   6.192   1.806  19.562  0.4917  0.5423  0.8971
 2485TIP3    H231651   6.174   1.729  19.691 -0.6811 -0.3563  0.2338
 2486TIP3   OH231652   6.182   6.015  17.719  0.6702 -0.3817 -0.4292
 2486TIP3    H131653   6.223   5.985  17.800  2.6481  0.6194 -0.9919
 2486TIP3    H231654   6.115   6.077  17.747  1.3910  0.0147  0.4771
 2487TIP3   OH231655   0.587   5.884  18.896  0.3612  0.0078 -0.8535
 2487TIP3    H131656   0.681   5.878  18.912  0.1740 -2.2208 -0.2479
 2487TIP3    H231657   0.575   5.970  18.854  2.4929  0.8064  0.0277
 2488TIP3   OH231658   6.486   6.658  17.451  0.7706  0.0204  0.2263
 2488TIP3    H131659   6.516   6.635  17.539  0.0928  1.1012  0.7575
 2488TIP3    H231660   6.553   6.719  17.418 -0.3427  1.7981  1.0987
 2489TIP3   OH231661   4.567   0.192  17.713  0.3062 -0.1892  0.3619
 2489TIP3    H131662   4.624   0.185  17.789  0.8447  2.6942  0.3174
 2489TIP3    H231663   4.512   0.114  17.717  1.0440 -0.6665  3.0696
 2490TIP3   OH231664   1.755   2.341  16.867 -0.0765 -1.0385  0.2536
 2490TIP3    H131665   1.804   2.282  16.924 -0.7847 -1.1879  0.7166
 2490TIP3    H231666   1.800   2.336  16.783  0.7649 -1.0876  0.6979
 2491TIP3   OH231667   3.346   1.493  19.082 -0.1216 -0.5495 -0.2325
 2491TIP3    H131668   3.254   1.470  19.092  0.1690 -1.1791  1.2096
 2491TIP3    H231669   3.382   1.420  19.031 -0.0435 -1.3148  0.8736
 2492TIP3   OH231670   0.201   6.254  18.348 -0.2771  0.0339  0.0897
 2492TIP3    H131671   0.186   6.222  18.259 -1.9146 -0.7549  0.5980
 2492TIP3    H231672   0.281   6.210  18.377 -1.4293 -2.2141  0.0719
 2493TIP3   OH231673   6.344   2.358  16.892 -0.5074  0.1030  0.1073
 2493TIP3    H131674   6.261   2.336  16.934 -0.6728 -0.9409 -0.6955
 2493TIP3    H231675   6.398   2.394  16.962 -0.8534 -1.3321  1.1722
 2494TIP3   OH231676   5.250   2.368  17.203  0.0026 -0.8263  0.1350
 2494TIP3    H131677   5.221   2.373  17.113 -0.1770 -0.0699  0.2315
 2494TIP3    H231678   5.213   2.445  17.245  0.5967 -0.8388  0.7042
 2495TIP3   OH231679   7.526   4.262  18.040 -0.0844 -0.0339 -0.2886
 2495TIP3    H131680   7.608   4.250  17.991  0.1437 -1.2544  0.3328
 2495TIP3    H231681   7.462   4.288  17.975  0.6785  0.4171 -0.8781
 2496TIP3   OH231682   4.046   7.294  18.977  0.0546  0.0471 -0.0818
 2496TIP3    H131683   4.108   7.271  19.046  1.7632  2.0037 -0.8780
 2496TIP3    H231684   3.967   7.320  19.023  0.8714  0.4738  1.1236
 2497TIP3   OH231685   1.684   6.382  17.881 -0.3244  0.2268  0.4287
 2497TIP3    H131686   1.622   6.426  17.939 -1.6366 -1.8236  0.7001
 2497TIP3    H231687   1.768   6.390  17.926 -1.1526 -0.5412  2.2452
 2498TIP3   OH231688   3.647   4.148  18.649 -0.2333  0.1326 -0.5259
 2498TIP3    H131689   3.649   4.189  18.563 -0.9546  0.8969 -0.1859
 2498TIP3    H231690   3.667   4.218  18.710 -0.2657 -0.2857 -0.0228
 2499TIP3   OH231691   6.569   5.180  19.163  0.0677 -0.1343 -0.0531
 2499TIP3    H131692   6.573   5.200  19.069  1.4097 -0.2798 -0.0455
 2499TIP3    H231693   6.637   5.236  19.202 -1.6371  1.2512  1.1022
 2500TIP3   OH231694   4.434   0.713  19.195 -0.2531  0.3753 -0.1140
 2500TIP3    H131695   4.346   0.690  19.164 -0.0536 -0.3156 -0.1824
 2500TIP3    H231696   4.431   0.808  19.206 -1.3997  0.2424  1.0596
 2501TIP3   OH231697   5.688   5.822  19.192 -0.2724  0.1795 -0.1191
 2501TIP3    H131698   5.756   5.757  19.211 -1.3663 -0.6878  1.0325
 2501TIP3    H231699   5.639   5.785  19.119 -0.1921  0.2525 -0.2089
 2502TIP3   OH231700   1.017   4.589  19.346 -0.3333  0.3983 -0.1576
 2502TIP3    H131701   0.994   4.567  19.436  1.3322  1.7511  0.6457
 2502TIP3    H231702   0.939   4.567  19.295 -1.4268 -0.0747  1.6539
 2503TIP3   OH231703   4.169   0.661  19.079  0.0612 -0.4915  0.0081
 2503TIP3    H131704   4.078   0.687  19.066  0.4618  2.3207  2.0713
 2503TIP3    H231705   4.165   0.567  19.096 -2.6747 -0.1833  1.5518
 2504TIP3   OH231706   4.406   4.110  18.383 -0.4735 -0.2886 -0.6845
 2504TIP3    H131707   4.474   4.130  18.319 -0.3248 -1.0461 -0.7677
 2504TIP3    H231708   4.361   4.034  18.347 -0.1546 -0.9513  0.2849
 2505TIP3   OH231709   6.285   5.607  16.713  0.4862  0.2225 -0.1926
 2505TIP3    H131710   6.365   5.642  16.753 -0.1535  1.6503 -0.1185
 2505TIP3    H231711   6.309   5.518  16.687  2.4566  1.0103 -1.2547
 2506TIP3   OH231712   1.322   4.423  18.099 -0.1197 -0.1074 -0.3327
 2506TIP3    H131713   1.362   4.507  18.074 -2.6925  0.6746 -2.3057
 2506TIP3    H231714   1.367   4.358  18.046  0.6355  0.2912 -0.1883
 2507TIP3   OH231715   3.042   2.490  17.680 -0.5466  0.0545  0.2064
 2507TIP3    H131716   3.046   2.585  17.678  0.9504  0.1148  2.5450
 2507TIP3    H231717   3.019   2.469  17.771 -0.7240 -1.8245 -0.2334
 2508TIP3   OH231718   0.545   6.494  19.077 -0.8230 -0.2572 -0.0617
 2508TIP3    H131719   0.636   6.464  19.075  0.0609  2.1191  0.8621
 2508TIP3    H231720   0.501   6.440  19.011  1.1169 -1.7925 -0.2224
 2509TIP3   OH231721   5.210   2.666  18.797 -0.4757 -0.2550  0.6099
 2509TIP3    H131722   5.277   2.604  18.827  0.7161  0.2962 -0.8028
 2509TIP3    H231723   5.185   2.634  18.710 -0.1934  0.9718  0.0599
 2510TIP3   OH231724   1.910   6.607  17.970  0.2270 -0.3098  1.0184
 2510TIP3    H131725   1.915   6.579  17.879  1.6651 -1.4139  1.4057
 2510TIP3    H231726   1.916   6.526  18.021  2.0622  0.4378  2.1201
 2511TIP3   OH231727   4.998   1.862  18.609  0.3422  0.3008  0.6440
 2511TIP3    H131728   5.090   1.861  18.632  0.1768  0.6801  1.3422
 2511TIP3    H231729   4.958   1.796  18.666 -0.1621  1.6294  1.8624
 2512TIP3   OH231730   0.962   1.505  17.322 -0.5107  0.0422  0.1516
 2512TIP3    H131731   0.913   1.440  17.272 -1.1022  1.3582 -1.0526
 2512TIP3    H231732   0.898   1.576  17.337 -0.4927 -0.4630  3.1793
 2513TIP3   OH231733   5.683   0.239  17.834 -0.3728  0.3700  0.0824
 2513TIP3    H131734   5.733   0.227  17.914  1.1362  0.5329 -0.8035
 2513TIP3    H231735   5.639   0.323  17.845  1.7411  1.5839 -0.1973
 2514TIP3   OH231736   4.029   6.818  16.971  0.1549 -0.6791 -0.5369
 2514TIP3    H131737   4.067   6.758  17.035 -1.0294  0.1545  1.0057
 2514TIP3    H231738   4.104   6.859  16.929  1.2375 -5.2867 -3.9043
 2515TIP3   OH231739   2.122   0.723  16.699  0.0736 -0.0205 -0.1706
 2515TIP3    H131740   2.033   0.757  16.698  0.0768 -0.0189 -0.3322
 2515TIP3    H231741   2.176   0.797  16.723 -0.1601 -0.4453  1.8438
 2516TIP3   OH231742   5.195   0.068  17.300  0.5100 -0.3402  0.1616
 2516TIP3    H131743   5.201   0.057  17.205 -0.5339 -0.1954  0.0653
 2516TIP3    H231744   5.212  -0.020  17.336  0.0318 -0.5866 -0.2046
 2517TIP3   OH231745   6.318   2.987  18.319  0.4656  0.2807  0.6048
 2517TIP3    H131746   6.347   3.077  18.334  1.0816  0.1957 -0.0317
 2517TIP3    H231747   6.307   2.950  18.406  1.2145  0.6547  0.8608
 2518TIP3   OH231748   5.512   7.631  17.382 -0.1521 -0.7559 -0.2240
 2518TIP3    H131749   5.494   7.657  17.292  0.6123  0.2430 -0.1102
 2518TIP3    H231750   5.444   7.674  17.434 -1.5503 -2.5986 -0.4448
 2519TIP3   OH231751   2.313   1.379  18.707 -0.1317  0.0268 -0.5426
 2519TIP3    H131752   2.232   1.383  18.655  0.1994 -0.2649 -1.0965
 2519TIP3    H231753   2.354   1.464  18.695 -0.1997  0.0615 -0.5272
 2520TIP3   OH231754   3.128   2.885  19.017  0.1531  0.1150  0.1405
 2520TIP3    H131755   3.120   2.964  18.963  0.8271  0.2897  0.2953
 2520TIP3    H231756   3.037   2.865  19.042 -0.1310  0.2544 -0.7263
 2521TIP3   OH231757   4.488   0.445  17.226 -0.1347  0.1464 -0.1765
 2521TIP3    H131758   4.432   0.367  17.228 -1.2072  0.9242  1.3991
 2521TIP3    H231759   4.536   0.442  17.308  0.6744  0.5617 -0.6239
 2522TIP3   OH231760   4.918   5.658  18.148  0.1724 -0.3370 -0.4013
 2522TIP3    H131761   4.880   5.590  18.092 -0.9309 -0.8246  0.9037
 2522TIP3    H231762   4.905   5.626  18.237 -0.3831  1.6012  0.2478
 2523TIP3   OH231763   5.066   3.183  18.924 -0.1120 -0.4979  0.0149
 2523TIP3    H131764   5.156   3.157  18.944  0.0434  0.0487  0.0306
 2523TIP3    H231765   5.012   3.115  18.964  0.2001  0.4014  2.0459
 2524TIP3   OH231766   0.239   7.038  18.321  0.0063 -0.2367 -0.0989
 2524TIP3    H131767   0.306   6.972  18.335  0.8942  0.5807 -0.3142
 2524TIP3    H231768   0.288   7.115  18.291 -0.9023  0.7412  0.8238
 2525TIP3   OH231769   6.994   1.850  18.896 -0.3497 -0.5653 -0.5852
 2525TIP3    H131770   6.986   1.819  18.987 -0.3036 -0.0227 -0.3925
 2525TIP3    H231771   7.060   1.919  18.901 -2.0694  1.1622 -0.5931
 2526TIP3   OH231772   6.260   5.480  17.837 -0.0054  0.3292  0.0737
 2526TIP3    H131773   6.236   5.388  17.848  0.2865  0.4823  2.2582
 2526TIP3    H231774   6.351   5.485  17.868  0.5826  1.0728 -1.6191
 2527TIP3   OH231775   2.151   4.792  16.594  0.2608 -0.6213  0.3243
 2527TIP3    H131776   2.071   4.740  16.602 -0.4421  0.6061  2.1408
 2527TIP3    H231777   2.120   4.883  16.587  1.4685 -0.1274  1.0404
 2528TIP3   OH231778   6.550   5.533  16.857  0.4343  0.2741  0.3930
 2528TIP3    H131779   6.511   5.463  16.909  2.5744  0.0372  1.7869
 2528TIP3    H231780   6.555   5.498  16.768  1.6571 -1.4812  1.1051
 2529TIP3   OH231781   1.006   0.384  18.207 -0.3984 -0.7021  0.2272
 2529TIP3    H131782   0.913   0.400  18.221 -0.6969  0.6491 -2.5488
 2529TIP3    H231783   1.010   0.296  18.170  0.0238 -2.6910  4.4590
 2530TIP3   OH231784   0.686   6.689  17.774 -0.0667  0.8864  0.1501
 2530TIP3    H131785   0.655   6.664  17.687  0.0235  0.9961  0.0864
 2530TIP3    H231786   0.633   6.637  17.835 -0.8213  1.5399  0.0683
 2531TIP3   OH231787   5.495   2.262  16.571  0.0488 -0.0332  0.5063
 2531TIP3    H131788   5.417   2.272  16.625  0.7178 -0.1118  1.5064
 2531TIP3    H231789   5.547   2.340  16.588 -0.4901  0.8002 -1.3617
 2532TIP3   OH231790   3.272   4.056  19.269  0.0485 -0.5021  0.5458
 2532TIP3    H131791   3.286   3.963  19.288 -0.0947 -0.5092  0.6126
 2532TIP3    H231792   3.180   4.063  19.246  0.3059 -0.5659 -0.5777
 2533TIP3   OH231793   0.178   4.081  19.377 -0.2237  0.0070  0.1429
 2533TIP3    H131794   0.137   4.044  19.455 -1.0418 -0.7422 -0.6220
 2533TIP3    H231795   0.259   4.031  19.366 -1.0881 -1.2671 -0.6119
 2534TIP3   OH231796   2.084   2.162  17.815 -0.1492  0.5193  0.2235
 2534TIP3    H131797   2.057   2.071  17.823  1.7276 -0.3170 -1.8728
 2534TIP3    H231798   2.150   2.174  17.884 -1.3465  0.7360  1.3619
 2535TIP3   OH231799   7.210   6.846  17.460 -0.2861 -0.2864 -0.8838
 2535TIP3    H131800   7.224   6.807  17.547  0.0185  0.0356 -0.7885
 2535TIP3    H231801   7.115   6.843  17.448 -0.4247  0.6301 -0.0912
 2536TIP3   OH231802   0.933   2.166  17.150 -0.0402 -0.1838 -0.4348
 2536TIP3    H131803   0.938   2.105  17.224 -1.7767 -1.9227 -1.6401
 2536TIP3    H231804   0.879   2.238  17.182  2.0121  0.8076  1.0053
 2537TIP3   OH231805   2.275   6.813  18.897 -0.0562  0.3608 -0.3210
 2537TIP3    H131806   2.272   6.909  18.897 -1.8646  0.3719 -1.7054
 2537TIP3    H231807   2.305   6.790  18.809 -1.3218 -0.3114 -0.6087
 2538TIP3   OH231808   0.152   4.060  17.618 -0.0892 -0.0178  0.3299
 2538TIP3    H131809   0.104   3.981  17.595 -1.2497  1.1919 -1.8685
 2538TIP3    H231810   0.128   4.123  17.549  2.1163  1.7090  0.9948
 2539TIP3   OH231811   6.617   5.320  18.477 -0.1759 -0.0311  0.3174
 2539TIP3    H131812   6.675   5.273  18.417  0.5914 -0.1978  1.1805
 2539TIP3    H231813   6.664   5.400  18.498  0.3580 -0.7679  2.0582
 2540TIP3   OH231814   3.647   5.122  18.467 -0.1745  0.4684 -0.0329
 2540TIP3    H131815   3.555   5.110  18.443  0.0591  2.0856 -1.9843
 2540TIP3    H231816   3.655   5.080  18.553 -2.1885 -1.6495 -0.7749
 2541TIP3   OH231817   6.376   5.392  18.139 -0.2822 -1.0250  0.2778
 2541TIP3    H131818   6.285   5.363  18.139 -0.4024 -0.6520  0.2915
 2541TIP3    H231819   6.375   5.476  18.093  0.1525 -1.3109 -0.2723
 2542TIP3   OH231820   1.548   6.663  17.637  0.1773  0.0770 -0.0873
 2542TIP3    H131821   1.617   6.635  17.577  1.1384  0.7045  0.7010
 2542TIP3    H231822   1.594   6.696  17.713 -1.0160 -0.3609  0.8618
 2543TIP3   OH231823   5.279   7.182  17.161  0.8810  0.0168  0.1332
 2543TIP3    H131824   5.191   7.198  17.194  0.6485 -0.1146 -0.4217
 2543TIP3    H231825   5.287   7.087  17.159  1.5611  0.0207  1.5688
 2544TIP3   OH231826   1.548   5.572  17.461  0.1679  0.2147  0.1837
 2544TIP3    H131827   1.599   5.625  17.522 -0.5418 -1.0089  1.9189
 2544TIP3    H231828   1.612   5.510  17.424  0.3862  0.1989  0.5810
 2545TIP3   OH231829   2.486   6.902  16.920  0.3856  0.0860  0.0647
 2545TIP3    H131830   2.554   6.916  16.854  1.1815 -1.5235  0.4776
 2545TIP3    H231831   2.528   6.921  17.003  0.6822 -1.8377  0.4021
 2546TIP3   OH231832   4.295   4.483  19.448  0.2789  0.3019 -0.2046
 2546TIP3    H131833   4.327   4.541  19.380  1.0204  0.0001 -0.1358
 2546TIP3    H231834   4.374   4.436  19.478 -0.4597 -1.6560 -1.1346
 2547TIP3   OH231835   4.300   1.599  18.667 -0.5398  0.5699 -0.0382
 2547TIP3    H131836   4.274   1.607  18.575  0.9109  2.8702 -0.3454
 2547TIP3    H231837   4.328   1.688  18.692  1.9174 -0.5599  1.7066
 2548TIP3   OH231838   4.649   1.044  18.847  0.4081 -0.4728  0.6288
 2548TIP3    H131839   4.577   1.078  18.794  0.6525 -0.2215  0.4567
 2548TIP3    H231840   4.728   1.075  18.803  0.6115 -0.1502  1.2152
 2549TIP3   OH231841   0.772   4.300  16.998  0.1875 -0.1380  0.0513
 2549TIP3    H131842   0.680   4.289  17.020  0.4513  0.4583  1.5390
 2549TIP3    H231843   0.818   4.295  17.082  1.5723 -0.8971 -0.7097
 2550TIP3   OH231844   2.505   1.769  17.360  0.0005  0.2727 -0.0870
 2550TIP3    H131845   2.510   1.723  17.276 -0.4621  0.3048 -0.1380
 2550TIP3    H231846   2.583   1.824  17.362  0.9308 -1.0122  0.2873
 2551TIP3   OH231847   4.618   4.784  16.670 -0.2685  0.3259  0.0361
 2551TIP3    H131848   4.564   4.711  16.641 -1.5074  0.8129  1.0225
 2551TIP3    H231849   4.595   4.856  16.610 -1.1813  0.7042  0.8263
 2552TIP3   OH231850   2.621   2.907  18.298 -0.3485 -0.2836 -0.2965
 2552TIP3    H131851   2.670   2.946  18.371 -0.9421  2.2537 -1.1522
 2552TIP3    H231852   2.584   2.827  18.334 -0.2716  0.6650  2.0709
 2553TIP3   OH231853   2.229   3.443  17.577  0.2645 -0.0514  0.7050
 2553TIP3    H131854   2.145   3.401  17.560  0.5030 -1.1480  2.0106
 2553TIP3    H231855   2.208   3.536  17.587 -0.2637  0.2494 -2.3780
 2554TIP3   OH231856   3.000   4.741  18.018 -0.2943  0.0887  0.3587
 2554TIP3    H131857   3.091   4.711  18.017  0.3470  1.8099 -1.8308
 2554TIP3    H231858   2.954   4.677  18.071  2.6276  0.5583  3.8733
 2555TIP3   OH231859   5.069   0.219  18.868  0.3901 -0.0639  0.3795
 2555TIP3    H131860   5.030   0.190  18.785  1.3257 -0.1339 -0.0469
 2555TIP3    H231861   5.153   0.257  18.843 -0.3168  2.0527  1.0510
 2556TIP3   OH231862   7.616   2.111  19.008  0.8174 -0.1450 -0.7723
 2556TIP3    H131863   7.696   2.119  18.956 -0.0919 -1.1780 -2.4394
 2556TIP3    H231864   7.610   2.018  19.030  0.0552 -0.0981 -0.7369
 2557TIP3   OH231865   2.974   4.144  17.837  0.2538  0.1177 -0.5518
 2557TIP3    H131866   2.965   4.064  17.890 -2.4776 -0.3863 -1.5613
 2557TIP3    H231867   3.050   4.127  17.781  0.5253 -1.2154  0.1632
 2558TIP3   OH231868   3.300   5.692  18.311 -0.5747  0.1952  0.0710
 2558TIP3    H131869   3.264   5.604  18.301  1.1641 -0.3412 -2.6950
 2558TIP3    H231870   3.362   5.685  18.384 -0.3018 -0.9587 -0.2518
 2559TIP3   OH231871   7.203   2.459  18.388  0.3987  0.2350  0.1736
 2559TIP3    H131872   7.231   2.497  18.471  2.0826 -1.7312  0.6026
 2559TIP3    H231873   7.277   2.404  18.361 -1.8702 -2.8776 -0.2422
 2560TIP3   OH231874   7.278   5.474  18.531  0.3247  0.2473 -0.4031
 2560TIP3    H131875   7.340   5.533  18.487 -2.7479  1.5510 -3.4313
 2560TIP3    H231876   7.262   5.404  18.468 -1.4115  0.0620  0.1872
 2561TIP3   OH231877   5.916   2.177  18.846  0.5649 -0.8825 -0.4121
 2561TIP3    H131878   5.928   2.165  18.940 -1.4405  0.6617  0.1175
 2561TIP3    H231879   5.827   2.211  18.837  1.6048  1.6669 -2.6047
 2562TIP3   OH231880   3.471   7.269  17.133 -0.1478  0.0170  0.0830
 2562TIP3    H131881   3.433   7.298  17.050 -0.1295 -1.5769 -0.5164
 2562TIP3    H231882   3.427   7.322  17.199 -3.1968 -1.4336 -0.6050
 2563TIP3   OH231883   4.422   3.795  16.977 -0.1876 -0.3100 -0.3153
 2563TIP3    H131884   4.488   3.761  16.917  0.3459 -0.4423  0.3242
 2563TIP3    H231885   4.449   3.886  16.992  0.7523 -0.7773  1.1045
 2564TIP3   OH231886   6.358   2.929  17.875  0.4153 -0.1878 -0.5886
 2564TIP3    H131887   6.403   2.969  17.800  1.4548 -0.5781 -0.1897
 2564TIP3    H231888   6.391   2.977  17.951 -1.4156  0.9054 -0.4328
 2565TIP3   OH231889   0.507   4.793  18.240 -0.2924  0.2217 -0.5410
 2565TIP3    H131890   0.544   4.788  18.152 -0.8055 -0.7511 -0.7155
 2565TIP3    H231891   0.583   4.786  18.299  0.0825  1.1887 -0.8966
 2566TIP3   OH231892   5.041   3.844  17.749  0.1916  0.3500  0.6839
 2566TIP3    H131893   5.124   3.863  17.705 -0.8498 -0.1986 -1.6734
 2566TIP3    H231894   4.974   3.874  17.689 -1.3618 -1.0485  1.6112
 2567TIP3   OH231895   3.709   4.685  17.992 -0.1436  0.0110  0.2704
 2567TIP3    H131896   3.709   4.683  18.088  1.1869 -0.2355  0.2838
 2567TIP3    H231897   3.799   4.663  17.968 -1.1426 -2.9526 -1.1299
 2568TIP3   OH231898   3.389   7.472  17.576  0.1045 -0.0101 -0.5293
 2568TIP3    H131899   3.460   7.494  17.637 -0.2219  1.5952 -0.6647
 2568TIP3    H231900   3.311   7.511  17.616 -0.4584 -0.6274 -1.0167
 2569TIP3   OH231901   0.007   5.752  19.068  0.5852 -0.7800 -0.0666
 2569TIP3    H131902  -0.072   5.770  19.017  0.1290 -0.6710  0.6560
 2569TIP3    H231903   0.052   5.836  19.073 -0.4814 -0.2651  1.5372
 2570TIP3   OH231904   4.933   2.098  16.705  0.0896 -0.2784 -0.0982
 2570TIP3    H131905   4.926   2.183  16.662 -1.3232 -0.5752 -0.5024
 2570TIP3    H231906   5.008   2.055  16.663  0.1715  0.3639 -0.6110
 2571TIP3   OH231907   0.820   2.835  17.148 -0.1839  0.0215 -0.0587
 2571TIP3    H131908   0.777   2.778  17.083 -1.3168 -0.6807  1.2343
 2571TIP3    H231909   0.752   2.898  17.173  1.4059  2.9149 -2.3944
 2572TIP3   OH231910   1.272   5.452  16.511  0.4986  0.5712  0.0234
 2572TIP3    H131911   1.227   5.384  16.560  0.2630 -0.4511 -1.5435
 2572TIP3    H231912   1.254   5.432  16.419  3.2237  0.7701 -0.6388
 2573TIP3   OH231913   7.592   5.040  18.278 -0.0080  0.5141  0.0507
 2573TIP3    H131914   7.518   5.070  18.225 -0.3783  0.6388  0.6261
 2573TIP3    H231915   7.570   5.069  18.367  0.2561 -0.3260  0.3981
 2574TIP3   OH231916   3.149   3.091  17.041  0.8688 -0.1680  0.2723
 2574TIP3    H131917   3.062   3.052  17.051  0.8649  0.2962  2.5451
 2574TIP3    H231918   3.149   3.127  16.953 -0.0218 -3.0600 -1.0418
 2575TIP3   OH231919   7.541   3.213  17.940  0.3494  0.0267 -0.1313
 2575TIP3    H131920   7.614   3.158  17.912  0.9918  0.8557 -0.1178
 2575TIP3    H231921   7.487   3.224  17.861 -0.1628 -1.1698  0.0303
 2576TIP3   OH231922   5.477   4.151  18.135  0.4185 -0.2130  0.1106
 2576TIP3    H131923   5.414   4.079  18.141  1.0869 -0.9413 -1.2549
 2576TIP3    H231924   5.436   4.222  18.184 -1.5088 -0.6450 -0.7791
 2577TIP3   OH231925   6.278   0.207  17.752 -0.1380  0.4043  0.2182
 2577TIP3    H131926   6.183   0.200  17.745  0.0161 -1.4816 -0.4590
 2577TIP3    H231927   6.294   0.301  17.753 -2.1325  0.8474  2.6707
 2578TIP3   OH231928   4.222   6.803  17.896 -0.2471  0.3378 -0.4453
 2578TIP3    H131929   4.310   6.842  17.895 -0.2393  0.3224 -0.3665
 2578TIP3    H231930   4.236   6.712  17.867 -0.3507  0.5665 -1.2305
 2579TIP3   OH231931   0.875   4.301  18.090 -0.1797 -0.4424 -0.4435
 2579TIP3    H131932   0.964   4.264  18.087  0.0156 -0.0218 -0.0456
 2579TIP3    H231933   0.820   4.228  18.118  0.0496 -0.6950 -0.6425
 2580TIP3   OH231934   2.526   6.967  19.018  0.3557  0.6932  0.5145
 2580TIP3    H131935   2.516   6.873  19.002  1.1322  0.4412  1.4214
 2580TIP3    H231936   2.440   7.004  18.997  0.1869 -0.1361 -0.3439
 2581TIP3   OH231937   1.350   5.147  19.263 -0.3530  0.5969  1.2477
 2581TIP3    H131938   1.376   5.239  19.257 -0.4929  0.5871  0.4420
 2581TIP3    H231939   1.266   5.148  19.307 -1.5464  1.0798 -0.9031
 2582TIP3   OH231940   1.191   5.969  18.149 -0.2548  0.5404  0.0669
 2582TIP3    H131941   1.217   5.941  18.061 -1.7398 -0.3922 -0.1065
 2582TIP3    H231942   1.178   6.064  18.141  0.7912  0.6606 -0.3914
 2583TIP3   OH231943   4.115   5.814  17.863 -0.7060  0.4850  0.3898
 2583TIP3    H131944   4.125   5.786  17.954 -3.3744 -1.4794  0.2018
 2583TIP3    H231945   4.059   5.891  17.868  0.5958  1.4634  0.4550
 2584TIP3   OH231946   2.803   0.761  18.938  0.3571  0.5822 -0.3430
 2584TIP3    H131947   2.720   0.728  18.972 -0.6010  2.0771 -1.1135
 2584TIP3    H231948   2.856   0.683  18.924 -1.4136 -0.5456 -1.0927
 2585TIP3   OH231949   0.332   5.187  17.089  0.0871 -0.1367 -0.1957
 2585TIP3    H131950   0.238   5.176  17.098 -0.1082  0.7964 -0.9036
 2585TIP3    H231951   0.345   5.282  17.083  0.9810 -0.2830 -0.9035
 2586TIP3   OH231952   6.419   6.385  17.357  0.2958 -0.4447  0.1848
 2586TIP3    H131953   6.418   6.417  17.267  2.3381 -1.8751 -0.4341
 2586TIP3    H231954   6.482   6.441  17.402 -0.9799  0.4921  0.8560
 2587TIP3   OH231955   3.281   0.698  18.658  0.3777  0.5127 -0.1754
 2587TIP3    H131956   3.246   0.630  18.600 -0.6010  1.5913 -0.8968
 2587TIP3    H231957   3.217   0.769  18.653  1.4337  1.5504  0.4543
 2588TIP3   OH231958   2.062   1.516  19.004  0.1277  0.8621 -0.0394
 2588TIP3    H131959   2.029   1.476  18.924  0.4827 -1.3906  0.8567
 2588TIP3    H231960   2.157   1.513  18.995  0.1946 -0.2017  0.7818
 2589TIP3   OH231961   3.717   4.686  19.029  0.0147 -0.0008 -0.3064
 2589TIP3    H131962   3.759   4.649  18.951 -1.2844 -0.6959 -0.7093
 2589TIP3    H231963   3.763   4.647  19.103  1.5573  0.9974 -0.6851
 2590TIP3   OH231964   1.383   6.321  18.252  0.5902  0.1384  0.0407
 2590TIP3    H131965   1.288   6.329  18.259  0.3346 -0.9535 -1.6585
 2590TIP3    H231966   1.414   6.336  18.341 -1.1863  0.2678  0.6915
 2591TIP3   OH231967   1.104   5.852  16.989  0.1729 -0.6000  0.4359
 2591TIP3    H131968   1.042   5.875  16.920  1.0107 -0.7933 -0.3919
 2591TIP3    H231969   1.051   5.851  17.069 -0.6710  0.2711 -0.0956
 2592TIP3   OH231970   0.604   1.950  18.871  0.4555  0.4241  0.2155
 2592TIP3    H131971   0.534   2.003  18.833  0.9107  2.3708  1.8852
 2592TIP3    H231972   0.678   1.962  18.812 -0.1081 -0.2937 -0.6663
 2593TIP3   OH231973   6.481   1.649  17.381  0.5159  0.3262  0.0219
 2593TIP3    H131974   6.389   1.660  17.357  0.2646 -0.4092  0.6063
 2593TIP3    H231975   6.483   1.566  17.429  1.2961  0.8848  0.9730
 2594TIP3   OH231976   7.149   7.150  19.626  0.3013 -0.3463  0.4027
 2594TIP3    H131977   7.066   7.157  19.579  0.6623  0.0939 -0.1949
 2594TIP3    H231978   7.129   7.175  19.716 -0.4597 -1.4579  0.5574
 2595TIP3   OH231979   3.348   0.272  19.052 -0.2871  0.1440  0.5345
 2595TIP3    H131980   3.314   0.325  18.980 -1.3433  0.7312  1.4391
 2595TIP3    H231981   3.272   0.257  19.109  0.5093 -0.3402  1.5021
 2596TIP3   OH231982   3.375   3.225  17.520 -0.3555  0.2471  0.1856
 2596TIP3    H131983   3.350   3.188  17.436  0.3452 -1.3947  0.6627
 2596TIP3    H231984   3.301   3.204  17.578 -0.3309  0.3564  0.2555
 2597TIP3   OH231985   7.008   2.329  16.940 -0.0438  0.0123 -0.8697
 2597TIP3    H131986   7.025   2.294  16.853  1.5519 -0.4720 -0.3851
 2597TIP3    H231987   6.998   2.252  16.996  1.6134  0.2859 -0.1466
 2598TIP3   OH231988   4.494   6.969  19.107 -0.2299 -0.3492  0.4300
 2598TIP3    H131989   4.441   7.036  19.064 -1.1193 -1.3217 -0.0490
 2598TIP3    H231990   4.525   6.913  19.035 -0.4469 -1.1003  0.9032
 2599TIP3   OH231991   7.327   3.438  17.967 -0.1403 -0.2023 -0.0274
 2599TIP3    H131992   7.301   3.527  17.942  2.2292  0.1080 -1.7967
 2599TIP3    H231993   7.253   3.383  17.941 -0.9744  1.0709 -0.4685
 2600TIP3   OH231994   3.178   5.516  18.939  0.0593  0.0352  0.1441
 2600TIP3    H131995   3.192   5.503  19.033 -0.3618  0.4958  0.2739
 2600TIP3    H231996   3.262   5.493  18.899  0.6521  1.0634  0.7565
 2601TIP3   OH231997   0.981   3.971  16.665 -0.1881  0.4327 -0.0485
 2601TIP3    H131998   0.995   4.004  16.576  2.6699 -2.3817 -0.8405
 2601TIP3    H231999   0.899   3.923  16.659  0.3382 -0.3795 -1.4603
 2602TIP3   OH232000   7.563   6.100  16.802  0.1998 -0.0000 -0.2793
 2602TIP3    H132001   7.644   6.141  16.775  0.8794 -2.2168 -1.9374
 2602TIP3    H232002   7.497   6.168  16.793  1.5317  1.2396 -1.0411
 2603TIP3   OH232003   1.651   1.438  17.135 -0.4524  0.1182  0.3168
 2603TIP3    H132004   1.636   1.521  17.182 -1.4283  0.0913  0.0700
 2603TIP3    H232005   1.710   1.389  17.192 -0.3934  0.7093  0.7813
 2604TIP3   OH232006   7.180   3.836  18.376 -0.0274  0.4313  0.0182
 2604TIP3    H132007   7.118   3.896  18.416 -1.1586 -1.5495  1.3577
 2604TIP3    H232008   7.139   3.811  18.293  0.6076  1.7002 -0.7124
 2605TIP3   OH232009   5.997   3.006  19.054 -0.4288 -0.6630 -0.3127
 2605TIP3    H132010   5.950   2.980  19.133 -1.3087 -0.5229 -0.7785
 2605TIP3    H232011   6.007   3.101  19.063 -0.6874 -0.6213 -0.4450
 2606TIP3   OH232012   2.995   3.247  19.289  0.0455  0.2822 -0.2332
 2606TIP3    H132013   2.999   3.225  19.197 -2.7921 -1.1733 -0.0977
 2606TIP3    H232014   3.030   3.170  19.334 -0.6176  0.0946 -0.0359
 2607TIP3   OH232015   3.313   2.421  17.173 -0.5909  0.0613  0.1405
 2607TIP3    H132016   3.350   2.458  17.253  0.7425 -0.0987 -0.3829
 2607TIP3    H232017   3.263   2.493  17.135  1.7473  1.3087 -0.7285
 2608TIP3   OH232018   3.372   4.738  19.627 -0.0012  0.4227  0.9655
 2608TIP3    H132019   3.361   4.741  19.722 -1.1696  1.5031  0.8202
 2608TIP3    H232020   3.283   4.734  19.593  0.4345 -1.3841 -0.0775
 2609TIP3   OH232021   4.843   3.917  18.698  0.2324 -0.6508 -0.3355
 2609TIP3    H132022   4.778   3.979  18.664 -0.7311 -2.1711 -1.4028
 2609TIP3    H232023   4.799   3.876  18.773  0.7238 -0.3063  0.1432
 2610TIP3   OH232024   0.143   0.993  17.570  0.7404  0.2174  0.0964
 2610TIP3    H132025   0.142   0.898  17.564 -0.0127  0.2967 -1.6845
 2610TIP3    H232026   0.083   1.014  17.641 -1.7700 -0.5922 -1.6327
 2611TIP3   OH232027   2.989   3.844  19.563 -0.1444 -0.7336  0.6769
 2611TIP3    H132028   3.022   3.755  19.576 -0.0137 -0.5735  1.4963
 2611TIP3    H232029   2.929   3.858  19.636 -0.9105 -0.4835  0.0264
 2612TIP3   OH232030   5.341   7.426  19.388 -0.4913  0.3963 -0.2568
 2612TIP3    H132031   5.255   7.467  19.376 -0.9980 -0.5479 -0.0595
 2612TIP3    H232032   5.320   7.335  19.410  0.5714  0.1344 -0.2784
 2613TIP3   OH232033   3.809   3.501  18.559 -0.4148 -0.0120  0.1354
 2613TIP3    H132034   3.838   3.423  18.606 -0.4487  0.4850  1.0150
 2613TIP3    H232035   3.856   3.498  18.475 -0.6826 -1.1454  0.0119
 2614TIP3   OH232036   5.407   2.026  18.091 -0.1263  0.4920 -0.1321
 2614TIP3    H132037   5.344   1.977  18.145 -0.2297  2.1717  1.3569
 2614TIP3    H232038   5.451   2.084  18.152  0.8832  1.3710 -1.6267
 2615TIP3   OH232039   2.302   6.074  18.087  0.4711 -0.0932  0.2608
 2615TIP3    H132040   2.313   5.981  18.110  0.2085 -0.9566 -2.6605
 2615TIP3    H232041   2.280   6.073  17.993  1.0774  2.9779 -0.0259
 2616TIP3   OH232042   0.512   5.708  17.126 -0.3286  0.7295  0.2504
 2616TIP3    H132043   0.561   5.782  17.090  0.5644 -0.0991 -0.3077
 2616TIP3    H232044   0.566   5.676  17.198 -0.8071  0.7292  0.6161
 2617TIP3   OH232045   0.563   7.021  18.273  0.7819 -0.0951  0.2399
 2617TIP3    H132046   0.609   6.946  18.234 -0.6133 -0.9967  0.2796
 2617TIP3    H232047   0.599   7.027  18.362 -0.5355 -2.0536  0.9617
 2618TIP3   OH232048   4.644   6.430  17.804  0.4254 -0.3075  0.3800
 2618TIP3    H132049   4.727   6.476  17.817  0.1502  0.2793  0.0870
 2618TIP3    H232050   4.650   6.396  17.715  0.3312 -0.2167  0.3386
 2619TIP3   OH232051   2.501   0.177  18.854  0.8265 -0.4832  0.1080
 2619TIP3    H132052   2.560   0.237  18.900  0.4661  1.2454 -1.5419
 2619TIP3    H232053   2.413   0.202  18.884  0.7306 -0.8399  0.1250
 2620TIP3   OH232054   0.716   6.032  17.796  0.3353 -0.3131 -0.5098
 2620TIP3    H132055   0.699   6.113  17.843  1.7256 -1.0609  1.4095
 2620TIP3    H232056   0.799   6.048  17.751 -0.9133  0.3463 -2.7092
 2621TIP3   OH232057   6.729   1.315  19.044 -0.1528 -0.3217 -0.0687
 2621TIP3    H132058   6.708   1.339  19.134  0.0462  0.5206 -0.2370
 2621TIP3    H232059   6.800   1.373  19.019 -1.1912  0.5100 -1.2570
 2622TIP3   OH232060   1.374   0.184  18.207  0.0393 -0.0600  0.3373
 2622TIP3    H132061   1.407   0.153  18.291 -1.7906  0.1046  1.1579
 2622TIP3    H232062   1.291   0.137  18.195 -1.3082  2.2107  0.1739
 2623TIP3   OH232063   7.217   1.596  18.608 -0.1536 -0.4841  0.2725
 2623TIP3    H132064   7.242   1.575  18.518  0.4081 -1.3352  0.6044
 2623TIP3    H232065   7.213   1.691  18.611  0.6917 -0.4139 -0.4333
 2624TIP3   OH232066   6.036   5.835  17.595 -0.1822  0.3389  0.0692
 2624TIP3    H132067   6.088   5.890  17.653 -0.1621 -0.0606  0.4418
 2624TIP3    H232068   5.945   5.860  17.612 -0.1631  0.3881  0.0992
 2625TIP3   OH232069   5.504   0.793  17.600  0.0278 -0.1975  0.4370
 2625TIP3    H132070   5.465   0.837  17.676 -4.9267 -2.7548 -0.1960
 2625TIP3    H232071   5.521   0.704  17.630  1.5979 -0.2718 -0.5548
 2626TIP3   OH232072   1.723   2.994  17.003 -0.1088 -0.0387 -0.0814
 2626TIP3    H132073   1.797   2.963  17.056 -0.5959  0.3758  0.8684
 2626TIP3    H232074   1.645   2.963  17.049 -0.5914  1.9031  0.5117
 2627TIP3   OH232075   7.500   7.637  16.831 -0.6156 -0.1793 -0.1541
 2627TIP3    H132076   7.408   7.654  16.808 -0.7320  0.0995  0.4789
 2627TIP3    H232077   7.550   7.693  16.771 -0.9303  0.9063  0.5573
 2628TIP3   OH232078   6.396   0.635  19.391 -0.1860 -0.2007 -0.6071
 2628TIP3    H132079   6.457   0.622  19.464 -1.2224  1.1052  0.5578
 2628TIP3    H232080   6.360   0.548  19.374 -2.0562 -0.1929  2.4469
 2629TIP3   OH232081   2.936   6.757  17.146 -0.5688 -0.2068  0.5293
 2629TIP3    H132082   2.947   6.745  17.051 -2.1255  0.6465  0.1976
 2629TIP3    H232083   2.928   6.851  17.158  0.4177 -0.2458  1.6409
 2630TIP3   OH232084   2.321   1.137  19.054 -0.3155 -0.4475  0.2092
 2630TIP3    H132085   2.250   1.084  19.091  1.1761 -1.8656  1.1463
 2630TIP3    H232086   2.359   1.082  18.986 -0.3052  0.4444 -0.5259
 2631TIP3   OH232087   2.616   7.113  16.481  0.5465 -0.3745 -0.4795
 2631TIP3    H132088   2.676   7.182  16.510  3.6826 -2.0223 -2.3887
 2631TIP3    H232089   2.557   7.156  16.420  0.5199  1.1359  0.5702
 2632TIP3   OH232090   3.238   3.423  18.869  0.3743  0.0050 -0.0148
 2632TIP3    H132091   3.248   3.503  18.920 -0.9838 -0.5947  1.2652
 2632TIP3    H232092   3.274   3.354  18.926 -1.1552 -0.6694  0.1949
 2633TIP3   OH232093   3.708   7.177  17.710  0.3167 -0.5989 -0.0064
 2633TIP3    H132094   3.615   7.155  17.701 -0.2743  1.2954  0.9707
 2633TIP3    H232095   3.713   7.224  17.793  1.6209  1.9151 -1.4126
 2634TIP3   OH232096   7.064   4.592  16.965 -0.1994  0.4801  0.3354
 2634TIP3    H132097   7.147   4.545  16.960  0.4533  1.7351 -3.3357
 2634TIP3    H232098   7.001   4.536  16.920 -0.7191  0.7763  0.6760
 2635TIP3   OH232099   4.805   4.638  17.672 -0.2008  0.4794 -0.4037
 2635TIP3    H132100   4.747   4.631  17.596 -0.5300 -1.7251 -0.0144
 2635TIP3    H232101   4.818   4.547  17.701  0.9317  1.1612  1.4125
 2636TIP3   OH232102   0.084   1.120  18.473  0.1595  0.5003 -0.7992
 2636TIP3    H132103   0.131   1.145  18.393  0.1917  1.5082 -0.4669
 2636TIP3    H232104   0.150   1.078  18.528  0.6557  1.7670 -0.4017
 2637TIP3   OH232105   6.882   0.929  18.205 -0.3903  0.0727 -0.0503
 2637TIP3    H132106   6.939   0.928  18.128 -1.1969 -1.2637 -0.6484
 2637TIP3    H232107   6.898   1.015  18.244  0.9188  0.3143 -1.0321
 2638TIP3   OH232108   1.817   4.244  16.962 -0.5620 -0.0247 -0.5756
 2638TIP3    H132109   1.857   4.223  16.878 -0.8128 -0.7437 -0.5244
 2638TIP3    H232110   1.854   4.329  16.986  1.2481 -0.8373 -0.3203
 2639TIP3   OH232111   6.106   5.497  16.519 -0.5517  0.4250  0.1543
 2639TIP3    H132112   6.157   5.432  16.568 -1.0052  0.5593  0.8217
 2639TIP3    H232113   6.162   5.574  16.516  0.3496 -0.2409 -1.3868
 2640TIP3   OH232114   6.107   6.540  18.853 -0.7082  0.1416  0.1556
 2640TIP3    H132115   6.175   6.516  18.791 -1.0973 -0.0601 -0.1995
 2640TIP3    H232116   6.031   6.561  18.799 -1.0516 -0.0310  0.5627
 2641TIP3   OH232117   1.990   7.291  18.547 -0.6582  0.3740  0.3593
 2641TIP3    H132118   2.077   7.321  18.573 -0.0849 -0.4521 -0.4883
 2641TIP3    H232119   1.929   7.349  18.592  0.3363  1.0120  0.9163
 2642TIP3   OH232120   4.991   2.175  18.722  0.4917 -0.2238 -0.4005
 2642TIP3    H132121   4.922   2.239  18.738 -0.0424 -0.6771 -0.8487
 2642TIP3    H232122   4.992   2.120  18.801  0.9753  0.3491 -0.0019
 2643TIP3   OH232123   3.258   2.359  17.598  0.8054 -0.5012  0.0102
 2643TIP3    H132124   3.214   2.286  17.555  0.3513 -0.2736  0.0806
 2643TIP3    H232125   3.187   2.410  17.638  1.1938 -0.5849  0.8399
 2644TIP3   OH232126   1.956   0.364  17.661 -0.3772 -0.3554  0.6523
 2644TIP3    H132127   1.890   0.426  17.632 -0.8534 -0.3437  1.7015
 2644TIP3    H232128   2.000   0.336  17.581  0.7230  2.2759  0.2502
 2645TIP3   OH232129   0.059   4.524  18.513 -0.0809 -1.0609 -0.0086
 2645TIP3    H132130   0.010   4.516  18.431 -0.9682  0.7593  0.2752
 2645TIP3    H232131   0.149   4.540  18.486 -0.5797  0.8159 -0.7202
 2646TIP3   OH232132   2.613   5.819  17.742 -0.2896 -0.2221 -0.2810
 2646TIP3    H132133   2.551   5.834  17.814 -0.9639  1.2352 -1.1232
 2646TIP3    H232134   2.558   5.810  17.665  0.5250  2.0662 -1.2134
 2647TIP3   OH232135   6.865   5.900  17.610 -0.4504  0.4166  0.3411
 2647TIP3    H132136   6.944   5.937  17.648  0.1569  0.1653 -0.6222
 2647TIP3    H232137   6.821   5.975  17.568  1.8465 -0.0973 -3.4537
 2648TIP3   OH232138   7.206   5.527  19.194 -0.1558  0.3136 -0.0378
 2648TIP3    H132139   7.297   5.554  19.191 -0.1646  0.6019  1.3127
 2648TIP3    H232140   7.157   5.609  19.203 -0.5235  0.1396 -0.3968
 2649TIP3   OH232141   6.384   4.878  17.702  0.0038 -0.4918  0.3320
 2649TIP3    H132142   6.471   4.913  17.719 -0.2628  0.5478 -0.3378
 2649TIP3    H232143   6.345   4.867  17.789  0.5477 -0.2676  0.6061
 2650TIP3   OH232144   0.321   6.294  17.556 -0.5222 -0.1271  0.3560
 2650TIP3    H132145   0.311   6.364  17.491  1.6159  0.9552  1.0712
 2650TIP3    H232146   0.262   6.225  17.527 -2.1168  1.6371 -0.8460
 2651TIP3   OH232147   0.668   6.152  16.750  0.0885 -0.7545 -0.3779
 2651TIP3    H132148   0.646   6.180  16.661 -0.7112 -2.6690 -0.8159
 2651TIP3    H232149   0.602   6.195  16.806  1.0737  1.1078 -0.5441
 2652TIP3   OH232150   3.559   5.926  16.906  0.5938  0.1995  0.0828
 2652TIP3    H132151   3.494   5.958  16.843  0.2744  0.2886  0.4519
 2652TIP3    H232152   3.643   5.941  16.863  0.3586 -0.3408 -0.6053
 2653TIP3   OH232153   7.011   1.409  17.308  0.3675  0.3880  0.2767
 2653TIP3    H132154   6.999   1.431  17.216  0.8691  2.2336  0.6286
 2653TIP3    H232155   6.938   1.452  17.353  0.9295  0.7062  0.9005
 2654TIP3   OH232156   6.679   3.880  19.069 -0.1739 -0.7539 -0.1453
 2654TIP3    H132157   6.636   3.828  19.137  2.2512 -1.7343  0.7556
 2654TIP3    H232158   6.752   3.825  19.040  1.0038  1.1538 -0.9620
 2655TIP3   OH232159   2.600   4.758  17.480  0.8799 -0.1200  0.2418
 2655TIP3    H132160   2.582   4.766  17.386  0.7470  0.8939  0.3448
 2655TIP3    H232161   2.528   4.805  17.522  2.4918  2.0850  0.7368
 2656TIP3   OH232162   1.188   1.250  17.910 -0.1209  0.0419  0.1930
 2656TIP3    H132163   1.202   1.157  17.892  0.4905  0.0014  0.8249
 2656TIP3    H232164   1.114   1.275  17.856 -1.0340 -1.1021  0.8832
 2657TIP3   OH232165   3.929   3.856  17.928  0.0464 -0.1792  0.0862
 2657TIP3    H132166   3.893   3.943  17.949  0.2452  0.0919 -0.6654
 2657TIP3    H232167   3.880   3.828  17.851  1.4240  0.2009 -0.9674
 2658TIP3   OH232168   2.237   2.619  18.307  0.1319  0.0002  0.1280
 2658TIP3    H132169   2.235   2.677  18.383 -1.3118  1.1280 -0.7082
 2658TIP3    H232170   2.325   2.630  18.270  0.9272 -0.7311  1.7020
 2659TIP3   OH232171   4.152   6.486  17.229  0.3728  0.0618 -0.1868
 2659TIP3    H132172   4.095   6.425  17.276  1.6450 -3.0023 -2.2606
 2659TIP3    H232173   4.108   6.501  17.145  0.9852  0.4154 -0.4508
 2660TIP3   OH232174   2.757   3.726  18.693  0.3433  0.0601 -0.3940
 2660TIP3    H132175   2.691   3.658  18.680  0.8829 -0.2614 -1.5308
 2660TIP3    H232176   2.787   3.713  18.783  0.4076 -1.1932 -0.5844
 2661TIP3   OH232177   4.837   4.437  19.245 -0.4468 -0.3426 -0.0425
 2661TIP3    H132178   4.838   4.497  19.171 -0.6509 -0.1179  0.1366
 2661TIP3    H232179   4.925   4.400  19.248 -0.5122 -0.5525 -0.5613
 2662TIP3   OH232180   6.343   4.082  18.709  0.1848  0.4798  0.2096
 2662TIP3    H132181   6.301   4.164  18.683 -0.5885  0.1374  0.3318
 2662TIP3    H232182   6.436   4.100  18.705  0.0629  2.1399  2.5808
 2663TIP3   OH232183   3.109   3.593  19.602  0.3128  0.0175  0.3551
 2663TIP3    H132184   3.116   3.528  19.672 -1.2850 -1.0911 -0.4540
 2663TIP3    H232185   3.116   3.542  19.521 -1.5320  0.7299 -0.3104
 2664TIP3   OH232186   7.655   3.762  17.175 -0.1668  0.4756  0.0846
 2664TIP3    H132187   7.564   3.750  17.200  0.0240 -0.2520  0.4408
 2664TIP3    H232188   7.655   3.756  17.080 -0.4297  0.0361  0.1111
 2665TIP3   OH232189   0.476   1.357  18.214 -0.4508  0.0710 -0.4259
 2665TIP3    H132190   0.571   1.361  18.202 -0.1864 -0.3706  1.2363
 2665TIP3    H232191   0.463   1.381  18.306 -1.8062 -1.3059 -0.2127
 2666TIP3   OH232192   5.289   2.659  17.358 -0.5523  0.8412  0.0951
 2666TIP3    H132193   5.223   2.675  17.291 -0.4874  0.8692  0.0364
 2666TIP3    H232194   5.281   2.733  17.418 -0.1631  1.1685 -0.2455
 2667TIP3   OH232195   7.544   2.008  18.696 -0.2248 -0.3727 -0.3473
 2667TIP3    H132196   7.489   2.086  18.695  0.7504  0.3316 -1.3942
 2667TIP3    H232197   7.633   2.041  18.686  0.2571 -1.5835 -0.1946
 2668TIP3   OH232198   0.902   6.085  16.869 -0.0478 -0.1727  0.1194
 2668TIP3    H132199   0.823   6.106  16.820  0.2075 -1.4868 -0.9338
 2668TIP3    H232200   0.968   6.066  16.801  0.9831  0.2495  0.9705
 2669TIP3   OH232201   3.581   2.007  18.264  0.2403  0.6485 -0.3349
 2669TIP3    H132202   3.577   2.102  18.280 -2.2289  0.4291  0.9655
 2669TIP3    H232203   3.522   1.970  18.329  1.1127 -1.8154 -0.8487
 2670TIP3   OH232204   6.467   4.619  18.673  0.3536 -0.3598 -0.0167
 2670TIP3    H132205   6.538   4.669  18.714  1.5869 -2.1136  0.0981
 2670TIP3    H232206   6.390   4.640  18.725  1.4253 -0.7948  1.8401
 2671TIP3   OH232207   5.066   3.098  17.744 -0.2485 -0.2143  0.1437
 2671TIP3    H132208   5.059   3.031  17.676  1.9747 -0.5980  0.2191
 2671TIP3    H232209   5.092   3.177  17.697  2.0072 -0.6540  0.5668
 2672TIP3   OH232210   0.873   3.448  17.241 -0.2135  0.1618  0.2799
 2672TIP3    H132211   0.898   3.357  17.230 -0.7737 -0.1003  1.0572
 2672TIP3    H232212   0.777   3.447  17.244 -0.2234  0.7453  0.4743
 2673TIP3   OH232213   1.775   6.519  17.508  0.3975 -0.2104 -0.3646
 2673TIP3    H132214   1.786   6.425  17.495 -1.7364 -0.2067 -3.2984
 2673TIP3    H232215   1.849   6.559  17.462  0.9317 -0.4371  0.2974
 2674TIP3   OH232216   3.045   7.042  18.520 -0.1489  0.3635  0.0048
 2674TIP3    H132217   3.091   6.959  18.536  1.1941  1.4341  2.3188
 2674TIP3    H232218   3.110   7.109  18.539 -1.8012  1.9583  0.3208
 2675TIP3   OH232219   2.032   6.578  18.692 -0.4101 -0.4799  0.0133
 2675TIP3    H132220   2.000   6.630  18.765  3.7798  0.8202  1.2096
 2675TIP3    H232221   2.041   6.489  18.727 -1.4664 -0.5951  0.0135
 2676TIP3   OH232222   6.680   6.165  16.934  0.2780  0.2705  0.4063
 2676TIP3    H132223   6.670   6.071  16.918  1.5371  0.4585 -1.9215
 2676TIP3    H232224   6.591   6.199  16.934 -0.1444 -0.8067  0.3724
 2677TIP3   OH232225   3.014   1.272  16.988 -0.0287 -0.9970 -0.4772
 2677TIP3    H132226   3.032   1.363  17.010 -0.0975 -0.8871 -0.8896
 2677TIP3    H232227   3.101   1.235  16.969 -0.0524 -0.9057 -0.7545
 2678TIP3   OH232228   4.624   5.425  17.796  0.1671  0.5411  0.0439
 2678TIP3    H132229   4.652   5.459  17.711 -1.8335 -0.4278 -1.0722
 2678TIP3    H232230   4.643   5.332  17.792  2.4110  0.8410  1.7286
 2679TIP3   OH232231   4.443   6.934  18.560 -0.7866  0.1911 -0.0167
 2679TIP3    H132232   4.412   6.847  18.534 -0.5235  0.4243 -1.1488
 2679TIP3    H232233   4.493   6.918  18.640 -1.6149 -0.5481  0.3745
 2680TIP3   OH232234   3.342   7.071  17.458 -0.0555 -0.0679  0.3266
 2680TIP3    H132235   3.300   6.997  17.414  1.1152  0.3957 -1.6936
 2680TIP3    H232236   3.295   7.148  17.425  0.1296  0.2291  0.7477
 2681TIP3   OH232237   5.316   5.980  18.318  0.2442  0.2126  0.2910
 2681TIP3    H132238   5.230   5.957  18.281  1.3725 -2.3352 -0.9650
 2681TIP3    H232239   5.308   5.958  18.411 -0.3143 -0.4935  0.0878
 2682TIP3   OH232240   4.046   5.482  18.319 -0.2800 -0.0029 -0.0238
 2682TIP3    H132241   4.073   5.570  18.346 -0.8276 -0.1216  0.9722
 2682TIP3    H232242   4.027   5.490  18.226 -0.9896  1.1101  0.1976
 2683TIP3   OH232243   3.768   0.857  18.466 -0.1784  0.3920 -0.0331
 2683TIP3    H132244   3.706   0.930  18.468 -0.4314  0.1952 -0.4598
 2683TIP3    H232245   3.803   0.857  18.377 -0.9826 -0.6551 -0.3727
 2684TIP3   OH232246   6.658   5.443  18.103 -0.1986 -0.3695  0.9957
 2684TIP3    H132247   6.615   5.387  18.037  0.3267  0.3666  0.0096
 2684TIP3    H232248   6.586   5.468  18.161 -0.4151 -2.2558  1.6335
 2685TIP3   OH232249   1.883   5.578  19.213  0.0224 -0.0131 -0.3344
 2685TIP3    H132250   1.864   5.609  19.302  1.1705  0.7531 -0.3481
 2685TIP3    H232251   1.820   5.507  19.199 -0.9107  0.5858  0.6728
 2686TIP3   OH232252   3.680   3.284  18.859 -1.1920  0.1427  0.2743
 2686TIP3    H132253   3.642   3.367  18.888 -0.1881  1.3844 -1.7632
 2686TIP3    H232254   3.634   3.264  18.778  0.1696 -0.0625 -0.4674
 2687TIP3   OH232255   4.718   3.729  17.264 -0.0915 -0.5989  0.4904
 2687TIP3    H132256   4.690   3.730  17.355  1.3589  0.7858  0.9515
 2687TIP3    H232257   4.812   3.748  17.267  0.0054 -0.6207 -1.2852
 2688TIP3   OH232258   5.865   5.617  19.319 -0.3376 -0.0404 -0.1319
 2688TIP3    H132259   5.945   5.573  19.344 -0.1312 -0.3615 -1.2884
 2688TIP3    H232260   5.795   5.566  19.360  0.0144 -0.0999  0.3988
 2689TIP3   OH232261   0.003   0.870  17.199  0.0190  0.2438 -0.5278
 2689TIP3    H132262   0.029   0.940  17.258  2.2837  0.0646 -1.2161
 2689TIP3    H232263  -0.030   0.801  17.256 -1.7225  1.6029  0.1912
 2690TIP3   OH232264   3.659   7.197  19.345 -0.3593 -0.6316  0.2949
 2690TIP3    H132265   3.707   7.261  19.397  0.3809 -0.7752 -0.1930
 2690TIP3    H232266   3.567   7.223  19.354 -0.3993 -1.3081  2.5797
 2691TIP3   OH232267   3.309   4.210  19.608 -0.0118 -0.2535  0.0588
 2691TIP3    H132268   3.345   4.297  19.588  0.4702 -0.5309 -0.2828
 2691TIP3    H232269   3.373   4.149  19.574 -1.6117 -0.7955 -2.1498
 2692TIP3   OH232270   3.277   5.960  19.326  0.3832  0.2683  0.3883
 2692TIP3    H132271   3.207   6.013  19.287  0.4483  1.0237  1.2666
 2692TIP3    H232272   3.248   5.946  19.416  0.8838 -0.2886  0.4658
 2693TIP3   OH232273   4.431   4.604  19.241 -0.3523  0.0142  0.1609
 2693TIP3    H132274   4.440   4.686  19.193 -4.0453  0.8035  0.5187
 2693TIP3    H232275   4.463   4.537  19.180  0.0415  1.4428 -1.2790
 2694TIP3   OH232276   7.408   1.281  18.413  0.8057  0.5286  0.2904
 2694TIP3    H132277   7.374   1.230  18.487  0.6224  0.2325  0.0021
 2694TIP3    H232278   7.501   1.292  18.434  0.9265 -0.2227  0.1938
 2695TIP3   OH232279   2.184   6.748  18.233 -0.0721 -0.3741  1.0548
 2695TIP3    H132280   2.243   6.823  18.246  0.4713 -1.0607  2.8913
 2695TIP3    H232281   2.232   6.690  18.174 -0.0058  0.2256  0.5209
 2696TIP3   OH232282   0.155   4.441  18.017 -0.5696  0.3243  0.1357
 2696TIP3    H132283   0.121   4.377  17.955 -1.3466  1.1064 -0.2639
 2696TIP3    H232284   0.147   4.525  17.972  0.2330  0.7319  0.7346
 2697TIP3   OH232285   5.033   6.996  18.392  0.7430  0.0436  0.1319
 2697TIP3    H132286   5.040   6.908  18.429  0.0768  0.3127  0.9286
 2697TIP3    H232287   5.094   6.996  18.319  1.8118 -0.6254  0.9920
 2698TIP3   OH232288   1.445   2.160  16.751 -0.0415  0.2388 -0.3588
 2698TIP3    H132289   1.422   2.246  16.715 -1.1554 -0.1223 -0.5560
 2698TIP3    H232290   1.361   2.120  16.773  0.4913 -0.5757  0.2815
 2699TIP3   OH232291   2.639   6.279  18.974  0.3510 -0.1188  0.0914
 2699TIP3    H132292   2.687   6.347  18.927 -0.9586  1.1850  0.5651
 2699TIP3    H232293   2.622   6.317  19.060 -0.1692 -1.1662  0.4620
 2700TIP3   OH232294   1.843   2.255  17.233  0.2111  0.3915  0.3426
 2700TIP3    H132295   1.868   2.234  17.142  0.8777  0.3263  0.5358
 2700TIP3    H232296   1.794   2.179  17.262  0.8644 -0.0305  0.3635
 2701TIP3   OH232297   4.140   6.779  17.309 -0.5629 -0.3777  0.1684
 2701TIP3    H132298   4.046   6.782  17.325 -0.6224 -0.9624 -0.0500
 2701TIP3    H232299   4.152   6.708  17.245 -0.3070  1.5518 -2.0882
 2702TIP3   OH232300   6.372   7.256  17.518  0.5072 -0.2207  0.1528
 2702TIP3    H132301   6.455   7.298  17.495  0.4621  0.7985  1.7059
 2702TIP3    H232302   6.323   7.324  17.564 -1.2459 -0.7746 -0.8106
 2703TIP3   OH232303   2.669   0.376  18.932  0.3431 -0.0111  0.2338
 2703TIP3    H132304   2.762   0.400  18.934  0.2780  0.2797  2.0187
 2703TIP3    H232305   2.623   0.460  18.929  0.1146 -0.1733 -1.5443
 2704TIP3   OH232306   2.738   0.509  18.075  0.4494 -0.4135 -0.5189
 2704TIP3    H132307   2.756   0.440  18.140  0.8497  0.3394  0.1829
 2704TIP3    H232308   2.819   0.558  18.069  0.4820 -0.5681 -1.7469
 2705TIP3   OH232309   6.655   2.929  18.993  0.4227 -0.0156  0.0228
 2705TIP3    H132310   6.587   2.880  19.039  0.5578 -1.1659 -0.9158
 2705TIP3    H232311   6.679   2.872  18.919 -0.1492  1.9320 -1.7754
 2706TIP3   OH232312   6.355   5.827  16.946  0.7886 -0.1313 -0.1734
 2706TIP3    H132313   6.276   5.866  16.909 -0.2408 -0.9266  1.1299
 2706TIP3    H232314   6.408   5.902  16.974  0.3514  0.3921 -0.7201
 2707TIP3   OH232315   1.473   2.669  18.293  0.0351  0.1111  0.5398
 2707TIP3    H132316   1.528   2.673  18.215 -0.1282  1.3508  0.4596
 2707TIP3    H232317   1.476   2.578  18.321  1.6621  0.0378  0.2125
 2708TIP3   OH232318   2.749   6.646  16.904 -0.6434 -0.1842 -0.3954
 2708TIP3    H132319   2.817   6.712  16.918 -0.7800 -0.2113  0.4592
 2708TIP3    H232320   2.796   6.568  16.877 -0.3749 -0.0561 -0.3077
 2709TIP3   OH232321   4.526   6.696  18.080 -0.0574 -0.2070  0.2357
 2709TIP3    H132322   4.602   6.753  18.069  0.5689 -1.0069  0.3128
 2709TIP3    H232323   4.530   6.637  18.005 -0.0689 -0.8376  0.7237
 2710TIP3   OH232324   6.118   3.936  16.706  0.1121  0.2600 -0.2360
 2710TIP3    H132325   6.124   3.968  16.796  0.6808 -0.4096 -0.0234
 2710TIP3    H232326   6.082   3.848  16.715  0.2120  0.1737 -0.6555
 2711TIP3   OH232327   1.808   2.965  18.713  0.3235 -0.1929  0.3439
 2711TIP3    H132328   1.890   2.934  18.751  0.0632  1.9753  2.9565
 2711TIP3    H232329   1.834   3.037  18.655  0.3445  0.0433  0.6422
 2712TIP3   OH232330   4.781   0.629  17.149 -0.0633 -0.5054 -0.1841
 2712TIP3    H132331   4.819   0.716  17.146  1.5104 -1.0780  1.3101
 2712TIP3    H232332   4.717   0.633  17.220 -0.4598 -0.4138 -0.5412
 2713TIP3   OH232333   5.555   3.425  18.683 -0.4659 -0.1773 -0.1132
 2713TIP3    H132334   5.511   3.509  18.691 -2.1926 -1.1247  1.0737
 2713TIP3    H232335   5.498   3.373  18.626  0.6897 -0.5019 -1.0157
 2714TIP3   OH232336   6.230   3.229  18.561 -0.7420 -0.1259  0.1426
 2714TIP3    H132337   6.199   3.216  18.651 -3.1068  0.7274 -0.4708
 2714TIP3    H232338   6.262   3.143  18.534  1.2157 -0.1313  2.1571
 2715TIP3   OH232339   0.129   6.754  18.710  0.8701  0.4387 -0.1445
 2715TIP3    H132340   0.072   6.687  18.673  1.5846  0.2747 -0.9869
 2715TIP3    H232341   0.075   6.798  18.775  0.7887 -1.8942  1.4946
 2716TIP3   OH232342   4.064   1.536  17.931  0.3917  0.7744  0.6664
 2716TIP3    H132343   4.151   1.545  17.892  1.6516  1.6099  3.4222
 2716TIP3    H232344   4.003   1.563  17.861  2.0596 -2.0879 -2.1513
 2717TIP3   OH232345   4.837   6.428  19.086  0.3063 -0.1986  0.6471
 2717TIP3    H132346   4.775   6.475  19.032 -0.4059 -0.2117  1.4295
 2717TIP3    H232347   4.922   6.444  19.046 -0.2343 -0.4767 -0.6503
 2718TIP3   OH232348   2.301   4.602  17.605  0.4833 -0.0895 -0.1924
 2718TIP3    H132349   2.345   4.540  17.547  1.1382 -0.0756  0.2753
 2718TIP3    H232350   2.319   4.569  17.693 -0.9989 -0.4521  0.0107
 2719TIP3   OH232351   5.030   0.069  19.399 -0.3717 -0.1963 -0.3644
 2719TIP3    H132352   5.036   0.119  19.480 -1.5820 -0.5713 -0.0191
 2719TIP3    H232353   5.037   0.134  19.329 -1.1772  0.3676  0.0727
 2720TIP3   OH232354   0.620   5.075  17.422 -0.2263  1.1818  0.3837
 2720TIP3    H132355   0.651   5.112  17.339  1.1782 -0.1226  0.2913
 2720TIP3    H232356   0.659   5.132  17.489  1.1732  0.4641  0.2158
 2721TIP3   OH232357   6.140   4.016  16.989 -0.5252 -0.4661  0.4426
 2721TIP3    H132358   6.162   4.108  17.004 -0.8448 -0.1808 -0.6965
 2721TIP3    H232359   6.216   3.968  17.021  0.8749  0.3724 -1.3621
 2722TIP3   OH232360   0.030   0.729  18.570 -0.2630 -0.4491 -0.2983
 2722TIP3    H132361   0.038   0.634  18.573  1.3846 -0.3173  1.0516
 2722TIP3    H232362   0.020   0.756  18.661  0.4318  0.7349 -0.5450
 2723TIP3   OH232363   2.765   2.807  17.541 -0.6957  0.1165 -0.0280
 2723TIP3    H132364   2.722   2.731  17.503 -0.7743 -0.1718  0.6197
 2723TIP3    H232365   2.855   2.804  17.507 -0.6995 -0.2691 -0.0012
 2724TIP3   OH232366   3.144   1.947  17.780  0.3180  0.4298  0.3950
 2724TIP3    H132367   3.209   2.007  17.817  0.0322  1.3486 -0.5387
 2724TIP3    H232368   3.088   1.924  17.854 -1.0664  3.2872  0.3665
 2725TIP3   OH232369   1.758   2.709  18.569  0.1237 -0.2193 -0.6542
 2725TIP3    H132370   1.831   2.732  18.627 -0.1105 -1.3871  0.1465
 2725TIP3    H232371   1.732   2.622  18.598 -3.0358  0.9833  0.5732
 2726TIP3   OH232372   6.360   4.310  17.766 -0.3163  0.3600 -0.8845
 2726TIP3    H132373   6.280   4.361  17.756 -0.2139  0.5512 -0.7377
 2726TIP3    H232374   6.431   4.374  17.759 -0.2302  0.4630  0.6957
 2727TIP3   OH232375   7.601   7.678  18.502  0.6096  0.0567  0.2555
 2727TIP3    H132376   7.565   7.767  18.500  0.3906 -0.0199  0.6667
 2727TIP3    H232377   7.613   7.659  18.595  3.0739  0.6191  0.1133
 2728TIP3   OH232378   5.418   7.389  17.522 -0.0486  0.1864 -0.2326
 2728TIP3    H132379   5.503   7.420  17.555  1.3840 -1.7132 -1.8618
 2728TIP3    H232380   5.416   7.416  17.431 -0.8479 -0.4544 -0.4175
 2729TIP3   OH232381   2.271   7.155  17.695 -0.4379  0.4135 -0.3440
 2729TIP3    H132382   2.293   7.240  17.657 -1.2092  0.5684 -0.4629
 2729TIP3    H232383   2.227   7.176  17.777 -3.0245  0.2482 -1.6038
 2730TIP3   OH232384   0.166   1.854  18.685  0.1426  0.1779  0.1546
 2730TIP3    H132385   0.162   1.856  18.590  0.8276 -1.0633  0.0759
 2730TIP3    H232386   0.225   1.926  18.708 -0.1195  0.5557 -0.3379
 2731TIP3   OH232387   0.968   7.147  17.335 -0.4369  0.1213  0.0286
 2731TIP3    H132388   1.000   7.177  17.250 -0.1635 -3.6315 -1.4034
 2731TIP3    H232389   0.893   7.091  17.313 -1.4030  0.3453  2.4537
 2732TIP3   OH232390   0.652   7.201  17.691  0.2130  0.2871  0.2362
 2732TIP3    H132391   0.632   7.111  17.666 -1.2224  1.0959 -1.8391
 2732TIP3    H232392   0.732   7.222  17.643 -0.6613  0.7558 -1.0828
 2733TIP3   OH232393   5.021   3.752  18.953  0.2337  0.4255 -0.2892
 2733TIP3    H132394   4.992   3.809  18.882 -1.3961 -0.8797 -0.7379
 2733TIP3    H232395   5.017   3.664  18.916 -1.6135 -0.3821  1.6686
 2734TIP3   OH232396   0.628   7.546  18.639 -0.2172  0.1123  0.0883
 2734TIP3    H132397   0.707   7.578  18.682 -0.8157 -0.5111  1.7314
 2734TIP3    H232398   0.566   7.530  18.710 -1.7172  0.2474 -1.1246
 2735TIP3   OH232399   5.997   1.497  18.870  0.0347 -0.2202  0.0453
 2735TIP3    H132400   6.044   1.526  18.791 -0.1493  1.3789  0.4818
 2735TIP3    H232401   6.023   1.560  18.937 -0.5488 -1.0053  1.0261
 2736TIP3   OH232402   2.949   3.194  18.346  0.4077 -0.5626  0.8044
 2736TIP3    H132403   2.918   3.222  18.432  1.0487 -0.1307  0.9040
 2736TIP3    H232404   2.901   3.250  18.285 -0.1850 -0.9947  0.8596
 2737TIP3   OH232405   4.686   0.313  19.041  0.3147  0.0499 -0.3363
 2737TIP3    H132406   4.731   0.315  19.125 -0.7073 -0.5896  0.2582
 2737TIP3    H232407   4.723   0.238  18.996  2.0907  1.3771 -1.2099
 2738TIP3   OH232408   1.146   7.426  17.525  0.1658 -0.4212  0.1492
 2738TIP3    H132409   1.135   7.520  17.540 -1.2633  0.1220 -3.4507
 2738TIP3    H232410   1.176   7.419  17.434 -1.4700 -3.4981 -0.2843
 2739TIP3   OH232411   1.289   3.599  17.107 -0.2477  0.1696 -0.2203
 2739TIP3    H132412   1.281   3.617  17.014 -0.6579 -0.0155 -0.2235
 2739TIP3    H232413   1.315   3.683  17.146 -0.8177  0.4316 -0.4021
 2740TIP3   OH232414   5.568   5.238  17.229  0.1784  0.4408 -0.6162
 2740TIP3    H132415   5.636   5.210  17.168  0.8145 -1.6380  0.9383
 2740TIP3    H232416   5.489   5.193  17.199 -0.5001  2.5159 -2.1635
 2741TIP3   OH232417   4.292   1.370  18.974 -0.6089 -0.6485  0.3918
 2741TIP3    H132418   4.335   1.296  19.015  1.0384 -0.4681 -0.8908
 2741TIP3    H232419   4.201   1.363  19.000 -0.1558 -2.1228  1.7001
 2742TIP3   OH232420   7.660   4.428  18.243  0.3989  0.4907  0.1526
 2742TIP3    H132421   7.735   4.437  18.185  0.9432  1.2611  0.9514
 2742TIP3    H232422   7.595   4.380  18.192  0.6393  1.6605 -1.2943
 2743TIP3   OH232423   3.289   6.313  18.872 -0.2304  0.2406  0.5567
 2743TIP3    H132424   3.379   6.289  18.893  0.4118  1.1289 -0.9686
 2743TIP3    H232425   3.298   6.390  18.815 -1.9352 -0.0447 -0.1505
 2744TIP3   OH232426   1.003   3.483  17.604  0.5288  0.7606 -0.2722
 2744TIP3    H132427   1.005   3.579  17.608  0.8141  0.7152  2.0184
 2744TIP3    H232428   0.919   3.458  17.642  0.0194  0.0843 -1.7597
 2745TIP3   OH232429   4.142   2.842  17.108 -0.7575 -0.2931 -0.2905
 2745TIP3    H132430   4.234   2.860  17.086 -0.9099  0.2363 -0.5174
 2745TIP3    H232431   4.094   2.866  17.029 -1.0065 -1.4736 -0.5043
 2746TIP3   OH232432   2.812   3.714  18.970 -0.2485 -0.1187 -0.1438
 2746TIP3    H132433   2.786   3.792  19.019  2.0825  0.4169  0.3661
 2746TIP3    H232434   2.856   3.659  19.035  1.2314 -0.2448 -1.2033
 2747TIP3   OH232435   7.306   0.860  18.410 -0.2408  0.2022  0.2456
 2747TIP3    H132436   7.379   0.918  18.430  1.5062 -1.9204  0.4453
 2747TIP3    H232437   7.339   0.803  18.340 -1.4338 -1.2559  0.8062
 2748TIP3   OH232438   6.960   5.813  18.202  0.0706  0.5094 -0.2855
 2748TIP3    H132439   6.901   5.796  18.275 -0.1991  1.3115 -0.3027
 2748TIP3    H232440   6.916   5.776  18.126  0.2045 -0.0455 -0.1011
 2749TIP3   OH232441   6.796   2.528  18.399 -0.4801  0.2137  0.2819
 2749TIP3    H132442   6.859   2.583  18.446 -1.1178 -1.1730  2.8854
 2749TIP3    H232443   6.742   2.489  18.467 -1.5323 -1.8472 -1.6206
 2750TIP3   OH232444   3.969   2.604  18.413  0.1368  0.5028  0.0942
 2750TIP3    H132445   3.967   2.588  18.319  0.3781  2.0776 -0.2019
 2750TIP3    H232446   4.040   2.667  18.426 -0.7591  1.3526  1.1408
 2751TIP3   OH232447   7.603   5.134  19.232  0.0548 -0.4239  0.4228
 2751TIP3    H132448   7.625   5.045  19.203  0.3056 -0.7868  1.6716
 2751TIP3    H232449   7.667   5.153  19.300 -0.0431  0.7013  0.2230
 2752TIP3   OH232450   3.566   7.214  19.035 -0.5420 -0.0795 -0.4031
 2752TIP3    H132451   3.629   7.188  19.102 -2.4260 -0.6866  1.1923
 2752TIP3    H232452   3.602   7.296  19.000  1.8031 -1.0652 -0.5284
 2753TIP3   OH232453   6.196   6.156  18.830  0.3109 -0.0734 -0.3205
 2753TIP3    H132454   6.121   6.148  18.771  1.4534  0.5552 -1.9450
 2753TIP3    H232455   6.224   6.066  18.844 -0.5310 -0.2930  0.0251
 2754TIP3   OH232456   7.222   1.871  19.137 -0.1088 -0.2289  0.1187
 2754TIP3    H132457   7.131   1.839  19.134 -0.5271  0.9313  0.0534
 2754TIP3    H232458   7.215   1.961  19.169  1.1190 -0.4400  1.0628
 2755TIP3   OH232459   4.811   7.023  17.497 -0.1265 -0.2033 -0.0546
 2755TIP3    H132460   4.902   6.992  17.494 -0.4424 -1.2009  0.1740
 2755TIP3    H232461   4.816   7.114  17.467  0.7230 -0.7341 -1.6443
 2756TIP3   OH232462   6.443   2.715  19.072 -0.1058  0.5736  0.2289
 2756TIP3    H132463   6.351   2.741  19.068  0.0770  1.0996 -2.2049
 2756TIP3    H232464   6.441   2.621  19.053 -0.1497  0.6218 -0.0183
 2757TIP3   OH232465   6.556   0.765  17.698 -0.2929 -0.3505 -0.7897
 2757TIP3    H132466   6.536   0.688  17.752 -0.5001  0.2727  0.0372
 2757TIP3    H232467   6.471   0.805  17.681 -0.1409 -0.0546 -0.8524
 2758TIP3   OH232468   7.038   4.341  18.488 -0.0106 -0.0888 -0.2748
 2758TIP3    H132469   6.985   4.415  18.518 -0.5026  0.6101 -2.6486
 2758TIP3    H232470   7.124   4.380  18.468  0.2758 -0.5100  0.1135
 2759TIP3   OH232471   3.214   4.230  16.548 -0.0271 -0.2478  0.5723
 2759TIP3    H132472   3.162   4.224  16.468 -1.1703  1.9539  1.0778
 2759TIP3    H232473   3.179   4.162  16.605 -2.1038  0.8635  0.7152
 2760TIP3   OH232474   5.254   6.485  18.652  0.6649 -0.3146  0.5418
 2760TIP3    H132475   5.344   6.460  18.627  0.6295 -0.2265  0.3257
 2760TIP3    H232476   5.198   6.433  18.595  0.5950  0.7805 -0.4229
 2761TIP3   OH232477   7.102   3.000  18.219 -0.6113  0.0153  0.1584
 2761TIP3    H132478   7.070   2.972  18.133 -0.0222 -0.5660  0.1205
 2761TIP3    H232479   7.070   2.932  18.279  2.9532 -2.2923 -0.2688
 2762TIP3   OH232480   0.675   3.901  18.932  0.2822  0.1283  0.7143
 2762TIP3    H132481   0.582   3.900  18.911  0.8665 -0.1834 -2.3466
 2762TIP3    H232482   0.709   3.818  18.899  2.0389  1.3136 -0.7182
 2763TIP3   OH232483   1.384   1.134  18.589  0.0197  0.7009  0.3436
 2763TIP3    H132484   1.321   1.078  18.634 -0.3221 -0.8428 -1.8424
 2763TIP3    H232485   1.336   1.214  18.569 -0.3979  0.6263  1.0158
 2764TIP3   OH232486   4.476   2.360  19.214 -0.1232  0.2221 -0.0889
 2764TIP3    H132487   4.399   2.304  19.208 -0.8893  1.3426 -1.4721
 2764TIP3    H232488   4.545   2.311  19.170 -0.4446 -0.1565 -0.1761
 2765TIP3   OH232489   3.408   7.644  16.752 -0.4265 -0.5177  0.4519
 2765TIP3    H132490   3.330   7.627  16.804 -1.7586  1.0005 -0.9051
 2765TIP3    H232491   3.379   7.630  16.661  0.5442  1.0573 -0.1429
 2766TIP3   OH232492   2.394   7.662  16.411 -0.0327  0.0425  0.3210
 2766TIP3    H132493   2.438   7.642  16.329 -0.6112  0.7579 -0.1831
 2766TIP3    H232494   2.364   7.577  16.444 -0.1737 -0.2008 -0.4273
 2767TIP3   OH232495   4.864   5.487  18.873 -0.0452  0.1599  0.0540
 2767TIP3    H132496   4.825   5.572  18.851 -0.0646  0.3250  0.7193
 2767TIP3    H232497   4.792   5.438  18.913  0.4400  0.4999  1.3790
 2768TIP3   OH232498   7.161   2.181  16.732  0.0449  0.0055 -0.4841
 2768TIP3    H132499   7.223   2.112  16.708  1.0488  1.2623 -1.6321
 2768TIP3    H232500   7.076   2.138  16.731  0.7560 -1.4712 -0.0739
 2769TIP3   OH232501   6.402   1.178  17.470 -0.3363 -0.3127  0.2896
 2769TIP3    H132502   6.348   1.182  17.549  0.9732 -2.1548  1.3528
 2769TIP3    H232503   6.413   1.085  17.453  1.9572  0.0079 -0.2723
 2770TIP3   OH232504   1.738   6.990  18.006 -0.7586 -0.3702 -0.0552
 2770TIP3    H132505   1.754   6.919  18.068 -1.5420  0.2108  0.8346
 2770TIP3    H232506   1.818   7.043  18.009 -0.4473 -0.8232 -0.2115
 2771TIP3   OH232507   1.622   4.202  17.337  0.5287 -0.1563  0.4557
 2771TIP3    H132508   1.624   4.196  17.433  0.3155 -0.3943  0.4490
 2771TIP3    H232509   1.622   4.110  17.308  0.2474 -0.0886  0.2393
 2772TIP3   OH232510   0.329   3.745  17.188  0.3244  0.5878  0.0031
 2772TIP3    H132511   0.287   3.666  17.220  1.0438  1.0726  2.3324
 2772TIP3    H232512   0.296   3.755  17.098 -1.6975 -0.9549  0.4977
 2773TIP3   OH232513   0.298   1.522  19.025 -0.4028  0.8918 -0.5892
 2773TIP3    H132514   0.220   1.576  19.014  0.6186  2.2494 -1.5420
 2773TIP3    H232515   0.370   1.578  18.996  1.2064  0.4325  2.2040
 2774TIP3   OH232516   7.314   1.384  17.797  0.4197 -0.3731  0.2094
 2774TIP3    H132517   7.229   1.343  17.788 -0.5207  1.0383  1.8794
 2774TIP3    H232518   7.355   1.375  17.711 -1.6796 -0.4946 -0.8403
 2775TIP3   OH232519   7.400   2.928  16.983 -0.2864  0.4437  0.3355
 2775TIP3    H132520   7.317   2.943  16.939 -0.5538  0.5287  0.8589
 2775TIP3    H232521   7.383   2.951  17.075  0.3986  0.7737  0.3847
 2776TIP3   OH232522   4.400   5.407  19.030 -0.0890  0.4127  0.3305
 2776TIP3    H132523   4.341   5.475  18.997  0.4317  0.8061  0.1905
 2776TIP3    H232524   4.464   5.455  19.084  1.0155  0.1995 -0.7493
 2777TIP3   OH232525   7.462   6.845  17.959  0.2024  0.3074  0.9640
 2777TIP3    H132526   7.435   6.771  18.013 -2.1377  0.2820 -0.1162
 2777TIP3    H232527   7.506   6.905  18.019 -0.0960 -0.8351  2.3545
 2778TIP3   OH232528   7.379   7.291  17.600 -0.1298  0.5002 -0.0192
 2778TIP3    H132529   7.349   7.305  17.690  2.7175 -1.5442  1.4009
 2778TIP3    H232530   7.450   7.228  17.608  0.7470  0.8072 -3.6741
 2779TIP3   OH232531   4.218   2.889  19.451  0.1127  0.3517 -0.9385
 2779TIP3    H132532   4.207   2.850  19.365 -0.5570 -0.2834 -0.5825
 2779TIP3    H232533   4.129   2.912  19.478 -0.0770 -1.9021  0.6806
 2780TIP3   OH232534   5.284   2.266  16.788 -0.2425  0.2355 -0.3437
 2780TIP3    H132535   5.309   2.219  16.868  0.6821  1.7482  0.3023
 2780TIP3    H232536   5.256   2.197  16.727  1.7871 -1.2236  0.2818
 2781TIP3   OH232537   7.477   1.873  19.073  0.4066 -0.1792 -0.3057
 2781TIP3    H132538   7.385   1.874  19.099  0.6812  1.2172  0.7067
 2781TIP3    H232539   7.477   1.827  18.989 -1.1744 -0.4059 -0.2207
 2782TIP3   OH232540   3.308   2.733  18.835 -0.2194 -0.4442 -0.4030
 2782TIP3    H132541   3.232   2.778  18.873 -1.0801 -0.8315 -1.5832
 2782TIP3    H232542   3.372   2.729  18.905 -0.4439  1.8476  0.0108
 2783TIP3   OH232543   3.286   0.128  18.756 -0.1262 -0.1557 -0.3899
 2783TIP3    H132544   3.330   0.150  18.673 -0.7948  2.1400 -0.1970
 2783TIP3    H232545   3.324   0.188  18.820 -0.4862 -1.0919  0.7311
 2784TIP3   OH232546   3.826   6.981  18.647  0.1738 -0.1335 -0.0618
 2784TIP3    H132547   3.849   6.899  18.691 -0.5920  0.6003  1.8063
 2784TIP3    H232548   3.887   7.046  18.682 -1.3161  0.7514  1.0048
 2785TIP3   OH232549   5.857   6.552  17.890  0.2007 -0.0444 -0.2288
 2785TIP3    H132550   5.868   6.544  17.985  0.5039  2.1019 -0.0242
 2785TIP3    H232551   5.945   6.573  17.858 -0.3265  1.7955 -0.6109
 2786TIP3   OH232552   2.088   7.476  18.818 -0.1002 -0.5269 -0.0599
 2786TIP3    H132553   1.995   7.481  18.800 -0.1765  1.1988  0.5757
 2786TIP3    H232554   2.095   7.418  18.894 -0.9536  1.0483  1.3167
 2787TIP3   OH232555   4.404   2.639  17.326 -0.5129 -0.4546  0.1482
 2787TIP3    H132556   4.446   2.565  17.371 -2.4589 -1.0665  1.0712
 2787TIP3    H232557   4.373   2.603  17.243 -1.7688 -0.7947  0.7491
 2788TIP3   OH232558   2.279   5.215  16.986  0.4381 -0.3127 -0.4026
 2788TIP3    H132559   2.197   5.225  16.937 -0.0120  1.0484  0.5628
 2788TIP3    H232560   2.342   5.267  16.938 -0.1805  1.6257  0.7859
 2789TIP3   OH232561   7.570   7.322  17.164  0.3182 -0.0419 -0.3934
 2789TIP3    H132562   7.614   7.367  17.092  0.3337 -1.5661 -1.3892
 2789TIP3    H232563   7.619   7.240  17.173 -1.2758 -1.0154 -0.3969
 2790TIP3   OH232564   7.668   7.366  17.943 -0.4155 -0.2514  0.3505
 2790TIP3    H132565   7.743   7.347  17.888 -0.5225 -0.6600  0.3413
 2790TIP3    H232566   7.704   7.415  18.017 -0.5275  1.8897 -0.9501
 2791TIP3   OH232567   5.956   6.949  19.060 -0.2575 -0.0974 -0.2359
 2791TIP3    H132568   5.992   7.036  19.076 -0.2603  0.0209 -0.8548
 2791TIP3    H232569   6.017   6.908  18.999 -0.4739 -0.3793 -0.2672
 2792TIP3   OH232570   7.303   0.046  17.220  0.0623  0.4341  0.2313
 2792TIP3    H132571   7.311   0.137  17.249 -0.7653  0.2253  1.1598
 2792TIP3    H232572   7.379   0.032  17.163 -0.0628  1.8432 -0.3249
 2793TIP3   OH232573   7.191   6.426  17.518  0.4086 -0.1517 -0.4742
 2793TIP3    H132574   7.122   6.432  17.452 -1.0955  0.2643  1.0805
 2793TIP3    H232575   7.190   6.511  17.562  0.7900 -0.7281  0.6733
 2794TIP3   OH232576   3.058   0.630  18.418 -0.0138  0.6440 -0.2530
 2794TIP3    H132577   2.973   0.641  18.376 -0.3293  0.2066  0.2539
 2794TIP3    H232578   3.111   0.703  18.385 -1.4073  2.5763  1.4405
 2795TIP3   OH232579   0.658   5.117  17.760  0.1252 -0.0085  0.0851
 2795TIP3    H132580   0.651   5.176  17.685 -1.2618 -0.7369 -0.4065
 2795TIP3    H232581   0.724   5.157  17.817  0.1222  1.3389 -0.8195
 2796TIP3   OH232582   1.363   4.678  18.032 -0.1924 -0.0533 -0.2132
 2796TIP3    H132583   1.413   4.709  17.957 -1.4259  1.0342 -0.6054
 2796TIP3    H232584   1.305   4.750  18.055 -2.2169 -1.5501 -0.3244
 2797TIP3   OH232585   7.600   7.622  18.785  0.5360 -0.0455 -0.0202
 2797TIP3    H132586   7.554   7.693  18.830 -0.4610 -0.1859 -0.7782
 2797TIP3    H232587   7.665   7.591  18.848  0.0295  0.6009  0.8345
 2798TIP3   OH232588   5.736   5.197  18.554  0.0088  0.0210 -0.0830
 2798TIP3    H132589   5.741   5.135  18.481  0.4360  2.0018 -1.8243
 2798TIP3    H232590   5.642   5.216  18.562 -0.1223 -0.7960  0.4454
 2799TIP3   OH232591   2.609   1.153  18.653 -0.8017 -0.4204  0.0063
 2799TIP3    H132592   2.654   1.145  18.737 -0.1528 -0.6722 -0.3626
 2799TIP3    H232593   2.520   1.179  18.677  0.1553  2.7619  0.6633
 2800TIP3   OH232594   6.299   1.598  18.048  0.1689 -0.7148 -0.3776
 2800TIP3    H132595   6.351   1.551  18.112 -0.0305 -1.2566 -0.6106
 2800TIP3    H232596   6.307   1.690  18.074  0.7938 -0.8436 -0.0953
 2801TIP3   OH232597   4.046   2.479  16.925  0.1480  0.0348 -0.2348
 2801TIP3    H132598   3.997   2.516  16.852 -0.7791 -0.7011 -0.0000
 2801TIP3    H232599   4.109   2.420  16.883  1.0889  1.2192 -0.5568
 2802TIP3   OH232600   2.527   1.206  17.540 -0.1681 -0.9135  0.5719
 2802TIP3    H132601   2.491   1.189  17.627  0.2668 -0.4400  0.8549
 2802TIP3    H232602   2.530   1.120  17.498  2.1732 -1.6634  2.0429
 2803TIP3   OH232603   6.844   0.170  17.356 -0.4212 -0.0747 -0.2347
 2803TIP3    H132604   6.936   0.144  17.360  0.1094  1.7610  0.4025
 2803TIP3    H232605   6.802   0.102  17.303  0.9458 -1.8735  0.8804
 2804TIP3   OH232606   7.548   3.483  17.841 -0.3128  0.4896 -0.0969
 2804TIP3    H132607   7.486   3.438  17.898 -1.1585 -0.9007 -2.0212
 2804TIP3    H232608   7.634   3.448  17.867 -0.5176  0.8392  1.1401
 2805TIP3   OH232609   6.846   2.767  17.864  0.2508  0.0673  0.7941
 2805TIP3    H132610   6.910   2.706  17.900  0.0464  0.3467  1.6707
 2805TIP3    H232611   6.783   2.780  17.935  0.3512  1.3832  0.6727
 2806TIP3   OH232612   5.501   7.633  19.310  0.6136  0.3059  0.2825
 2806TIP3    H132613   5.465   7.554  19.352 -0.8934  2.0584  2.5221
 2806TIP3    H232614   5.447   7.646  19.232  1.5464 -1.3783 -0.7168
 2807TIP3   OH232615   0.262   3.259  17.317  0.2993  0.0732  0.3335
 2807TIP3    H132616   0.307   3.175  17.316  1.8974  0.8855 -1.1247
 2807TIP3    H232617   0.178   3.241  17.275  1.8873 -0.2491 -2.9979
 2808TIP3   OH232618   0.043   4.126  16.877  0.4592  0.0880 -0.0189
 2808TIP3    H132619   0.066   4.110  16.969 -1.0952  0.4057  0.4572
 2808TIP3    H232620   0.084   4.054  16.829  0.6691 -0.5027  1.0219
 2809TIP3   OH232621   1.258   4.815  19.037  0.1376  0.0837  0.1590
 2809TIP3    H132622   1.206   4.890  19.006  0.4425 -0.3473 -1.4780
 2809TIP3    H232623   1.215   4.789  19.119 -0.7002  1.2824  0.1316
 2810TIP3   OH232624   3.196   4.336  17.864 -0.3242 -0.0915 -0.5801
 2810TIP3    H132625   3.244   4.262  17.827  1.1947  1.7571 -2.5530
 2810TIP3    H232626   3.117   4.343  17.810 -2.5576 -2.4914  2.0222
 2811TIP3   OH232627   5.750   2.378  18.156  0.1495 -0.1707  0.0594
 2811TIP3    H132628   5.724   2.326  18.232 -1.2522 -1.1663 -1.0653
 2811TIP3    H232629   5.703   2.461  18.167  2.0032  0.7776  1.5905
 2812TIP3   OH232630   6.285   3.528  18.316  0.5018 -0.7693 -0.2061
 2812TIP3    H132631   6.361   3.566  18.360  0.0671  2.0920 -1.6363
 2812TIP3    H232632   6.318   3.500  18.231  0.0295  0.5711 -0.8693
 2813TIP3   OH232633   3.559   6.137  17.949 -0.8023  0.5947 -0.3203
 2813TIP3    H132634   3.595   6.096  17.870 -0.9686 -0.9468  0.3621
 2813TIP3    H232635   3.480   6.182  17.920  0.0810  1.5567 -1.3254
 2814TIP3   OH232636   2.975   3.732  17.430 -0.5386  0.0184 -0.1903
 2814TIP3    H132637   3.061   3.770  17.410 -1.1140  1.5080  0.0280
 2814TIP3    H232638   2.986   3.692  17.516 -0.0889  0.2790 -0.1219
 2815TIP3   OH232639   3.152   0.201  18.384 -0.3305  0.1339 -0.3173
 2815TIP3    H132640   3.148   0.181  18.291  1.6357 -1.6480 -0.1065
 2815TIP3    H232641   3.094   0.136  18.425 -0.5902  0.4106 -0.2459
 2816TIP3   OH232642   7.566   4.242  17.158 -0.0703 -0.5082 -0.0917
 2816TIP3    H132643   7.623   4.250  17.082  1.7004 -1.1917  1.0903
 2816TIP3    H232644   7.545   4.332  17.182  0.1219 -0.2609 -0.8135
 2817TIP3   OH232645   5.498   0.458  17.892  0.4476  0.7800 -0.5544
 2817TIP3    H132646   5.452   0.455  17.976 -1.4339  0.6455 -1.5329
 2817TIP3    H232647   5.495   0.550  17.866  0.4469  0.7148 -0.7871
 2818TIP3   OH232648   1.098   5.763  18.763  0.1735  0.0565  0.7104
 2818TIP3    H132649   1.153   5.838  18.740 -2.3862  2.5008  1.9993
 2818TIP3    H232650   1.146   5.718  18.832  1.9226  0.2785 -0.3189
 2819TIP3   OH232651   3.607   6.750  17.160  0.3559 -0.3667 -0.2194
 2819TIP3    H132652   3.655   6.812  17.105 -0.2837  0.4799  0.1608
 2819TIP3    H232653   3.517   6.755  17.129  0.0586 -0.1525  0.6434
 2820TIP3   OH232654   0.118   6.455  18.968 -0.2154 -0.0618 -0.7278
 2820TIP3    H132655   0.074   6.521  19.022  1.5821 -0.2721  1.1107
 2820TIP3    H232656   0.050   6.423  18.909 -1.6380  1.9987 -0.3182
 2821TIP3   OH232657   0.205   3.804  18.045 -0.1175  0.2100 -0.7506
 2821TIP3    H132658   0.119   3.826  18.009  0.0793 -0.6604 -1.8054
 2821TIP3    H232659   0.255   3.774  17.969  0.8025 -0.2147  0.0126
 2822TIP3   OH232660   3.250   1.355  17.887 -0.3411 -0.2065 -0.0330
 2822TIP3    H132661   3.334   1.370  17.932 -0.2958  1.1738 -0.5212
 2822TIP3    H232662   3.260   1.270  17.845  1.5057  0.6694 -1.5162
 2823TIP3   OH232663   4.988   5.307  18.114 -0.0437 -0.3333  0.4836
 2823TIP3    H132664   5.012   5.367  18.043 -2.6826 -1.8181 -1.8642
 2823TIP3    H232665   5.071   5.268  18.142  1.0346 -1.1529 -3.2759
 2824TIP3   OH232666   4.949   1.579  16.898  0.2916 -0.4144 -0.5083
 2824TIP3    H132667   4.868   1.575  16.949  0.6078 -2.8421 -0.0908
 2824TIP3    H232668   4.943   1.505  16.838  1.4968  0.3602 -1.6451
 2825TIP3   OH232669   3.000   4.024  19.150  0.0636  0.0860  0.4665
 2825TIP3    H132670   2.978   4.064  19.235  1.3160 -1.7397  1.7450
 2825TIP3    H232671   2.919   4.028  19.100 -1.1317  0.0263  2.2749
 2826TIP3   OH232672   3.922   7.419  17.151  0.2078 -0.0353  0.1137
 2826TIP3    H132673   3.828   7.406  17.164 -0.0745  1.6074 -0.0667
 2826TIP3    H232674   3.933   7.422  17.056  0.0206  2.1525  0.1018
 2827TIP3   OH232675   6.158   4.976  17.829  0.6046 -0.3836  0.2174
 2827TIP3    H132676   6.147   4.883  17.852  1.1980 -0.1588  1.4934
 2827TIP3    H232677   6.124   4.982  17.740  1.4450 -2.0122 -0.2549
 2828TIP3   OH232678   1.059   5.041  16.745  0.3538  0.0030 -0.6175
 2828TIP3    H132679   0.984   5.018  16.801  1.1325  0.2272  0.5571
 2828TIP3    H232680   1.023   5.041  16.656 -1.0551  0.1391 -0.0855
 2829TIP3   OH232681   2.017   7.015  18.847  0.6587 -0.5934 -0.0858
 2829TIP3    H132682   2.064   7.083  18.894 -1.2970 -0.3150  1.5914
 2829TIP3    H232683   2.029   7.036  18.754 -1.9284  3.6335  0.2904
 2830TIP3   OH232684   4.579   7.080  18.057 -0.3124 -0.3970 -0.6460
 2830TIP3    H132685   4.673   7.099  18.057 -0.3250 -0.2400  0.7006
 2830TIP3    H232686   4.537   7.165  18.055 -0.4120 -0.4418 -0.5028
 2831TIP3   OH232687   2.931   4.818  19.249 -0.2699  0.5140  0.1208
 2831TIP3    H132688   2.925   4.726  19.224 -1.9991  0.8929 -1.0091
 2831TIP3    H232689   2.955   4.864  19.169  1.3665  0.9966  0.8480
 2832TIP3   OH232690   6.629   2.315  19.285  0.0580  0.1343 -0.5678
 2832TIP3    H132691   6.653   2.402  19.316  0.7597 -0.0979 -0.4445
 2832TIP3    H232692   6.564   2.331  19.216  0.7514  0.7852 -1.0805
 2833TIP3   OH232693   7.531   0.778  17.643  0.2008  0.1692  0.2120
 2833TIP3    H132694   7.627   0.775  17.650  0.1440 -1.2382  0.6937
 2833TIP3    H232695   7.514   0.835  17.568  1.4628 -0.7076 -0.7714
 2834TIP3   OH232696   2.781   7.515  17.478 -0.1577 -0.1091 -0.3882
 2834TIP3    H132697   2.757   7.604  17.452 -0.7168 -0.0151  0.4308
 2834TIP3    H232698   2.767   7.513  17.573  0.6116 -0.8360 -0.2842
 2835TIP3   OH232699   6.715   2.267  18.978  0.1032  0.7445  0.4491
 2835TIP3    H132700   6.800   2.251  19.020 -0.1811 -1.1633  0.3942
 2835TIP3    H232701   6.732   2.254  18.885 -0.1004  1.0757  0.3669
 2836TIP3   OH232702   5.043   4.963  17.859 -0.2584 -0.3918 -0.0538
 2836TIP3    H132703   4.977   5.024  17.892  0.4921 -0.5641  1.9005
 2836TIP3    H232704   5.006   4.929  17.778 -2.0721  0.3220  0.4278
 2837TIP3   OH232705   4.088   0.375  17.864  0.0420 -0.3587  0.0594
 2837TIP3    H132706   4.180   0.348  17.860 -0.1096 -1.0377  0.8770
 2837TIP3    H232707   4.088   0.449  17.925 -0.1269 -1.2038  1.1105
 2838TIP3   OH232708   6.907   7.275  17.650  0.2293  0.8295 -0.2834
 2838TIP3    H132709   6.937   7.365  17.661  0.4727  0.8717 -1.2043
 2838TIP3    H232710   6.984   7.228  17.619 -0.3573  0.7184 -1.6540
 2839TIP3   OH232711   1.765   4.902  17.836  0.7226 -0.5019  0.4255
 2839TIP3    H132712   1.695   4.838  17.848  0.7757 -0.5403  0.5308
 2839TIP3    H232713   1.732   4.982  17.877  0.9078 -0.6354  0.8330
 2840TIP3   OH232714   0.064   2.833  18.608 -0.6256  0.2463  0.1836
 2840TIP3    H132715   0.047   2.923  18.637 -0.9632  0.1296  0.3638
 2840TIP3    H232716   0.129   2.841  18.539 -3.1815  0.9837 -2.3134
 2841TIP3   OH232717   7.516   5.905  18.455 -0.0538 -0.8517  0.4130
 2841TIP3    H132718   7.536   5.998  18.444 -0.3364 -0.5567  2.0885
 2841TIP3    H232719   7.546   5.864  18.374  2.5396  0.3120  0.6909
 2842TIP3   OH232720   3.575   2.845  18.771  0.3522  0.0444 -0.0461
 2842TIP3    H132721   3.496   2.808  18.730 -0.2037  1.2304 -0.0846
 2842TIP3    H232722   3.646   2.788  18.740 -0.3279 -0.3322 -0.9916
 2843TIP3   OH232723   0.065   1.644  17.934 -0.2257 -0.3424  0.6069
 2843TIP3    H132724   0.009   1.573  17.967 -2.8531  2.0603  1.7412
 2843TIP3    H232725   0.140   1.644  17.994 -0.2452 -1.9639  0.6973
 2844TIP3   OH232726   0.533   0.481  17.018  0.2947 -0.0800 -0.6278
 2844TIP3    H132727   0.484   0.562  17.001 -0.5907 -0.4200  0.2418
 2844TIP3    H232728   0.493   0.445  17.097  0.2138 -1.7433 -1.3976
 2845TIP3   OH232729   7.262   3.469  18.998 -0.1938  0.0564 -0.1958
 2845TIP3    H132730   7.210   3.538  18.957  0.1228  1.5934  1.8130
 2845TIP3    H232731   7.258   3.488  19.091  0.5136 -2.2709  0.3752
 2846TIP3   OH232732   2.304   1.747  17.874  0.2073 -0.3884 -0.2863
 2846TIP3    H132733   2.243   1.714  17.808  0.0999 -0.8989  0.0645
 2846TIP3    H232734   2.315   1.675  17.935 -1.5664  0.8261  1.6118
 2847TIP3   OH232735   2.980   2.731  19.341 -0.1303  0.7074 -0.1459
 2847TIP3    H132736   2.888   2.703  19.331 -1.0518  2.7110  1.7783
 2847TIP3    H232737   3.015   2.672  19.408  0.1883 -0.3827 -1.2349
 2848TIP3   OH232738   1.902   1.849  18.920  0.0719  0.1533 -0.3387
 2848TIP3    H132739   1.857   1.773  18.884 -3.3653  0.4589  2.7031
 2848TIP3    H232740   1.850   1.924  18.891  1.3622  1.0341 -0.4517
 2849TIP3   OH232741   2.600   4.066  19.828  0.1105  0.3441  0.1371
 2849TIP3    H132742   2.517   4.092  19.867 -0.0183  0.5300 -0.2637
 2849TIP3    H232743   2.577   4.022  19.747  0.3826 -0.0107  0.2485
 2850TIP3   OH232744   2.331   3.682  18.045  0.0464 -0.5307  0.5340
 2850TIP3    H132745   2.235   3.686  18.050  0.0321 -1.6646  1.3606
 2850TIP3    H232746   2.361   3.741  18.114 -0.0685 -0.9534  0.9497
 2851TIP3   OH232747   5.589   2.837  18.487  0.0563  0.1498 -0.3613
 2851TIP3    H132748   5.649   2.817  18.559  0.4263 -1.0186 -0.9708
 2851TIP3    H232749   5.508   2.865  18.531 -0.1726 -1.8120  0.5803
 2852TIP3   OH232750   5.688   3.945  17.553  0.2911  0.3224 -0.4932
 2852TIP3    H132751   5.684   3.908  17.642  0.7248  1.8164  0.1692
 2852TIP3    H232752   5.780   3.967  17.541 -0.2004  2.8052 -0.1534
 2853TIP3   OH232753   3.097   4.639  17.174 -0.1876  0.1186 -0.3787
 2853TIP3    H132754   3.160   4.643  17.101  0.8266  0.6055  0.4958
 2853TIP3    H232755   3.055   4.725  17.174 -0.0221  0.1992 -0.2434
 2854TIP3   OH232756   3.931   3.993  19.553  0.1335 -0.0903 -0.2549
 2854TIP3    H132757   3.923   4.085  19.579  2.9397  0.2823 -0.4121
 2854TIP3    H232758   3.873   3.985  19.477 -1.9546  0.8849  1.1507
 2855TIP3   OH232759   7.408   0.129  18.903 -0.3308  0.1091 -0.4309
 2855TIP3    H132760   7.330   0.185  18.904  0.2043  0.9424 -1.9640
 2855TIP3    H232761   7.481   0.190  18.905  0.2703 -0.4712 -2.4740
 2856TIP3   OH232762   5.128   3.566  17.386  0.4054  0.0954  0.0946
 2856TIP3    H132763   5.196   3.530  17.329 -1.2738 -0.6414 -1.5299
 2856TIP3    H232764   5.081   3.628  17.331 -2.9209 -2.4940 -0.3154
 2857TIP3   OH232765   6.765   5.850  18.900  0.3924 -0.2907  0.3766
 2857TIP3    H132766   6.769   5.817  18.810 -1.5423 -0.7050  0.4080
 2857TIP3    H232767   6.807   5.936  18.896 -3.3150  1.6834 -1.9407
 2858TIP3   OH232768   0.497   6.361  17.250 -0.0069  0.2089  0.5160
 2858TIP3    H132769   0.485   6.452  17.223 -0.1013  0.0698  0.0766
 2858TIP3    H232770   0.410   6.323  17.245  0.4842 -0.7691 -2.5524
 2859TIP3   OH232771   1.134   5.935  15.812  0.0328 -0.2484  0.1311
 2859TIP3    H132772   1.205   5.931  15.748  0.3609  0.9351  0.4031
 2859TIP3    H232773   1.158   5.870  15.878  0.2241 -0.7366 -0.4138
 2860TIP3   OH232774   3.439   5.969  18.645 -0.2821 -0.0995  1.0001
 2860TIP3    H132775   3.442   6.063  18.660  0.5910  0.2628 -1.0623
 2860TIP3    H232776   3.348   5.944  18.662 -0.9971  1.4837 -0.2864
 2861TIP3   OH232777   2.363   0.923  16.998 -0.2876 -0.4755 -0.0822
 2861TIP3    H132778   2.454   0.945  16.979 -0.2485 -0.5537  0.0108
 2861TIP3    H232779   2.315   0.944  16.918 -0.4276  0.9435  0.3536
 2862TIP3   OH232780   6.357   1.648  17.050  0.1570 -0.1148 -0.1576
 2862TIP3    H132781   6.400   1.668  17.133  3.3961 -1.3211 -1.3813
 2862TIP3    H232782   6.396   1.709  16.987 -2.4832  1.0138 -0.8343
 2863TIP3   OH232783   5.026   7.217  17.285 -0.2115  0.2064  0.3131
 2863TIP3    H132784   4.945   7.212  17.235 -0.3631 -0.8954  0.6428
 2863TIP3    H232785   5.007   7.276  17.357 -1.5002 -1.8593  1.7460
 2864TIP3   OH232786   1.677   6.076  16.834 -0.3399  0.0134 -0.0211
 2864TIP3    H132787   1.679   6.067  16.929  1.8682  0.7270  0.0512
 2864TIP3    H232788   1.628   5.999  16.804  0.5991 -1.2785  1.5932
 2865TIP3   OH232789   6.717   1.847  19.225  0.0802  0.7667  0.3076
 2865TIP3    H132790   6.634   1.802  19.242  0.6022  0.6046  2.6473
 2865TIP3    H232791   6.694   1.915  19.161 -1.6231  0.0595  0.1005
 2866TIP3   OH232792   5.923   7.547  19.174 -0.2915 -0.2194  0.3088
 2866TIP3    H132793   5.917   7.451  19.175  2.6867 -0.5261 -0.6452
 2866TIP3    H232794   5.899   7.573  19.263 -2.1662 -1.6984  0.3152
 2867TIP3   OH232795   4.293   3.579  16.721 -0.0476  0.4480 -0.1880
 2867TIP3    H132796   4.389   3.580  16.714  0.0234 -2.7182 -1.1497
 2867TIP3    H232797   4.263   3.577  16.630 -0.9706  0.1856  0.1134
 2868TIP3   OH232798   3.992   7.649  17.813 -0.3004 -0.2989 -0.2948
 2868TIP3    H132799   4.068   7.618  17.862  0.3037 -0.6750 -1.4240
 2868TIP3    H232800   3.955   7.570  17.774 -0.8826 -0.0355 -0.2898
 2869TIP3   OH232801   0.044   1.512  18.400 -0.0936  0.5866  0.2199
 2869TIP3    H132802   0.026   1.596  18.357 -0.1957  0.8250  0.7198
 2869TIP3    H232803  -0.009   1.449  18.351  0.1362  0.7780 -0.2851
 2870TIP3   OH232804   1.841   0.712  17.984  0.1892  0.3760  0.0853
 2870TIP3    H132805   1.750   0.732  18.009  0.1530  0.0100  0.2440
 2870TIP3    H232806   1.862   0.632  18.031  1.3511  1.6197  1.8376
 2871TIP3   OH232807   2.556   0.061  18.342  0.1187  0.4270 -0.1128
 2871TIP3    H132808   2.470   0.018  18.336  0.4500 -0.1570 -0.9617
 2871TIP3    H232809   2.555   0.106  18.426 -0.2402 -1.3033  0.8644
 2872TIP3   OH232810   2.661   7.468  18.293 -0.3820 -0.3850 -0.1031
 2872TIP3    H132811   2.663   7.468  18.197  1.2880 -2.5177 -0.1325
 2872TIP3    H232812   2.670   7.560  18.317  1.3773  0.0155 -2.0009
 2873TIP3   OH232813   7.005   0.167  17.678 -0.2917  0.8291 -0.9129
 2873TIP3    H132814   6.914   0.154  17.651 -0.6295  1.7097 -0.2317
 2873TIP3    H232815   7.056   0.143  17.600 -0.8629 -3.0970 -0.2671
 2874TIP3   OH232816   4.167   2.845  19.175  0.0212  0.1696  0.0363
 2874TIP3    H132817   4.239   2.836  19.114 -0.1173 -0.2271 -0.0676
 2874TIP3    H232818   4.100   2.784  19.144 -0.2332  0.2993  0.3150
 2875TIP3   OH232819   2.334   6.666  18.631  0.2131 -0.3224 -0.1469
 2875TIP3    H132820   2.380   6.720  18.567 -0.7529 -0.9852 -1.4425
 2875TIP3    H232821   2.258   6.632  18.584 -0.6843 -0.6096  1.4405
 2876TIP3   OH232822   3.943   0.524  16.435  0.1822  0.0137  0.0112
 2876TIP3    H132823   4.032   0.495  16.416  1.6141  2.4730  2.3896
 2876TIP3    H232824   3.947   0.619  16.433 -1.8455  0.2478  2.3436
 2877TIP3   OH232825   3.756   1.092  16.921 -0.1358  0.9093  0.2435
 2877TIP3    H132826   3.791   1.004  16.905  1.3829  1.6133 -0.5553
 2877TIP3    H232827   3.703   1.082  17.000 -1.6518 -1.1308 -0.9427
 2878TIP3   OH232828   7.478   2.158  17.063  0.1630  0.1752  0.2593
 2878TIP3    H132829   7.424   2.207  17.001  0.7369  0.6050  0.0900
 2878TIP3    H232830   7.416   2.126  17.128 -0.5709 -1.0023 -0.9768
 2879TIP3   OH232831   2.304   2.867  17.749 -0.1081  0.7748  0.9507
 2879TIP3    H132832   2.354   2.789  17.775 -2.4156 -1.0613  0.2800
 2879TIP3    H232833   2.274   2.847  17.660  0.5300  3.1844  0.1069
 2880TIP3   OH232834   6.968   5.663  18.789  0.0861 -0.4815  0.1756
 2880TIP3    H132835   7.007   5.581  18.759  0.0319 -0.2529 -0.5396
 2880TIP3    H232836   6.899   5.635  18.850  1.3079 -0.8879  1.4241
 2881TIP3   OH232837   2.081   1.785  18.416  0.2071  0.2575 -0.4378
 2881TIP3    H132838   2.131   1.715  18.375  0.0582  0.5556 -1.1460
 2881TIP3    H232839   2.141   1.823  18.480  0.7365  0.3247 -0.9726
 2882TIP3   OH232840   1.417   6.626  18.663 -0.3547  0.2875  0.1391
 2882TIP3    H132841   1.480   6.662  18.601 -1.2483 -0.1252 -1.0611
 2882TIP3    H232842   1.427   6.679  18.742  0.8041  0.8453 -0.3660
 2883TIP3   OH232843   1.380   6.884  17.569  0.5667  0.3266  0.1916
 2883TIP3    H132844   1.404   6.925  17.652  1.3428  0.8888 -0.2898
 2883TIP3    H232845   1.426   6.800  17.568  2.5023  1.3375 -0.6641
 2884TIP3   OH232846   6.739   0.404  16.748 -0.7062  0.6766 -0.0761
 2884TIP3    H132847   6.822   0.451  16.755 -1.1689  1.6436 -0.7951
 2884TIP3    H232848   6.751   0.326  16.801  0.5485  0.9633  0.0956
 2885TIP3   OH232849   1.444   0.135  17.912 -0.0838  0.0533 -0.8075
 2885TIP3    H132850   1.500   0.202  17.871  1.2002  0.3148  1.2212
 2885TIP3    H232851   1.439   0.162  18.004 -1.8007 -1.1841 -0.4996
 2886TIP3   OH232852   4.103   0.812  18.238 -0.8868  0.2864 -0.0498
 2886TIP3    H132853   4.010   0.823  18.257 -0.4562  0.5323  2.2482
 2886TIP3    H232854   4.136   0.901  18.224 -0.8540  0.2793 -0.0193
 2887TIP3   OH232855   1.746   5.355  17.391  0.6195  0.0003 -0.5199
 2887TIP3    H132856   1.801   5.404  17.453  0.4710 -2.2796  1.5381
 2887TIP3    H232857   1.683   5.308  17.445 -1.6669  0.3679 -2.6479
 2888TIP3   OH232858   4.559   3.734  18.574  0.0544 -0.2492 -0.4411
 2888TIP3    H132859   4.599   3.812  18.611  2.1449 -0.1509 -2.6290
 2888TIP3    H232860   4.568   3.745  18.479  1.7949 -3.7096 -0.8548
 2889TIP3   OH232861   2.476   4.042  17.323 -0.2114 -0.2435 -0.2991
 2889TIP3    H132862   2.471   4.075  17.234 -1.1634 -0.5206 -0.3562
 2889TIP3    H232863   2.514   4.114  17.373 -0.0534  0.0607 -0.8464
 2890TIP3   OH232864   4.866   7.297  17.490  0.0269 -0.0666  0.3257
 2890TIP3    H132865   4.927   7.326  17.558  0.6275  0.8082 -0.5643
 2890TIP3    H232866   4.783   7.337  17.515 -0.7903 -2.8921  2.6768
 2891TIP3   OH232867   6.358   6.807  18.696  0.2150  0.2960  0.5810
 2891TIP3    H132868   6.426   6.756  18.651  2.7234  3.3987  0.4972
 2891TIP3    H232869   6.311   6.851  18.625 -0.5537 -0.2433  0.7468
 2892TIP3   OH232870   7.532   6.567  17.382 -0.3252  0.4478 -0.1933
 2892TIP3    H132871   7.590   6.585  17.457 -1.0776  1.1504  0.2313
 2892TIP3    H232872   7.492   6.483  17.404  1.3276 -0.6110 -1.0120
 2893TIP3   OH232873   6.767   4.412  18.703  0.0102 -0.3050  0.4774
 2893TIP3    H132874   6.843   4.388  18.755 -1.1144 -1.4806  1.6487
 2893TIP3    H232875   6.804   4.449  18.622  1.7872  0.9139  1.7737
 2894TIP3   OH232876   1.897   5.044  18.173 -0.3630  0.8293 -0.4481
 2894TIP3    H132877   1.983   5.004  18.186 -0.3616  1.3138  1.2672
 2894TIP3    H232878   1.916   5.137  18.164 -0.7941  1.2437  2.1080
 2895TIP3   OH232879   4.867   4.628  18.289  0.5977  0.2548 -0.1116
 2895TIP3    H132880   4.923   4.578  18.349  0.9008  0.5110 -0.1819
 2895TIP3    H232881   4.894   4.600  18.202  1.3377  1.1436 -0.1793
 2896TIP3   OH232882   0.441   3.008  16.820 -0.1652 -0.6506  0.1177
 2896TIP3    H132883   0.394   2.953  16.757 -0.3779  0.5800 -0.8566
 2896TIP3    H232884   0.533   2.983  16.810 -0.2651 -0.8580 -0.2892
 2897TIP3   OH232885   0.797   7.220  16.995 -0.3746 -0.2334  0.1163
 2897TIP3    H132886   0.865   7.185  16.938 -0.4017  0.5240 -0.3949
 2897TIP3    H232887   0.717   7.218  16.943 -0.2830  1.0158 -0.1054
 2898TIP3   OH232888   0.257   0.083  17.102 -0.1006 -0.1188 -0.4841
 2898TIP3    H132889   0.168   0.104  17.131  0.3189  2.2033 -0.6540
 2898TIP3    H232890   0.265   0.127  17.018  0.8409 -1.3121 -1.0309
 2899TIP3   OH232891   7.106   3.689  16.965 -0.3719  0.1871 -0.3324
 2899TIP3    H132892   7.142   3.604  16.989  1.4090  1.1095  0.4727
 2899TIP3    H232893   7.164   3.721  16.896 -1.3064  0.5716 -0.9647
 2900TIP3   OH232894   0.315   2.593  17.867 -0.2056  0.2465 -0.3769
 2900TIP3    H132895   0.407   2.568  17.860 -0.4476 -1.2948  1.3249
 2900TIP3    H232896   0.266   2.516  17.838 -0.9386  0.0088  1.3378
 2901TIP3   OH232897   2.424   2.529  19.272 -0.4036 -0.2432  0.6380
 2901TIP3    H132898   2.461   2.588  19.337 -0.9130 -0.0505  0.7550
 2901TIP3    H232899   2.481   2.452  19.275  0.2079  0.1994  0.5481
 2902TIP3   OH232900   4.314   2.656  16.729  0.0724 -0.5381  0.2270
 2902TIP3    H132901   4.281   2.611  16.652 -1.5592 -0.6569  0.9424
 2902TIP3    H232902   4.392   2.702  16.699  0.9135 -2.5872 -0.8710
 2903TIP3   OH232903   3.367   3.824  18.144 -0.3673 -0.3372  0.2914
 2903TIP3    H132904   3.402   3.912  18.151 -0.2639 -0.3540  0.0110
 2903TIP3    H232905   3.288   3.825  18.197 -0.2049 -0.1605  0.5307
 2904TIP3   OH232906   1.575   6.465  16.389 -0.3767 -0.3865  0.2412
 2904TIP3    H132907   1.509   6.485  16.323 -0.1395  0.2422  0.1833
 2904TIP3    H232908   1.637   6.538  16.384  0.2325 -0.8766  0.4108
 2905TIP3   OH232909   5.444   6.025  19.030 -0.1911 -0.0737  0.0602
 2905TIP3    H132910   5.428   5.931  19.039  1.1933 -0.5042 -1.5239
 2905TIP3    H232911   5.539   6.033  19.021 -0.3675  1.3803 -0.8668
 2906TIP3   OH232912   2.674   5.568  19.280  0.7496 -0.2660  0.4315
 2906TIP3    H132913   2.761   5.563  19.239  0.4584 -3.2202 -0.0576
 2906TIP3    H232914   2.617   5.601  19.211  1.3392  1.1187  0.5726
 2907TIP3   OH232915   0.804   0.164  17.585 -0.5401  0.5208 -0.6779
 2907TIP3    H132916   0.837   0.094  17.529  3.1159  1.5802 -0.1131
 2907TIP3    H232917   0.799   0.240  17.528  0.0174  0.8381 -0.3153
 2908TIP3   OH232918   2.888   4.857  18.917  0.5074  0.4897  0.3757
 2908TIP3    H132919   2.834   4.897  18.849 -0.3982 -0.4335  0.5280
 2908TIP3    H232920   2.931   4.931  18.960 -0.9616  1.2915  0.5247
 2909TIP3   OH232921   2.565   0.570  17.490  0.1779 -0.4598  1.1080
 2909TIP3    H132922   2.598   0.491  17.447  1.6018 -0.6273  2.3923
 2909TIP3    H232923   2.611   0.642  17.447 -1.9100 -0.1445 -0.8034
 2910TIP3   OH232924   3.685   5.544  18.765  0.4369 -0.3007  0.4486
 2910TIP3    H132925   3.666   5.452  18.780 -0.1758 -0.3492 -0.5709
 2910TIP3    H232926   3.754   5.544  18.699 -0.5331 -0.0217 -0.5899
 2911TIP3   OH232927   5.376   7.009  19.193  0.0674  0.6934 -0.0053
 2911TIP3    H132928   5.324   7.038  19.118 -0.5951  0.6502  0.4202
 2911TIP3    H232929   5.375   6.913  19.186 -0.4201  0.6682  0.3234
 2912TIP3   OH232930   5.597   2.018  16.815 -0.3398 -0.3157 -0.3658
 2912TIP3    H132931   5.635   2.049  16.733 -0.0865 -0.6188 -0.3675
 2912TIP3    H232932   5.509   2.053  16.816 -0.5267 -0.7443 -1.0285
 2913TIP3   OH232933   2.148   1.328  17.735 -0.2203  0.2652 -0.7273
 2913TIP3    H132934   2.103   1.412  17.723  0.6293  1.3540  2.6600
 2913TIP3    H232935   2.084   1.271  17.777  0.1375  0.2949 -0.1244
 2914TIP3   OH232936   1.176   3.534  19.239  0.0923 -0.3043  0.5123
 2914TIP3    H132937   1.127   3.505  19.162  0.8602 -0.4280  0.0617
 2914TIP3    H232938   1.268   3.527  19.213  0.3985 -1.1466  1.7104
 2915TIP3   OH232939   3.110   6.230  16.689  0.1481 -0.5717 -0.7482
 2915TIP3    H132940   3.135   6.152  16.639 -0.9704 -1.3622 -0.1257
 2915TIP3    H232941   3.066   6.286  16.626 -0.3846 -1.1301 -0.8850
 2916TIP3   OH232942   6.600   5.085  16.640 -0.2259  0.1997  0.9372
 2916TIP3    H132943   6.581   5.167  16.593 -1.8660 -0.7320 -0.1210
 2916TIP3    H232944   6.539   5.022  16.604  1.3323 -1.6604  1.3848
 2917TIP3   OH232945   1.909   2.623  17.121  0.4102  0.3860 -0.1528
 2917TIP3    H132946   1.970   2.676  17.069  1.2271 -0.2659  0.1125
 2917TIP3    H232947   1.965   2.561  17.167 -0.5085 -0.6140 -0.3432
 2918TIP3   OH232948   4.025   3.118  18.078  0.0463  0.1490  0.2547
 2918TIP3    H132949   3.979   3.075  18.006 -0.5319 -0.8646  1.1982
 2918TIP3    H232950   3.957   3.166  18.125  0.0747 -0.6670  1.1624
 2919TIP3   OH232951   1.721   6.135  18.947  0.2027 -0.3920 -0.3341
 2919TIP3    H132952   1.694   6.200  18.881  0.2250 -0.1558 -0.1089
 2919TIP3    H232953   1.686   6.169  19.029  3.1178  1.1157  0.3817
 2920TIP3   OH232954   2.459   5.844  18.826  0.3552  0.4938 -0.2512
 2920TIP3    H132955   2.472   5.934  18.856  0.1807  0.4365  0.0025
 2920TIP3    H232956   2.516   5.836  18.750 -0.3438  1.1159 -0.8531
 2921TIP3   OH232957   5.547   1.578  18.187 -0.4257 -0.1345 -0.1831
 2921TIP3    H132958   5.454   1.580  18.210 -0.2791  0.3721  0.3983
 2921TIP3    H232959   5.561   1.657  18.136 -0.0667  0.4255  0.7583
 2922TIP3   OH232960   7.184   3.758  19.020 -0.3212  0.1619 -0.5768
 2922TIP3    H132961   7.237   3.834  18.998 -1.2633  0.6780 -1.1230
 2922TIP3    H232962   7.230   3.717  19.093  0.7054  0.7112 -0.8860
 2923TIP3   OH232963   2.841   6.881  17.866  0.3310 -0.0795 -0.2128
 2923TIP3    H132964   2.797   6.922  17.940  1.3057  1.7534 -0.5827
 2923TIP3    H232965   2.908   6.825  17.906  1.0755  1.1568  0.3177
 2924TIP3   OH232966   6.158   5.124  19.066  0.6300 -0.2439 -0.2328
 2924TIP3    H132967   6.195   5.161  19.146  0.5482 -2.6688  1.0032
 2924TIP3    H232968   6.234   5.095  19.015  0.6238 -0.7999  0.0628
 2925TIP3   OH232969   3.642   6.490  17.312  0.6283  0.2874 -0.1944
 2925TIP3    H132970   3.652   6.577  17.272 -0.0877  1.3726  1.8240
 2925TIP3    H232971   3.602   6.508  17.397  0.0807 -2.0851  0.1090
 2926TIP3   OH232972   4.673   6.825  18.379  0.3605  0.1158  0.3940
 2926TIP3    H132973   4.720   6.831  18.296  0.8569 -0.0741  0.6563
 2926TIP3    H232974   4.600   6.886  18.371  0.5904  0.3281 -0.0599
 2927TIP3   OH232975   7.238   0.213  18.566  0.0628  0.2283 -0.1391
 2927TIP3    H132976   7.226   0.177  18.478 -0.1416 -0.2294  0.0681
 2927TIP3    H232977   7.208   0.142  18.624 -0.7318  0.8844  0.2740
 2928TIP3   OH232978   2.914   3.831  17.911 -0.6175 -0.4783 -0.3603
 2928TIP3    H132979   2.845   3.879  17.865 -0.1672  0.3441 -0.2133
 2928TIP3    H232980   2.962   3.785  17.841 -0.4424  0.1038 -0.6325
 2929TIP3   OH232981   4.458   0.992  19.176 -0.5362 -0.2177 -0.2095
 2929TIP3    H132982   4.453   1.086  19.193  0.9781 -0.1867  0.2850
 2929TIP3    H232983   4.459   0.984  19.081 -1.8294  0.1639 -0.2669
 2930TIP3   OH232984   4.713   5.808  17.785  0.0522  0.0275 -0.5238
 2930TIP3    H132985   4.712   5.897  17.820  0.0126  0.0498 -0.5796
 2930TIP3    H232986   4.633   5.768  17.817  0.7195 -0.4321  0.6282
 2931TIP3   OH232987   4.828   0.442  19.262  0.2310 -0.7483  0.8911
 2931TIP3    H132988   4.783   0.428  19.345  0.4441 -0.0855  1.1186
 2931TIP3    H232989   4.803   0.530  19.235  2.9973  0.4992  2.0499
 2932TIP3   OH232990   7.264   3.058  18.599 -0.1220  0.0731  0.1739
 2932TIP3    H132991   7.252   2.993  18.531 -3.1719 -1.0233  1.5776
 2932TIP3    H232992   7.259   3.142  18.553  4.2283 -0.4671 -1.7165
 2933TIP3   OH232993   5.629   1.401  18.399 -0.1526  0.0924  0.2547
 2933TIP3    H132994   5.607   1.443  18.316 -0.1575  0.4990  0.4604
 2933TIP3    H232995   5.611   1.467  18.466 -1.4962 -0.6792  0.7064
 2934TIP3   OH232996   3.528   6.890  17.910  0.7871 -0.5904 -0.5416
 2934TIP3    H132997   3.493   6.885  17.999  1.8504 -1.2416 -0.1388
 2934TIP3    H232998   3.484   6.964  17.870 -0.5041 -0.9510  0.1745
 2935TIP3   OH232999   4.501   3.171  16.788  0.2038 -0.1510  0.2737
 2935TIP3    H133000   4.590   3.199  16.808 -0.2629  0.1185  2.2326
 2935TIP3    H233001   4.478   3.112  16.860 -2.1538  2.0052  1.4610
 2936TIP3   OH233002   1.356   4.309  18.363 -0.7057 -0.1487  0.3008
 2936TIP3    H133003   1.376   4.374  18.295 -1.7172  1.0407  1.0870
 2936TIP3    H233004   1.311   4.359  18.431 -1.5176 -1.6972  0.9480
 2937TIP3   OH233005   6.468   2.107  18.605  0.3876  0.8999 -0.0250
 2937TIP3    H133006   6.518   2.091  18.686 -0.1930 -0.2214  0.1373
 2937TIP3    H233007   6.508   2.049  18.541 -0.6557  0.0194  0.0979
 2938TIP3   OH233008   6.062   7.665  18.846  0.1787 -0.0569 -0.3196
 2938TIP3    H133009   6.024   7.667  18.758  0.0329  0.4752 -0.2474
 2938TIP3    H233010   6.039   7.578  18.880 -0.0750 -0.1310 -0.6711
 2939TIP3   OH233011   7.580   4.543  17.806  0.3494 -0.0013  0.4737
 2939TIP3    H133012   7.591   4.448  17.794  0.7756 -0.3574  3.0961
 2939TIP3    H233013   7.488   4.559  17.785  0.3569 -0.8970 -0.3787
 2940TIP3   OH233014   3.397   3.923  17.134 -1.1192  0.3611  0.5888
 2940TIP3    H133015   3.467   3.985  17.155  0.0748 -1.2347  1.4902
 2940TIP3    H233016   3.406   3.909  17.040  2.1378 -2.4114  1.1264
 2941TIP3   OH233017   6.482   1.696  18.638 -0.5358  0.4793 -0.5993
 2941TIP3    H133018   6.554   1.736  18.687 -0.5860  0.5650 -0.5938
 2941TIP3    H233019   6.417   1.673  18.705 -0.5223  0.4224 -0.6056
 2942TIP3   OH233020   5.148   3.338  19.311  0.5563  0.7262  0.4112
 2942TIP3    H133021   5.060   3.370  19.333  0.5416  1.3148 -0.4259
 2942TIP3    H233022   5.151   3.249  19.345 -0.7586  0.3128 -0.4885
 2943TIP3   OH233023   1.309   3.381  17.946 -0.1169  0.9101  0.1448
 2943TIP3    H133024   1.368   3.336  17.885  0.5283  0.3345  1.1562
 2943TIP3    H233025   1.224   3.337  17.935  0.2111  0.2263  0.2588
 2944TIP3   OH233026   0.506   6.944  17.373 -0.2569 -0.4991  0.1317
 2944TIP3    H133027   0.535   6.971  17.461  0.4844 -2.2936  0.4890
 2944TIP3    H233028   0.445   6.872  17.390 -1.1739  0.0477 -0.8000
 2945TIP3   OH233029   6.307   3.355  16.814  0.1166 -0.2433  0.7201
 2945TIP3    H133030   6.383   3.414  16.817  0.2216 -0.4008  1.5573
 2945TIP3    H233031   6.345   3.267  16.810  0.0111 -0.3674  1.9779
 2946TIP3   OH233032   5.220   5.673  18.062  0.0106 -0.3065  0.1949
 2946TIP3    H133033   5.186   5.636  18.143  0.5126 -0.3898  0.3728
 2946TIP3    H233034   5.144   5.680  18.005 -0.1088 -1.4851  0.2014
 2947TIP3   OH233035   2.592   3.415  18.935 -0.1381  0.2714  0.2912
 2947TIP3    H133036   2.629   3.365  19.008  0.6291 -0.0338 -0.2907
 2947TIP3    H233037   2.578   3.503  18.971 -0.6630 -0.1218  1.0699
 2948TIP3   OH233038   2.319   5.561  18.173 -0.1953  0.0488  0.3481
 2948TIP3    H133039   2.361   5.546  18.258  0.3977  0.9920  0.2361
 2948TIP3    H233040   2.228   5.534  18.186  0.4334 -2.1331  0.5688
 2949TIP3   OH233041   2.343   6.086  17.810  0.0804  0.5579  0.0796
 2949TIP3    H133042   2.403   6.156  17.784  0.9706  0.1666  1.0010
 2949TIP3    H233043   2.353   6.020  17.742  0.3408  0.6992 -0.0232
 2950TIP3   OH233044   4.866   3.445  18.708  0.3443 -0.4611  0.0659
 2950TIP3    H133045   4.929   3.481  18.771 -0.1586  1.2138 -0.3374
 2950TIP3    H233046   4.836   3.363  18.748  1.4349 -0.3885  1.0943
 2951TIP3   OH233047   2.105   0.131  18.238  0.5209  0.4416 -0.0433
 2951TIP3    H133048   2.014   0.125  18.267 -0.0736  0.8319 -1.7449
 2951TIP3    H233049   2.101   0.116  18.144  2.0793  1.6392 -0.3291
 2952TIP3   OH233050   0.959   6.520  18.789  0.3032 -0.3739 -0.2130
 2952TIP3    H133051   0.937   6.520  18.882 -0.9776  0.6179 -0.4964
 2952TIP3    H233052   1.023   6.591  18.779 -0.4392  0.3028 -0.2657
 2953TIP3   OH233053   6.969   2.106  17.133 -0.1318 -0.0097 -0.2976
 2953TIP3    H133054   7.054   2.061  17.136  0.2966  0.6210 -1.7783
 2953TIP3    H233055   6.917   2.054  17.073 -1.0698 -0.7726  1.1185
 2954TIP3   OH233056   4.282   3.001  18.051  0.2099 -0.5301  0.0866
 2954TIP3    H133057   4.253   2.910  18.041 -0.4659 -0.3889  0.6130
 2954TIP3    H233058   4.204   3.047  18.085  0.2685  0.4251 -0.9861
 2955TIP3   OH233059   2.544   3.509  19.334 -0.3460  0.0643 -0.2892
 2955TIP3    H133060   2.471   3.571  19.341 -0.9214 -0.4459 -1.4022
 2955TIP3    H233061   2.501   3.426  19.311  0.6192 -0.1398 -1.4284
 2956TIP3   OH233062   6.387   1.228  17.090  0.4194 -0.3461 -0.0006
 2956TIP3    H133063   6.358   1.270  17.172  0.3133  1.0870 -0.7404
 2956TIP3    H233064   6.346   1.280  17.021  0.2694 -1.7209 -0.9741
 2957TIP3   OH233065   6.868   3.716  18.969 -0.4578  0.2001 -0.0217
 2957TIP3    H133066   6.963   3.728  18.972 -0.4916  0.5974 -0.4265
 2957TIP3    H233067   6.852   3.678  18.883 -0.7089  0.4991 -0.1047
 2958TIP3   OH233068   0.486   5.331  18.162  0.0767  0.5641 -0.1891
 2958TIP3    H133069   0.547   5.260  18.182  1.0410  1.2400 -0.6749
 2958TIP3    H233070   0.512   5.402  18.221 -0.8718  0.5318  0.2857
 2959TIP3   OH233071   0.724   6.823  18.937  0.0710  0.0274 -0.4777
 2959TIP3    H133072   0.776   6.825  19.017  0.6490  1.4245 -0.8573
 2959TIP3    H233073   0.690   6.733  18.933  0.0374 -0.0865  1.3037
 2960TIP3   OH233074   1.146   7.320  17.015 -0.4094 -0.5189 -0.1601
 2960TIP3    H133075   1.214   7.375  16.976 -0.7843 -0.0699 -0.1916
 2960TIP3    H233076   1.066   7.343  16.968 -1.3470  1.6267  2.2275
 2961TIP3   OH233077   2.195   7.481  18.146 -0.2206 -0.1887 -0.5599
 2961TIP3    H133078   2.173   7.556  18.090  0.8846  0.9389  0.4791
 2961TIP3    H233079   2.110   7.451  18.179 -0.5925  3.4046  2.5257
 2962TIP3   OH233080   1.435   0.302  17.628  0.1764  0.1242 -0.0382
 2962TIP3    H133081   1.524   0.269  17.641 -0.2037 -1.6778 -1.6016
 2962TIP3    H233082   1.439   0.350  17.545 -0.8846 -2.6257 -1.8151
 2963TIP3   OH233083   1.453   3.341  16.752 -0.1297  0.3315  0.0468
 2963TIP3    H133084   1.390   3.290  16.702  0.8591 -0.3732 -0.5104
 2963TIP3    H233085   1.410   3.426  16.766 -0.1896  0.8196 -2.5803
 2964TIP3   OH233086   4.337   0.426  18.747  0.4220  0.5700 -0.1062
 2964TIP3    H133087   4.409   0.467  18.794 -1.1465 -0.1761  3.2662
 2964TIP3    H233088   4.273   0.496  18.735  0.2695  0.4745  0.1291
 2965TIP3   OH233089   1.855   4.806  17.455 -0.4852  0.2681 -0.0735
 2965TIP3    H133090   1.834   4.732  17.512 -0.7082  0.5706  0.2415
 2965TIP3    H233091   1.944   4.788  17.424  0.0905  0.6757  1.2784
 2966TIP3   OH233092   1.187   0.376  18.444 -0.1870  0.2882  0.0377
 2966TIP3    H133093   1.135   0.389  18.365 -0.4794 -0.2142  0.1397
 2966TIP3    H233094   1.265   0.428  18.431 -0.9012  1.3871  0.0541
 2967TIP3   OH233095   4.446   2.639  16.982  0.0301 -0.1058  0.3313
 2967TIP3    H133096   4.375   2.638  16.918 -0.4877 -0.8728  0.8934
 2967TIP3    H233097   4.511   2.699  16.946  0.1350 -1.1579 -1.3154
 2968TIP3   OH233098   2.737   5.956  17.210 -0.2737  0.0333 -0.7560
 2968TIP3    H133099   2.770   6.026  17.267  0.0979 -0.4414 -0.3707
 2968TIP3    H233100   2.811   5.934  17.154 -0.1198 -0.6013 -0.3200
 2969TIP3   OH233101   0.244   6.057  17.392 -0.2849  0.2879 -0.1076
 2969TIP3    H133102   0.153   6.083  17.376  0.4033  2.3230 -1.1487
 2969TIP3    H233103   0.255   5.977  17.341 -1.8396 -0.8227  1.1825
 2970TIP3   OH233104   1.665   5.370  17.127  0.2281  0.1576  0.4318
 2970TIP3    H133105   1.637   5.461  17.121 -0.8656 -0.1310  0.8267
 2970TIP3    H233106   1.690   5.359  17.219  1.9377  0.4731  0.0345
 2971TIP3   OH233107   3.977   4.249  16.654 -0.8500 -0.6742 -0.4289
 2971TIP3    H133108   4.059   4.222  16.614 -1.0305 -0.5096 -0.9136
 2971TIP3    H233109   3.997   4.333  16.697 -0.3037 -1.5066  1.0271
 2972TIP3   OH233110   3.922   6.792  18.467 -0.0359 -0.0025  0.3915
 2972TIP3    H133111   4.009   6.829  18.448 -0.0707 -0.1742 -0.1350
 2972TIP3    H233112   3.879   6.857  18.522  1.3418 -1.0211  2.8286
 2973TIP3   OH233113   0.394   7.197  18.156 -0.0585  0.0337 -0.4534
 2973TIP3    H133114   0.396   7.184  18.061 -0.7372 -0.4164 -0.4106
 2973TIP3    H233115   0.480   7.166  18.185 -0.0259 -0.2869 -0.8733
 2974TIP3   OH233116   2.139   4.464  16.998  0.4669  0.0862  0.2737
 2974TIP3    H133117   2.053   4.498  16.976  1.8301  2.6383 -1.6142
 2974TIP3    H233118   2.181   4.446  16.914  2.1333 -0.1335  1.0974
 2975TIP3   OH233119   3.499   2.356  17.732 -0.7572  0.5284 -0.4517
 2975TIP3    H133120   3.529   2.445  17.749  1.1390 -0.0559 -0.5409
 2975TIP3    H233121   3.409   2.367  17.700  0.1308  2.6005 -2.5562
 2976TIP3   OH233122   2.751   0.007  17.271  0.4370 -0.0856  0.1988
 2976TIP3    H133123   2.774   0.088  17.315  0.1931 -0.3347  0.7941
 2976TIP3    H233124   2.664   0.024  17.233  1.3070  0.6669 -1.5775
 2977TIP3   OH233125   3.886   3.620  19.205 -0.8058 -0.0739  0.1707
 2977TIP3    H133126   3.962   3.677  19.214 -1.0120 -0.0614  2.5859
 2977TIP3    H233127   3.914   3.551  19.145  0.3849  1.0374 -0.6002
 2978TIP3   OH233128   3.979   3.396  19.378  0.0289 -0.1974  0.0218
 2978TIP3    H133129   3.962   3.308  19.344  2.0203 -0.9065  0.7275
 2978TIP3    H233130   3.937   3.454  19.314  0.6578 -1.5925 -1.7498
 2979TIP3   OH233131   6.108   0.868  18.433 -0.2158 -0.3853  0.5388
 2979TIP3    H133132   6.150   0.782  18.432 -1.0267 -0.8277  1.7400
 2979TIP3    H233133   6.161   0.921  18.493 -0.9639 -0.7660  1.5881
 2980TIP3   OH233134   3.413   1.600  17.519  0.3895 -0.1395 -0.3638
 2980TIP3    H133135   3.341   1.643  17.565  1.7744  1.3325  0.5252
 2980TIP3    H233136   3.442   1.663  17.453  0.4817 -0.9592 -1.1317
 2981TIP3   OH233137   3.946   6.365  17.382  0.1155  0.2016 -0.6984
 2981TIP3    H133138   3.857   6.332  17.371  0.1997  0.0591 -0.9604
 2981TIP3    H233139   3.936   6.449  17.428 -0.1744  0.3591 -1.0539
 2982TIP3   OH233140   0.872   6.706  17.479  0.3652  0.1238  0.2579
 2982TIP3    H133141   0.817   6.785  17.483  0.3241  0.2203 -1.4891
 2982TIP3    H233142   0.959   6.739  17.460  0.7837 -0.1325  1.6403
 2983TIP3   OH233143   6.822   3.960  18.367 -0.6842 -0.6033  0.0783
 2983TIP3    H133144   6.769   3.917  18.434 -0.7934  0.1898  0.5186
 2983TIP3    H233145   6.777   4.043  18.352 -0.7195 -0.8202 -1.0654
 2984TIP3   OH233146   5.356   6.001  17.762  0.5784  0.7798  0.0463
 2984TIP3    H133147   5.394   5.914  17.757  0.5693  0.7668  0.2162
 2984TIP3    H233148   5.287   5.995  17.828  0.1450  0.7523 -0.3939
 2985TIP3   OH233149   5.700   6.805  19.624 -0.6302  0.2162  0.0819
 2985TIP3    H133150   5.677   6.721  19.662  2.4117 -0.6330  0.3048
 2985TIP3    H233151   5.638   6.816  19.552 -1.4225 -1.9648  0.3513
 2986TIP3   OH233152   0.320   4.047  17.278 -0.3829  0.7361 -0.2150
 2986TIP3    H133153   0.330   3.954  17.299 -0.2438  1.1509  1.7121
 2986TIP3    H233154   0.324   4.091  17.362 -0.2191  2.5285 -1.1186
 2987TIP3   OH233155   6.644   1.315  16.947  0.3400  0.2496  0.1635
 2987TIP3    H133156   6.642   1.386  17.011 -0.5690 -0.2591  0.7217
 2987TIP3    H233157   6.569   1.334  16.889 -0.4599 -0.7219  0.8510
 2988TIP3   OH233158   5.565   4.894  18.680  0.3568 -0.2351  0.2514
 2988TIP3    H133159   5.551   4.891  18.585 -1.6001 -1.0554  0.5226
 2988TIP3    H233160   5.551   4.804  18.709 -1.1503  0.3734  1.5493
 2989TIP3   OH233161   1.867   6.006  17.660 -0.2221 -0.1315 -0.3579
 2989TIP3    H133162   1.932   5.941  17.634 -0.5980 -0.6928  0.0621
 2989TIP3    H233163   1.917   6.072  17.708  0.1866 -0.0227 -0.9155
 2990TIP3   OH233164   1.100   4.296  17.789 -0.2540 -0.0438  0.2251
 2990TIP3    H133165   1.090   4.236  17.862  1.1844  0.2904  0.7282
 2990TIP3    H233166   1.180   4.267  17.745  0.5950  1.5921  0.6057
 2991TIP3   OH233167   2.701   6.347  16.620 -0.4765  0.5387  0.0480
 2991TIP3    H133168   2.778   6.403  16.620  0.8600 -1.2253 -0.1480
 2991TIP3    H233169   2.628   6.407  16.636  0.8862  2.2894 -0.0081
 2992TIP3   OH233170   4.734   3.734  17.546  0.2375  1.3143 -0.5255
 2992TIP3    H133171   4.786   3.814  17.548  1.6621  0.4219 -0.4519
 2992TIP3    H233172   4.780   3.674  17.604 -0.5429  0.2821 -0.9417
 2993TIP3   OH233173   2.064   5.362  16.862 -0.3419  0.0382  0.0969
 2993TIP3    H133174   2.032   5.296  16.801 -0.4598  1.5368 -1.5150
 2993TIP3    H233175   2.003   5.357  16.936 -1.1532 -0.7155 -0.5995
 2994TIP3   OH233176   4.545   2.942  18.767 -0.3026  0.9774  0.0267
 2994TIP3    H133177   4.590   2.896  18.696 -1.6276 -1.3816  0.6027
 2994TIP3    H233178   4.615   2.986  18.815  1.1022 -0.4715 -0.5856
 2995TIP3   OH233179   2.564   1.541  17.910 -0.5264 -0.4254 -0.0939
 2995TIP3    H133180   2.579   1.617  17.966 -1.8296 -0.2770  0.0829
 2995TIP3    H233181   2.531   1.578  17.828 -1.0594 -0.7805 -0.0454
 2996TIP3   OH233182   2.672   5.220  17.557  1.2933 -0.5948  0.6039
 2996TIP3    H133183   2.588   5.259  17.580  0.5186 -0.4972 -2.0665
 2996TIP3    H233184   2.702   5.178  17.638 -0.8604  0.1346  1.8662
 2997TIP3   OH233185   6.281   6.405  18.695 -0.0514 -0.3241  0.4502
 2997TIP3    H133186   6.376   6.394  18.692 -0.1859 -1.5054 -0.3393
 2997TIP3    H233187   6.249   6.329  18.743 -0.7040 -0.8453 -0.7607
 2998TIP3   OH233188   7.427   3.765  18.267 -0.1673  0.1988 -0.0782
 2998TIP3    H133189   7.482   3.837  18.298  1.0538 -0.6316 -0.2754
 2998TIP3    H233190   7.339   3.787  18.298  0.1548  1.8416 -0.2530
 2999TIP3   OH233191   6.392   6.905  18.244  0.6016 -0.3825 -0.2819
 2999TIP3    H133192   6.440   6.906  18.161  1.1331  2.4623 -0.0571
 2999TIP3    H233193   6.445   6.960  18.302 -0.4339 -1.2395  1.5422
 3000TIP3   OH233194   1.369   1.787  17.678 -0.2624 -0.3065  0.4207
 3000TIP3    H133195   1.320   1.705  17.690  0.9486 -1.0505  0.4912
 3000TIP3    H233196   1.363   1.803  17.583 -1.0676 -0.1004  0.4985
 3001TIP3   OH233197   5.434   6.462  17.818  0.1186  0.6533 -0.4397
 3001TIP3    H133198   5.481   6.437  17.898  0.6471  0.8793 -0.6718
 3001TIP3    H233199   5.494   6.521  17.772  0.7947 -1.1932 -2.0966
 3002TIP3   OH233200   7.414   4.888  17.630 -0.3948  0.4832 -0.0659
 3002TIP3    H133201   7.477   4.882  17.701 -3.2743  0.0088  2.6439
 3002TIP3    H233202   7.409   4.799  17.595  0.7754  0.6460 -0.7106
 3003TIP3   OH233203   5.236   0.779  18.343  0.2118 -0.2798  0.8673
 3003TIP3    H133204   5.280   0.701  18.309 -1.1981 -1.3120  1.3126
 3003TIP3    H233205   5.282   0.799  18.425  2.5603  1.2526 -0.6665
 3004TIP3   OH233206   5.090   4.498  18.384  0.4784 -0.2001  0.0070
 3004TIP3    H133207   5.082   4.451  18.467  0.9921  0.6107  0.5454
 3004TIP3    H233208   5.161   4.561  18.400  0.5653 -0.0150 -1.0445
 3005TIP3   OH233209   3.240   0.449  18.486 -0.1790  0.2182  0.4864
 3005TIP3    H133210   3.217   0.360  18.460  2.2229 -1.1486  2.6295
 3005TIP3    H233211   3.171   0.503  18.447 -2.6348 -2.6805  0.4120
 3006TIP3   OH233212   0.959   7.257  18.767 -0.2362  0.1047 -0.1931
 3006TIP3    H133213   0.883   7.200  18.768  0.4303 -0.8197 -0.7074
 3006TIP3    H233214   0.936   7.328  18.827 -1.4880 -0.1556 -0.3336
 3007TIP3   OH233215   4.542   4.356  19.183 -0.1086  0.7214 -0.7334
 3007TIP3    H133216   4.629   4.390  19.162  0.4957 -0.0215  0.4412
 3007TIP3    H233217   4.496   4.351  19.099  1.0197  1.0149 -1.3788
 3008TIP3   OH233218   0.523   4.851  17.750  0.1007  0.1364 -0.5687
 3008TIP3    H133219   0.536   4.930  17.698 -1.2338  0.5095 -0.3697
 3008TIP3    H233220   0.570   4.867  17.832 -1.7269  1.5486  0.2522
 3009TIP3   OH233221   6.919   2.990  17.391  0.2608 -0.4891  0.3898
 3009TIP3    H133222   6.875   2.986  17.306  0.0561 -1.2300  0.5208
 3009TIP3    H233223   6.864   3.048  17.444  0.1442 -0.3854  0.1569
 3010TIP3   OH233224   6.981   1.794  18.603  0.8008  0.0592 -0.0967
 3010TIP3    H133225   6.981   1.805  18.699 -1.1846 -0.2144 -0.0149
 3010TIP3    H233226   7.061   1.837  18.574  1.2982  0.4187  1.6605
 3011TIP3   OH233227   6.562   4.888  18.972  0.1750  0.2131 -0.6264
 3011TIP3    H133228   6.638   4.902  19.029 -0.8259  1.2922  0.5251
 3011TIP3    H233229   6.599   4.874  18.885  1.6971  0.6078 -0.0759
 3012TIP3   OH233230   4.674   4.334  18.740 -0.1686 -0.2889 -0.2109
 3012TIP3    H133231   4.662   4.358  18.648  0.4302  2.3217  0.2946
 3012TIP3    H233232   4.767   4.311  18.746 -0.1897 -0.3842 -0.2537
 3013TIP3   OH233233   6.087   5.655  17.949 -0.0884 -0.1198  0.1424
 3013TIP3    H133234   6.036   5.696  17.880  0.5818 -1.0851 -0.9665
 3013TIP3    H233235   6.156   5.607  17.903  1.0189  0.0615  1.5300
 3014TIP3   OH233236   3.913   2.045  18.496  0.2736 -0.1813 -0.3262
 3014TIP3    H133237   3.900   2.134  18.465 -1.6190  0.5337  2.1427
 3014TIP3    H233238   4.004   2.042  18.525 -0.3531  2.0016  2.2753
 3015TIP3   OH233239   0.849   0.012  18.737  0.4549 -0.5289 -1.3096
 3015TIP3    H133240   0.943   0.008  18.753  0.2260 -1.3243  0.0942
 3015TIP3    H233241   0.840   0.051  18.651  2.0037  1.4219 -0.6633
 3016TIP3   OH233242   1.713   5.743  17.940  0.5191  0.2034 -0.0439
 3016TIP3    H133243   1.639   5.729  17.881  0.8880 -0.6022 -0.3256
 3016TIP3    H233244   1.674   5.743  18.028  0.2754 -1.0479 -0.1355
 3017TIP3   OH233245   3.488   3.105  17.950 -0.6024 -0.4729 -0.6196
 3017TIP3    H133246   3.473   3.012  17.963 -2.0482 -0.2374 -0.4107
 3017TIP3    H233247   3.458   3.146  18.032  0.4447  0.1387 -0.5290
 3018TIP3   OH233248   1.432   1.295  16.774  0.1943 -0.3449 -0.2702
 3018TIP3    H133249   1.449   1.373  16.721 -0.0659 -0.0771  0.0365
 3018TIP3    H233250   1.362   1.250  16.727 -1.3972  0.8774  0.8229
 3019TIP3   OH233251   4.907   7.232  18.379  0.3374  0.4011 -0.4421
 3019TIP3    H133252   4.848   7.235  18.455  0.3646 -0.5609 -0.3715
 3019TIP3    H233253   4.954   7.149  18.389  0.4688  0.3542 -1.4198
 3020TIP3   OH233254   6.675   1.329  17.782  0.2978 -0.0114 -0.4588
 3020TIP3    H133255   6.602   1.389  17.797 -1.0208 -1.2306 -1.6104
 3020TIP3    H233256   6.635   1.242  17.786  2.0365 -0.8090  0.5988
 3021TIP3   OH233257   6.680   2.247  17.104 -0.2235 -0.2435  0.0856
 3021TIP3    H133258   6.763   2.205  17.128 -0.7160 -0.9964  0.4993
 3021TIP3    H233259   6.621   2.174  17.086 -0.0789  0.2219 -2.8325
 3022TIP3   OH233260   4.890   4.887  17.643 -0.2705 -0.1191  0.6831
 3022TIP3    H133261   4.810   4.930  17.675 -0.9485  0.5984 -1.7674
 3022TIP3    H233262   4.874   4.794  17.656 -0.5660  0.1080  2.1850
 3023TIP3   OH233263   3.748   3.735  18.674  0.1507  0.0559  1.2943
 3023TIP3    H133264   3.656   3.706  18.678  0.0002 -0.2660 -1.9736
 3023TIP3    H233265   3.798   3.653  18.679  0.2408  0.1449  1.9911
 3024TIP3   OH233266   2.057   1.673  18.735 -0.0287  0.1419 -0.4498
 3024TIP3    H133267   2.124   1.652  18.670  0.1293  1.3277 -0.6984
 3024TIP3    H233268   2.009   1.591  18.747  1.5793 -0.7889 -0.1138
 3025TIP3   OH233269   2.935   1.455  18.601 -0.7732 -0.1824  0.4938
 3025TIP3    H133270   2.988   1.479  18.525 -1.5131  0.0232  0.0335
 3025TIP3    H233271   2.946   1.360  18.610  0.4955 -0.0092  1.0440
 3026TIP3   OH233272   7.523   3.214  18.513  0.3649 -0.5579 -0.6089
 3026TIP3    H133273   7.523   3.123  18.542 -0.5459 -0.8894 -1.5803
 3026TIP3    H233274   7.430   3.235  18.500  0.2567  1.4595  2.3962
 3027TIP3   OH233275   4.635   0.674  16.382  0.5698 -0.1614  1.3427
 3027TIP3    H133276   4.682   0.593  16.398  0.2544 -0.9192 -1.1361
 3027TIP3    H233277   4.687   0.719  16.315 -1.2872 -0.2804 -0.2819
 3028TIP3   OH233278   5.254   5.351  17.148  0.1755  0.0236 -0.2379
 3028TIP3    H133279   5.260   5.377  17.240  0.3639 -0.2891 -0.1594
 3028TIP3    H233280   5.302   5.268  17.144  0.7429  0.3797 -0.7626
 3029TIP3   OH233281   0.989   5.559  17.228  0.4675  0.3877  0.0443
 3029TIP3    H133282   0.993   5.482  17.284  0.9241 -0.0969 -0.6356
 3029TIP3    H233283   0.956   5.527  17.144 -0.1569  1.0914  0.0004
 3030TIP3   OH233284   4.484   2.814  17.895 -0.1112  0.4361 -0.4382
 3030TIP3    H133285   4.535   2.895  17.900  3.2841 -1.6088  1.2715
 3030TIP3    H233286   4.418   2.823  17.964 -0.1414  1.8888 -0.6217
 3031TIP3   OH233287   0.688   1.557  17.956 -0.4711  0.1394  0.1331
 3031TIP3    H133288   0.627   1.583  18.025 -0.7600 -1.9015  0.6926
 3031TIP3    H233289   0.647   1.590  17.876 -0.7889  1.3916  0.7825
 3032TIP3   OH233290   0.571   0.232  18.039 -0.5195 -0.4413  0.2527
 3032TIP3    H133291   0.495   0.203  18.090 -0.7054 -0.3807  0.0126
 3032TIP3    H233292   0.566   0.181  17.958 -0.4447 -0.2550  0.1308
 3033TIP3   OH233293   4.610   6.058  19.020 -0.7597 -0.3394  0.4149
 3033TIP3    H133294   4.684   6.065  18.960  0.0266 -0.9792  1.2914
 3033TIP3    H233295   4.643   6.006  19.094 -2.6342 -2.3296 -0.0564
 3034TIP3   OH233296   6.284   5.631  18.606 -0.3050 -0.2324  0.5329
 3034TIP3    H133297   6.366   5.595  18.573  0.7174  1.6694  0.8662
 3034TIP3    H233298   6.285   5.610  18.700  0.5935  1.1099  0.8534
 3035TIP3   OH233299   2.166   5.665  19.506  0.5968 -0.2422 -0.4770
 3035TIP3    H133300   2.248   5.619  19.523  1.4153  1.8013  1.7885
 3035TIP3    H233301   2.193   5.753  19.478 -0.6668  0.9691  1.7666
 3036TIP3   OH233302   1.163   0.983  17.063 -0.4625  0.0485  0.3532
 3036TIP3    H133303   1.103   1.056  17.047 -0.2234  0.1700  0.0222
 3036TIP3    H233304   1.144   0.919  16.994  0.8860  0.7741 -0.7261
 3037TIP3   OH233305   5.224   4.384  18.159  0.2830  0.1215 -0.3375
 3037TIP3    H133306   5.313   4.412  18.183 -0.3966  0.3812  2.2068
 3037TIP3    H233307   5.168   4.428  18.223 -1.5114 -1.3863 -0.7963
 3038TIP3   OH233308   5.660   2.291  18.984 -0.2282 -0.6487 -0.1957
 3038TIP3    H133309   5.706   2.347  19.046 -0.0609 -1.0398  0.0341
 3038TIP3    H233310   5.592   2.347  18.946 -0.8962 -0.6525  0.9618
 3039TIP3   OH233311   4.394   6.638  17.144  0.6393  0.2076 -0.6089
 3039TIP3    H133312   4.455   6.620  17.216  0.3140  0.3775 -0.2895
 3039TIP3    H233313   4.328   6.569  17.150  1.4152 -0.6652 -1.6650
 3040TIP3   OH233314   0.214   1.414  18.105 -0.6322  0.4401  0.0441
 3040TIP3    H133315   0.298   1.368  18.105 -0.0195  1.5143  0.0908
 3040TIP3    H233316   0.160   1.364  18.166  0.0638 -0.1117  0.2317
 3041TIP3   OH233317   1.687   3.383  19.035 -0.6463  0.1062  0.4638
 3041TIP3    H133318   1.610   3.334  19.009 -0.1465  0.0047 -0.8736
 3041TIP3    H233319   1.761   3.327  19.010 -0.0131  2.0333 -2.3329
 3042TIP3   OH233320   1.030   5.346  17.378 -0.2350  0.4154  0.5923
 3042TIP3    H133321   1.083   5.307  17.448 -2.7334 -0.1113  2.3304
 3042TIP3    H233322   0.974   5.275  17.347  0.3685  0.8150 -1.5720
 3043TIP3   OH233323   0.907   1.698  17.769  0.0114  0.1244 -0.1647
 3043TIP3    H133324   0.845   1.712  17.698  0.9512 -1.0391 -1.2600
 3043TIP3    H233325   0.975   1.765  17.755  1.3263 -1.4388 -1.7334
 3044TIP3   OH233326   1.363   7.266  17.929  0.3263 -0.2995 -0.2536
 3044TIP3    H133327   1.276   7.261  17.889 -0.7011  2.3018  1.3488
 3044TIP3    H233328   1.405   7.338  17.883  0.4864  0.3529  0.8736
 3045TIP3   OH233329   2.001   2.182  19.195 -0.5079 -0.2677  0.1019
 3045TIP3    H133330   2.009   2.092  19.226 -0.1160 -1.6049 -3.4998
 3045TIP3    H233331   2.080   2.225  19.227 -0.2234 -1.4445  1.0682
 3046TIP3   OH233332   6.321   7.001  17.581  0.6070  0.3982  0.6350
 3046TIP3    H133333   6.343   7.094  17.578  0.5406  0.4136  0.6295
 3046TIP3    H233334   6.404   6.956  17.563  0.3174  0.4753 -1.1242
 3047TIP3   OH233335   0.916   2.950  18.540  0.5876  0.1523  0.4713
 3047TIP3    H133336   0.828   2.973  18.508  1.7811  1.9355 -1.8603
 3047TIP3    H233337   0.908   2.955  18.635 -2.1985 -1.3568  0.4405
 3048TIP3   OH233338   2.058   0.318  17.401 -0.4446  0.0454 -0.2761
 3048TIP3    H133339   2.103   0.402  17.415 -0.1758  0.0671 -1.2297
 3048TIP3    H233340   1.989   0.338  17.339 -1.8129  0.0008  1.1708
 3049TIP3   OH233341   4.623   0.311  17.431 -0.0580  0.3134 -0.8224
 3049TIP3    H133342   4.680   0.264  17.370  2.4999  0.5362  1.1981
 3049TIP3    H233343   4.621   0.257  17.510 -1.2577  1.1721 -0.2173
 3050TIP3   OH233344   5.091   2.459  19.150  0.0917 -0.4336  0.5693
 3050TIP3    H133345   5.176   2.503  19.155 -0.0891  0.0150 -0.2250
 3050TIP3    H233346   5.066   2.465  19.058 -0.9715 -0.2284  0.8611
 3051TIP3   OH233347   0.319   2.941  18.655  0.0515 -0.0707 -0.3174
 3051TIP3    H133348   0.369   3.009  18.610 -0.7352 -0.4008 -1.7554
 3051TIP3    H233349   0.382   2.870  18.668  0.2764 -0.0050 -1.0015
 3052TIP3   OH233350   0.988   6.162  17.731 -0.2760  0.2182 -0.3588
 3052TIP3    H133351   1.002   6.228  17.799  0.8282 -1.3816  1.0555
 3052TIP3    H233352   1.062   6.173  17.671  0.9184 -0.8087  0.8492
 3053TIP3   OH233353   4.008   1.570  18.720 -0.1921 -0.0592  0.0785
 3053TIP3    H133354   3.946   1.507  18.756 -0.0325  0.1815  0.7855
 3053TIP3    H233355   4.094   1.531  18.735 -0.1491 -0.2853 -0.6932
 3054TIP3   OH233356   2.272   6.883  17.678 -0.0017  0.0109 -0.5205
 3054TIP3    H133357   2.298   6.974  17.691  1.8371 -0.3425 -1.4421
 3054TIP3    H233358   2.189   6.875  17.725  0.6735  1.6963  1.0678
 3055TIP3   OH233359   2.286   3.462  18.617 -0.2651 -0.1562 -0.0008
 3055TIP3    H133360   2.194   3.454  18.589 -0.8178 -0.2574  1.7131
 3055TIP3    H233361   2.329   3.386  18.579 -0.7551  0.1978 -1.3137
 3056TIP3   OH233362   4.455   1.886  17.945  0.0026  0.7236 -0.2659
 3056TIP3    H133363   4.464   1.945  17.871  0.6806  0.8826 -0.0668
 3056TIP3    H233364   4.443   1.943  18.021 -0.3276  0.5738 -0.2028
 3057TIP3   OH233365   0.075   6.555  17.083  0.0710 -0.6067 -0.3791
 3057TIP3    H133366  -0.020   6.551  17.074  0.1057  0.2868 -1.2204
 3057TIP3    H233367   0.109   6.506  17.008  0.2810  0.4979 -1.0232
 3058TIP3   OH233368   0.849   2.057  17.998 -0.3519  0.2592 -0.4249
 3058TIP3    H133369   0.819   2.051  17.907  0.6015  1.2365 -0.8196
 3058TIP3    H233370   0.830   1.971  18.035  1.3023 -0.9352 -2.1939
 3059TIP3   OH233371   5.088   7.377  18.649 -0.0160  0.1202 -0.1280
 3059TIP3    H133372   5.106   7.401  18.740 -0.0790  1.0742 -0.3590
 3059TIP3    H233373   5.021   7.439  18.621 -0.0836 -0.2499 -0.7885
 3060TIP3   OH233374   6.696   5.104  16.908 -0.0704 -0.7367 -0.4644
 3060TIP3    H133375   6.641   5.092  16.831 -1.3818  3.1699 -0.3824
 3060TIP3    H233376   6.780   5.134  16.872 -0.4834  0.4829 -0.4690
 3061TIP3   OH233377   1.934   3.892  17.976  0.2238 -0.7087 -0.5323
 3061TIP3    H133378   1.902   3.958  18.038  0.2530 -1.5529  0.4121
 3061TIP3    H233379   1.856   3.843  17.951  0.3121 -0.8000 -0.6273
 3062TIP3   OH233380   3.338   2.880  18.581 -0.1266 -0.1822 -0.3616
 3062TIP3    H133381   3.300   2.856  18.666 -0.4153  1.9306  0.1824
 3062TIP3    H233382   3.288   2.957  18.554  2.1089  1.2145 -0.8160
 3063TIP3   OH233383   3.217   5.028  17.172 -0.4131 -0.4206 -0.4851
 3063TIP3    H133384   3.128   5.008  17.199 -0.1407 -1.3929 -0.2893
 3063TIP3    H233385   3.262   5.051  17.254 -0.3849 -0.2789 -0.5392
 3064TIP3   OH233386   4.710   2.642  17.216 -0.0500 -0.1456 -0.0916
 3064TIP3    H133387   4.630   2.655  17.166  0.5071  0.8354 -0.7588
 3064TIP3    H233388   4.778   2.684  17.164  0.4416  1.6136  1.8419
 3065TIP3   OH233389   4.181   3.845  16.861 -0.1240  0.4553  0.1115
 3065TIP3    H133390   4.149   3.926  16.900 -0.4232  0.8085 -0.8400
 3065TIP3    H233391   4.258   3.823  16.913 -0.2336  1.1647  0.5972
 3066TIP3   OH233392   2.422   4.920  17.625  0.3752  0.3091 -0.0495
 3066TIP3    H133393   2.329   4.911  17.648 -0.0576  1.1315 -1.3878
 3066TIP3    H233394   2.456   4.983  17.689  0.0637 -0.1199  0.5461
 3067TIP3   OH233395   0.724   6.479  16.722 -0.5949 -0.1321  0.5672
 3067TIP3    H133396   0.737   6.513  16.633 -1.4743 -1.3976 -0.0789
 3067TIP3    H233397   0.799   6.423  16.738 -0.8694 -0.5808  0.2814
 3068TIP3   OH233398   0.864   0.165  18.510  0.6404 -0.2260  0.1158
 3068TIP3    H133399   0.835   0.213  18.433 -1.1057 -1.2729  0.0710
 3068TIP3    H233400   0.910   0.230  18.563 -0.4648  1.1606 -0.5625
 3069TIP3   OH233401   0.260   0.169  19.172 -0.1560  0.1995  0.4093
 3069TIP3    H133402   0.174   0.151  19.209 -0.4224  1.5966  0.5077
 3069TIP3    H233403   0.244   0.187  19.079  0.0193  0.5587  0.4473
 3070TIP3   OH233404   5.216   6.628  17.111 -0.0601 -0.9641 -0.1166
 3070TIP3    H133405   5.227   6.573  17.034  2.0730  0.3869 -0.8944
 3070TIP3    H233406   5.212   6.717  17.076 -0.2865 -0.4061  1.2662
 3071TIP3   OH233407   6.374   5.647  17.646 -0.3751  0.8960  0.6421
 3071TIP3    H133408   6.298   5.661  17.590 -0.5247  1.4498  0.9718
 3071TIP3    H233409   6.343   5.590  17.716  0.3228 -1.5072 -0.8946
 3072TIP3   OH233410   3.728   2.308  17.935 -0.1137 -0.9844 -0.2141
 3072TIP3    H133411   3.715   2.331  17.843  0.4200 -1.3131 -0.3791
 3072TIP3    H233412   3.691   2.221  17.944  1.1687 -1.5788 -0.4900
 3073TIP3   OH233413   7.104   2.582  16.990  0.4193 -0.2005  0.1705
 3073TIP3    H133414   7.082   2.489  16.979  1.2888 -0.4965  0.8376
 3073TIP3    H233415   7.183   2.594  16.938  0.9355 -0.1067  0.9582
 3074TIP3   OH233416   1.128   1.869  18.007 -0.0632  0.1346 -0.5366
 3074TIP3    H133417   1.067   1.804  18.041  0.2015 -0.4687 -1.1954
 3074TIP3    H233418   1.098   1.886  17.918 -1.5995  2.7322  0.3598
 3075TIP3   OH233419   5.660   6.312  19.259 -0.0419 -0.3714  0.5911
 3075TIP3    H133420   5.616   6.257  19.323  0.0701  0.0596  1.0422
 3075TIP3    H233421   5.722   6.253  19.216 -0.3025 -0.7238  0.6917
 3076TIP3   OH233422   4.743   3.633  18.326  0.4251 -0.2556 -1.0849
 3076TIP3    H133423   4.703   3.557  18.283  0.7565 -0.4502 -1.0591
 3076TIP3    H233424   4.815   3.595  18.377  0.0683 -0.0250 -0.3943
 3077TIP3   OH233425   4.640   0.715  17.392 -0.0366 -0.1650  0.2454
 3077TIP3    H133426   4.558   0.675  17.423  0.5746 -1.9497 -0.2915
 3077TIP3    H233427   4.693   0.723  17.470 -0.0998 -0.6309  0.3443
 3078TIP3   OH233428   6.264   0.328  18.414 -0.3294 -0.0997 -0.2191
 3078TIP3    H133429   6.357   0.307  18.410  0.2558  1.6341  2.2705
 3078TIP3    H233430   6.227   0.265  18.476 -0.6740 -0.2820 -0.6023
 3079TIP3   OH233431   1.710   3.885  19.033  0.0480 -0.4035  0.5419
 3079TIP3    H133432   1.676   3.972  19.055 -1.7150 -0.9346  0.0571
 3079TIP3    H233433   1.786   3.874  19.091 -0.8827  0.6556  2.0327
 3080TIP3   OH233434   3.933   5.322  16.861 -0.1629 -0.6197 -0.2052
 3080TIP3    H133435   3.970   5.395  16.811 -0.6342 -0.5665 -0.4829
 3080TIP3    H233436   3.856   5.360  16.904 -1.2268 -1.2831 -1.4635
 3081TIP3   OH233437   6.384   3.109  18.985 -0.2191  0.1418  0.4829
 3081TIP3    H133438   6.416   3.197  18.962 -1.0118  0.4914  0.6704
 3081TIP3    H233439   6.457   3.051  18.966  1.4069  1.1555  3.0087
 3082TIP3   OH233440   4.437   2.783  18.487 -0.2690  0.0015  0.4837
 3082TIP3    H133441   4.522   2.826  18.494 -0.2847  0.1411 -0.2119
 3082TIP3    H233442   4.449   2.717  18.419 -1.0820  0.9084 -0.5712
 3083TIP3   OH233443   4.571   3.304  18.996  0.2272  0.1739 -0.2899
 3083TIP3    H133444   4.545   3.219  19.031  1.2502 -0.8726 -1.9324
 3083TIP3    H233445   4.590   3.287  18.904  0.4721  2.1923 -0.6504
 3084TIP3   OH233446   5.339   0.395  18.112 -0.1533  0.0686 -0.5137
 3084TIP3    H133447   5.360   0.306  18.140 -1.3478 -0.2118 -0.4366
 3084TIP3    H233448   5.247   0.407  18.136 -0.2196  1.0718 -1.1676
 3085TIP3   OH233449   1.463   4.566  16.632  0.1481  0.1016  0.8363
 3085TIP3    H133450   1.485   4.501  16.566  1.6153  1.8674 -0.5154
 3085TIP3    H233451   1.528   4.553  16.701  2.0887  1.6757 -0.5879
 3086TIP3   OH233452   1.523   2.074  18.799 -0.7008 -0.0202 -0.1310
 3086TIP3    H133453   1.507   2.017  18.875  1.1803  1.4084  1.4440
 3086TIP3    H233454   1.546   2.014  18.728 -0.2765 -1.2952  1.0401
 3087TIP3   OH233455   7.337   2.220  18.016  0.2010 -0.2240  0.8054
 3087TIP3    H133456   7.327   2.126  18.002  0.1739  0.0561 -1.3056
 3087TIP3    H233457   7.431   2.236  18.008  0.0797  0.0873 -0.1093
 3088TIP3   OH233458   4.964   7.008  18.863 -0.0964 -0.3186 -0.3706
 3088TIP3    H133459   4.959   7.095  18.903 -2.9477 -0.8522  0.6921
 3088TIP3    H233460   4.952   7.023  18.769 -1.8412  0.4274 -0.0704
 3089TIP3   OH233461   2.535   4.129  18.794 -0.0325 -0.0305 -0.1670
 3089TIP3    H133462   2.517   4.200  18.733 -0.4098 -0.1210 -0.1654
 3089TIP3    H233463   2.469   4.063  18.775 -1.4742  0.7875  1.6662
 3090TIP3   OH233464   2.137   2.664  18.038  0.0789  0.3403 -0.6109
 3090TIP3    H133465   2.176   2.750  18.052 -1.0065  0.7842 -0.1539
 3090TIP3    H233466   2.117   2.632  18.126  0.8816 -0.5921 -0.7525
 3091TIP3   OH233467   1.489   2.854  17.490 -0.4880  0.0504  0.4679
 3091TIP3    H133468   1.571   2.904  17.483  0.0013 -0.9258 -1.6221
 3091TIP3    H233469   1.490   2.817  17.578  0.9736  0.6469  0.7266
 3092TIP3   OH233470   1.581   0.880  18.779 -0.3132  0.3100 -0.8511
 3092TIP3    H133471   1.499   0.869  18.829  0.8143  0.7569  1.2371
 3092TIP3    H233472   1.557   0.861  18.689 -2.4834 -0.6556 -0.1421
 3093TIP3   OH233473   5.987   3.815  18.467  0.4142 -0.4691 -0.2388
 3093TIP3    H133474   5.992   3.773  18.381  0.0379  0.2178 -0.6080
 3093TIP3    H233475   5.907   3.779  18.505 -0.6923  0.9253 -1.1364
 3094TIP3   OH233476   2.834   1.164  18.056 -0.2467 -0.0896 -0.2693
 3094TIP3    H133477   2.829   1.259  18.062 -1.7419 -0.0581 -1.3096
 3094TIP3    H233478   2.916   1.141  18.099 -0.6204  1.5232  1.4305
 3095TIP3   OH233479   5.231   4.907  18.615  0.4884  0.4763 -0.7003
 3095TIP3    H133480   5.182   4.983  18.646 -2.1727 -2.1040  2.2255
 3095TIP3    H233481   5.314   4.911  18.663 -0.7823  0.1801  1.6876
 3096TIP3   OH233482   0.117   2.981  18.046 -0.2275  0.5089 -0.4178
 3096TIP3    H133483   0.110   3.015  17.957 -1.0244  2.0564  0.2053
 3096TIP3    H233484   0.181   2.910  18.039 -0.5105  0.3817 -2.2703
 3097TIP3   OH233485   0.663   3.024  18.499 -0.2932  0.6957 -0.1654
 3097TIP3    H133486   0.629   3.033  18.410 -1.1181 -0.7341 -0.0427
 3097TIP3    H233487   0.603   3.075  18.553 -1.8589 -1.1254 -0.0590
 3098TIP3   OH233488   4.289   0.410  18.201 -0.2452 -0.6960  0.4885
 3098TIP3    H133489   4.332   0.404  18.287  1.4493 -2.3197 -0.4047
 3098TIP3    H233490   4.348   0.465  18.149 -1.2998  0.3368  0.3457
 3099TIP3   OH233491   7.518   1.789  18.481  0.3771  0.1846  0.2281
 3099TIP3    H133492   7.448   1.843  18.519 -0.7587  0.0253 -1.5268
 3099TIP3    H233493   7.554   1.742  18.556 -2.0175 -0.3972  1.1281
 3100TIP3   OH233494   6.004   0.845  18.844 -0.5303 -0.5293  0.0526
 3100TIP3    H133495   5.979   0.753  18.854 -0.4884 -0.6375 -0.8177
 3100TIP3    H233496   5.969   0.870  18.759  0.7419 -0.1703 -0.3878
 3101TIP3   OH233497   6.109   2.062  18.044  0.3390  0.2946  0.1455
 3101TIP3    H133498   6.035   2.103  17.999  1.2642  2.5022  0.5112
 3101TIP3    H233499   6.183   2.073  17.985  0.7417 -0.3257  0.5227
 3102TIP3   OH233500   7.352   5.799  17.948  0.4735  0.6282 -0.4586
 3102TIP3    H133501   7.373   5.748  17.870 -0.2689  0.5636 -0.6205
 3102TIP3    H233502   7.435   5.838  17.974  1.0977 -0.7715 -0.2596
 3103TIP3   OH233503   6.651   1.543  17.100  0.3766 -0.5049 -0.4531
 3103TIP3    H133504   6.745   1.562  17.105  0.4082 -0.6046 -0.6665
 3103TIP3    H233505   6.610   1.613  17.151  0.5484 -0.3218 -0.5658
 3104TIP3   OH233506   7.285   4.469  18.426 -0.2056  0.4835  0.1595
 3104TIP3    H133507   7.284   4.483  18.332  1.6424  1.5835  0.2499
 3104TIP3    H233508   7.316   4.552  18.463  3.4536 -1.1956  1.3533
 3105TIP3   OH233509   3.276   2.084  16.859 -0.1940  0.0344  0.1228
 3105TIP3    H133510   3.322   2.026  16.798 -0.2893 -0.7418  0.7666
 3105TIP3    H233511   3.347   2.128  16.907 -0.0975  1.5117 -1.2976
 3106TIP3   OH233512   4.911   4.200  18.780 -0.0624  0.2631  0.1193
 3106TIP3    H133513   4.940   4.209  18.871  2.9500 -0.2509 -0.6625
 3106TIP3    H233514   4.895   4.106  18.769 -0.8698  0.3836  0.2132
 3107TIP3   OH233515   5.602   1.814  18.048  0.3605  0.2423 -0.5895
 3107TIP3    H133516   5.675   1.876  18.040  0.7549 -0.2678 -1.0173
 3107TIP3    H233517   5.524   1.867  18.036  0.6145  0.9239  0.5744
 3108TIP3   OH233518   7.381   5.124  18.087 -0.2629 -0.2531 -0.1862
 3108TIP3    H133519   7.296   5.138  18.045  0.3671  2.2842 -0.7774
 3108TIP3    H233520   7.403   5.209  18.125  1.3004 -1.2840  1.3466
 3109TIP3   OH233521   0.894   5.512  17.542 -0.4488  0.0686 -0.3940
 3109TIP3    H133522   0.912   5.603  17.521  0.7763 -0.5382 -2.2832
 3109TIP3    H233523   0.954   5.462  17.486 -0.7532 -1.8907  0.9176
 3110TIP3   OH233524   4.665   1.649  17.557 -0.3097 -0.0062  0.3218
 3110TIP3    H133525   4.721   1.619  17.486  1.6154  0.6529  1.4788
 3110TIP3    H233526   4.579   1.661  17.517  0.8585  1.0985 -2.0815
 3111TIP3   OH233527   1.778   6.068  17.092 -0.5230  0.1249  0.1033
 3111TIP3    H133528   1.767   6.024  17.177  0.4944 -1.3807 -0.4973
 3111TIP3    H233529   1.873   6.084  17.087 -0.8096  2.0421  0.0976
 3112TIP3   OH233530   5.696   5.458  17.598  0.4824  0.3298  0.5394
 3112TIP3    H133531   5.763   5.469  17.666 -0.0994 -0.4076  1.2529
 3112TIP3    H233532   5.669   5.547  17.576  1.0871  0.5977  0.8659
 3113TIP3   OH233533   6.875   4.543  18.502  0.2832  0.1530 -0.6031
 3113TIP3    H133534   6.868   4.561  18.408 -0.4275 -0.1826 -0.6149
 3113TIP3    H233535   6.913   4.623  18.538  0.3951  0.3525 -1.1464
 3114TIP3   OH233536   5.920   4.261  17.596  0.2590  0.1302 -0.3913
 3114TIP3    H133537   5.880   4.347  17.605 -0.5709 -0.1705 -1.0713
 3114TIP3    H233538   5.967   4.247  17.678 -1.7058  0.1511  0.7907
 3115TIP3   OH233539   6.774   6.887  19.535 -0.2901  0.0015  0.0536
 3115TIP3    H133540   6.830   6.821  19.575  0.3731  0.7324  0.3537
 3115TIP3    H233541   6.726   6.839  19.467  0.8440 -0.6069 -0.3487
 3116TIP3   OH233542   7.023   6.228  18.505  0.3682  0.7921  0.9736
 3116TIP3    H133543   7.091   6.163  18.523 -1.0523 -0.4481  2.1026
 3116TIP3    H233544   7.038   6.254  18.414  1.9658  0.1195  1.0087
 3117TIP3   OH233545   7.080   3.134  16.742  0.5028 -0.0925 -0.0343
 3117TIP3    H133546   7.091   3.075  16.817 -0.8954 -0.5328 -0.1361
 3117TIP3    H233547   7.025   3.084  16.681 -0.5837  1.2508 -0.1902
 3118TIP3   OH233548   0.571   0.396  18.458 -0.1524  0.1735 -0.0485
 3118TIP3    H133549   0.580   0.335  18.532  0.5482 -1.2346 -1.2510
 3118TIP3    H233550   0.485   0.436  18.471 -0.0844 -0.0954  1.4785
 3119TIP3   OH233551   2.610   4.230  17.512  0.5442 -0.3532 -0.4884
 3119TIP3    H133552   2.704   4.246  17.509  1.1197 -1.8915  3.5671
 3119TIP3    H233553   2.575   4.297  17.570 -0.4577 -1.1545 -0.1243
 3120TIP3   OH233554   6.859   6.633  18.127 -0.1866 -0.1756 -0.8667
 3120TIP3    H133555   6.792   6.647  18.060 -0.0749 -0.1146 -0.9659
 3120TIP3    H233556   6.854   6.539  18.147 -0.3405 -0.1597 -0.8327
 3121TIP3   OH233557   5.536   4.629  18.496  0.1556  0.0624 -0.6077
 3121TIP3    H133558   5.556   4.551  18.548 -1.1221  1.8425  2.8506
 3121TIP3    H233559   5.619   4.676  18.492  0.2550 -0.0437  0.0062
 3122TIP3   OH233560   6.434   4.598  17.678  0.0103 -0.2373 -0.3680
 3122TIP3    H133561   6.385   4.680  17.680  1.8320  0.8787  0.5587
 3122TIP3    H233562   6.526   4.624  17.683  0.7779 -2.2488 -2.2818
 3123TIP3   OH233563   6.970   4.050  18.138 -0.2903  0.2486  0.3055
 3123TIP3    H133564   6.907   4.030  18.207 -1.9200 -0.3983 -1.2784
 3123TIP3    H233565   7.005   3.965  18.112  0.0850  0.4585  0.1069
 3124TIP3   OH233566   2.964   6.496  17.809 -0.5044 -0.2579 -0.3501
 3124TIP3    H133567   2.903   6.560  17.773 -0.7090  0.3642  1.0385
 3124TIP3    H233568   3.050   6.525  17.779 -0.4245  1.5792  1.4362
 3125TIP3   OH233569   1.821   3.501  19.233  0.2424  0.1852 -0.8294
 3125TIP3    H133570   1.910   3.525  19.206  1.0179 -2.3719 -0.8259
 3125TIP3    H233571   1.775   3.481  19.152 -0.2823  1.2727 -0.8138
 3126TIP3   OH233572   2.076   2.605  17.714 -0.0464  0.1176  0.5270
 3126TIP3    H133573   2.044   2.644  17.795  0.1444 -1.8383  1.5914
 3126TIP3    H233574   2.009   2.627  17.649 -0.2099  1.6923  1.1709
 3127TIP3   OH233575   4.154   2.762  17.988  0.6797  0.4451 -0.4475
 3127TIP3    H133576   4.090   2.725  18.049  1.8095  1.2423  1.2891
 3127TIP3    H233577   4.154   2.701  17.914 -1.6758  0.1456 -0.2907
 3128TIP3   OH233578   0.693   0.157  18.936  0.3465 -0.2350  0.1571
 3128TIP3    H133579   0.768   0.101  18.955  1.4003  1.4507  1.2225
 3128TIP3    H233580   0.626   0.130  19.000 -0.1408 -1.9247 -0.9719
 3129TIP3   OH233581   7.586   6.338  18.845 -0.1289  0.3707 -0.0069
 3129TIP3    H133582   7.492   6.354  18.841  0.1188  1.9491 -0.1630
 3129TIP3    H233583   7.596   6.247  18.819 -1.6013  0.2294 -0.1472
 3130TIP3   OH233584   0.305   0.185  16.849  0.1992  0.2493 -0.1453
 3130TIP3    H133585   0.280   0.112  16.793  0.7695 -0.0936  0.0434
 3130TIP3    H233586   0.326   0.256  16.787 -1.6342  0.6939 -0.3029
 3131TIP3   OH233587   5.176   3.088  17.202  0.0656  0.2681  0.0691
 3131TIP3    H133588   5.112   3.114  17.269  0.4468 -0.0708  0.5771
 3131TIP3    H233589   5.133   3.016  17.155  0.6220 -0.9559  1.3645
 3132TIP3   OH233590   0.835   3.237  17.778 -0.2310  0.0078 -0.5487
 3132TIP3    H133591   0.754   3.218  17.730 -1.4744  2.2340  0.5351
 3132TIP3    H233592   0.825   3.327  17.808  2.2932  0.0531  0.3937
 3133TIP3   OH233593   5.300   5.386  17.418  0.1362 -0.0247 -0.0892
 3133TIP3    H133594   5.231   5.427  17.469 -0.5682 -0.5996 -0.5648
 3133TIP3    H233595   5.355   5.342  17.482  1.4099  2.3066  0.5379
 3134TIP3   OH233596   5.161   6.039  17.936  1.1350 -0.1891 -0.5667
 3134TIP3    H133597   5.199   5.972  17.994 -0.4202 -2.6091 -2.1510
 3134TIP3    H233598   5.074   6.055  17.972  0.6851 -0.6774 -1.4119
 3135TIP3   OH233599   4.834   5.235  18.393  0.3070  0.8575  0.2792
 3135TIP3    H133600   4.857   5.229  18.301 -2.0615 -1.3529 -0.2790
 3135TIP3    H233601   4.909   5.198  18.440  1.5124  1.9715 -0.6800
 3136TIP3   OH233602   2.044   3.617  16.743 -0.1051  0.1986 -0.4490
 3136TIP3    H133603   2.046   3.670  16.664 -0.9861 -1.0885 -1.3921
 3136TIP3    H233604   1.962   3.567  16.736 -0.3268  0.2307  1.4046
 3137TIP3   OH233605   7.028   5.348  19.332  0.3839  0.5336  0.4761
 3137TIP3    H133606   7.079   5.396  19.268  0.2158  1.6964  1.1781
 3137TIP3    H233607   7.092   5.321  19.398  0.5153 -0.4283 -0.0339
 3138TIP3   OH233608   7.228   7.660  17.961  0.0636  0.5442  0.0062
 3138TIP3    H133609   7.210   7.735  17.904 -1.3636 -0.9839 -1.6436
 3138TIP3    H233610   7.159   7.597  17.942  0.2559 -0.5755  2.5481
 3139TIP3   OH233611   5.569   7.301  17.191 -0.4714  0.5001  0.2351
 3139TIP3    H133612   5.498   7.243  17.164  0.5131 -0.9187  0.5813
 3139TIP3    H233613   5.648   7.258  17.159  0.3624  1.1386  1.3723
 3140TIP3   OH233614   5.749   5.658  17.906 -0.4533  0.2154 -0.2913
 3140TIP3    H133615   5.697   5.670  17.986  1.7080 -1.6841  1.5378
 3140TIP3    H233616   5.787   5.744  17.889 -1.8439  0.9227 -0.0045
 3141TIP3   OH233617   3.883   6.597  17.531 -0.2557 -1.0750 -0.7842
 3141TIP3    H133618   3.926   6.640  17.605 -0.1649 -0.9170 -0.9271
 3141TIP3    H233619   3.872   6.666  17.466 -0.9474 -1.0620 -0.6583
 3142TIP3   OH233620   5.382   5.348  19.023  0.6119 -0.1343  0.5177
 3142TIP3    H133621   5.452   5.380  18.966  0.4959 -0.3417  0.2543
 3142TIP3    H233622   5.410   5.259  19.046  0.7716  0.0338  0.9739
 3143TIP3   OH233623   1.457   2.314  18.668 -0.3305 -0.2320  0.2837
 3143TIP3    H133624   1.365   2.332  18.647 -0.1819 -2.4509 -2.8345
 3143TIP3    H233625   1.454   2.245  18.734 -0.9633 -0.9339 -0.4582
 3144TIP3   OH233626   5.254   2.280  17.768 -0.6905 -0.2723 -0.0322
 3144TIP3    H133627   5.272   2.208  17.707  1.9476  0.6111 -0.4217
 3144TIP3    H233628   5.160   2.294  17.762 -0.6885 -1.0038 -3.0426
 3145TIP3   OH233629   2.640   3.848  17.031 -0.3254  0.2061 -0.7055
 3145TIP3    H133630   2.653   3.922  16.971  1.4783  1.3057  0.9325
 3145TIP3    H233631   2.695   3.778  16.995  0.9894  0.9570 -0.2389
 3146TIP3   OH233632   2.666   5.085  18.443 -0.0074 -0.0972 -0.0171
 3146TIP3    H133633   2.617   5.027  18.502 -2.3914  1.7203 -0.0754
 3146TIP3    H233634   2.643   5.054  18.355 -0.2518  0.0965 -0.0255
 3147TIP3   OH233635   5.575   4.742  19.046  0.6783 -0.0031  0.1224
 3147TIP3    H133636   5.542   4.803  19.113  0.2917 -0.2955  0.2059
 3147TIP3    H233637   5.660   4.777  19.021  0.6899  0.2835  0.5482
 3148TIP3   OH233638   6.786   6.579  19.162 -0.1264  0.0100 -0.5772
 3148TIP3    H133639   6.805   6.567  19.255  0.0698  0.7105 -0.5155
 3148TIP3    H233640   6.750   6.668  19.157  0.8683  0.3902 -1.3119
 3149TIP3   OH233641   7.263   7.222  18.164  0.3467  0.2280  0.1829
 3149TIP3    H133642   7.271   7.295  18.225  1.3465  0.7824 -0.5956
 3149TIP3    H233643   7.335   7.163  18.187  0.4325  0.2042 -0.1422
 3150TIP3   OH233644   1.822   4.458  18.243 -0.2808  0.0356 -0.2462
 3150TIP3    H133645   1.882   4.446  18.317 -0.4091 -0.1882 -0.1770
 3150TIP3    H233646   1.764   4.382  18.247  0.8115 -0.9259 -1.6264
 3151TIP3   OH233647   2.042   4.270  18.648 -0.0135  0.1448 -0.0593
 3151TIP3    H133648   2.010   4.181  18.661 -0.4814  0.0867 -1.4875
 3151TIP3    H233649   2.121   4.275  18.702  0.5539 -1.4483 -0.6848
 3152TIP3   OH233650   1.968   0.468  16.802 -0.4593  0.1651 -0.1534
 3152TIP3    H133651   2.019   0.522  16.741 -2.8371  2.7407 -0.0636
 3152TIP3    H233652   1.929   0.400  16.746 -0.1440  0.5982 -0.9183
 3153TIP3   OH233653   2.556   4.613  19.279 -0.2558  0.6991 -0.1896
 3153TIP3    H133654   2.539   4.707  19.286 -2.3122  0.3513  0.3485
 3153TIP3    H233655   2.494   4.583  19.212 -1.2917 -0.6077  1.2979
 3154TIP3   OH233656   2.992   6.163  17.005 -0.4570 -0.3932 -0.0640
 3154TIP3    H133657   2.962   6.094  17.065  0.0035 -0.9928 -0.5157
 3154TIP3    H233658   3.005   6.119  16.921 -1.9123  0.6024 -0.8507
 3155TIP3   OH233659   6.774   2.167  18.712  0.0608  0.5285 -0.1942
 3155TIP3    H133660   6.798   2.207  18.629  0.2724  0.3058 -0.2411
 3155TIP3    H233661   6.784   2.073  18.698  0.0288  0.4848  0.0603
 3156TIP3   OH233662   6.406   7.370  17.146  0.0231  0.2692  0.0913
 3156TIP3    H133663   6.399   7.327  17.060 -1.6441  0.1729  0.2432
 3156TIP3    H233664   6.403   7.464  17.126 -2.7089  0.2689  0.1278
 3157TIP3   OH233665   4.319   0.874  18.953 -0.1430  0.3398  0.2575
 3157TIP3    H133666   4.275   0.802  18.999 -0.0138  0.7215  1.0011
 3157TIP3    H233667   4.267   0.952  18.975  0.6215  0.7226  0.7701
 3158TIP3   OH233668   5.162   5.515  18.974 -0.0385  0.4138 -0.6093
 3158TIP3    H133669   5.093   5.468  18.927  0.3966  0.6239 -1.4767
 3158TIP3    H233670   5.232   5.451  18.984  0.6370  0.9085 -1.9729
 3159TIP3   OH233671   3.016   6.707  18.078  0.2685 -0.0184  0.0510
 3159TIP3    H133672   3.005   6.617  18.111 -2.2420  0.9146  2.1059
 3159TIP3    H233673   3.110   6.723  18.084  0.5255 -1.7740  1.8555
 3160TIP3   OH233674   4.846   4.930  18.757 -0.0270 -0.3683 -0.9030
 3160TIP3    H133675   4.896   4.894  18.684  3.0703 -0.3406  1.0087
 3160TIP3    H233676   4.878   5.020  18.765 -1.6237  0.1976 -0.5667
 3161TIP3   OH233677   4.493   5.463  18.638  0.0664  0.7235 -0.1132
 3161TIP3    H133678   4.537   5.391  18.683  2.2136  1.3954 -1.0199
 3161TIP3    H233679   4.522   5.457  18.547  2.2361  3.9809  0.1912
 3162TIP3   OH233680   5.932   2.261  17.951  0.2241  0.5096 -0.3422
 3162TIP3    H133681   5.895   2.302  18.029 -2.6033 -0.1759 -1.2118
 3162TIP3    H233682   5.916   2.323  17.881  3.3777  1.4399 -0.3946
 3163TIP3   OH233683   0.599   4.415  17.315  0.1049  0.6751 -0.3662
 3163TIP3    H133684   0.594   4.431  17.409  2.2003 -1.4854  0.2173
 3163TIP3    H233685   0.689   4.437  17.291  0.2021 -0.6875 -1.4033
 3164TIP3   OH233686   4.358   4.429  17.719  0.5196 -0.2183 -0.3148
 3164TIP3    H133687   4.406   4.509  17.739  1.1944 -0.5205 -0.7069
 3164TIP3    H233688   4.288   4.427  17.784  0.8502  0.3870  0.0697
 3165TIP3   OH233689   0.738   2.370  18.865  0.5209  0.4424 -0.3523
 3165TIP3    H133690   0.662   2.327  18.903  0.9725 -0.7577 -0.7730
 3165TIP3    H233691   0.710   2.461  18.854 -0.5339  0.2248  0.3325
 3166TIP3   OH233692   0.162   6.654  17.989  0.2222  0.1834 -0.0720
 3166TIP3    H133693   0.218   6.724  18.023 -0.2010  0.5881 -0.2052
 3166TIP3    H233694   0.122   6.616  18.067  1.0635 -0.4453  0.0711
 3167TIP3   OH233695   5.292   5.544  18.288  0.0163  0.0091 -0.7466
 3167TIP3    H133696   5.361   5.488  18.324  0.0047  0.6380  0.2967
 3167TIP3    H233697   5.223   5.542  18.355  0.0197  1.2495 -0.6958
 3168TIP3   OH233698   0.239   1.634  16.876  0.1308  0.1797 -0.1922
 3168TIP3    H133699   0.285   1.711  16.909  1.9699 -0.7901 -0.3822
 3168TIP3    H233700   0.290   1.559  16.907 -1.2332 -0.9644 -0.5717
 3169TIP3   OH233701   5.714   1.953  18.729  0.0881 -0.1253 -0.7800
 3169TIP3    H133702   5.720   2.030  18.673  0.2888 -0.8175 -1.7207
 3169TIP3    H233703   5.800   1.912  18.724  1.7706  2.1798  3.5929
 3170TIP3   OH233704   4.075   5.051  17.476 -0.2368  0.3826 -0.3285
 3170TIP3    H133705   3.990   5.070  17.437 -0.8719 -0.8174  0.4065
 3170TIP3    H233706   4.138   5.094  17.418 -1.2645  0.1881 -1.6403
 3171TIP3   OH233707   0.900   6.147  18.794 -0.4051 -0.7140 -0.5138
 3171TIP3    H133708   0.984   6.190  18.786  0.7370 -2.5120  0.9279
 3171TIP3    H233709   0.858   6.158  18.708  1.0382  0.6561 -1.0795
 3172TIP3   OH233710   4.138   3.776  18.458  0.4244 -0.7894 -0.4064
 3172TIP3    H133711   4.090   3.791  18.377 -0.5293 -0.4187  0.2117
 3172TIP3    H233712   4.226   3.807  18.440  0.2731 -0.8885 -1.3591
 3173TIP3   OH233713   4.192   3.981  17.866  0.0632 -0.7827  0.3844
 3173TIP3    H133714   4.175   4.065  17.909  0.8392 -0.9599  1.0639
 3173TIP3    H233715   4.122   3.924  17.898 -0.9221 -0.2103 -0.6790
 3174TIP3   OH233716   4.417   2.586  19.353  0.5139 -0.6083 -0.1893
 3174TIP3    H133717   4.445   2.498  19.327 -0.8423 -1.5085  1.2515
 3174TIP3    H233718   4.476   2.609  19.425  0.6742 -0.4537 -0.3685
 3175TIP3   OH233719   6.724   0.274  19.223 -0.1466  0.0885 -0.1635
 3175TIP3    H133720   6.790   0.331  19.264 -0.4525 -0.4628  1.1598
 3175TIP3    H233721   6.740   0.282  19.129  1.0382  0.8902  0.0846
 3176TIP3   OH233722   6.081   1.207  17.151  0.3381  0.1972 -0.6793
 3176TIP3    H133723   6.136   1.263  17.206  1.9844  0.1089 -2.1379
 3176TIP3    H233724   6.105   1.118  17.177 -2.5012  0.0136  1.8588
 3177TIP3   OH233725   0.419   4.900  17.415 -0.1308  0.2607 -0.1350
 3177TIP3    H133726   0.376   4.933  17.494 -1.0781 -0.5513 -0.2895
 3177TIP3    H233727   0.503   4.946  17.412 -0.3537  0.7691  0.9984
 3178TIP3   OH233728   5.100   6.035  17.366  0.0420  0.2561  0.1077
 3178TIP3    H133729   5.053   6.101  17.315  0.9979  0.2107 -0.8447
 3178TIP3    H233730   5.138   6.083  17.439  0.3414  0.6687 -0.3224
 3179TIP3   OH233731   4.690   0.279  18.405  0.2921 -0.3557 -0.0560
 3179TIP3    H133732   4.684   0.265  18.499 -1.4933 -0.1747 -0.1125
 3179TIP3    H233733   4.691   0.190  18.368 -1.2253 -0.4386  0.0499
 3180TIP3   OH233734   5.954   4.691  16.791  0.1840  0.1373 -0.1974
 3180TIP3    H133735   5.992   4.715  16.707  1.1507 -2.1554 -0.4800
 3180TIP3    H233736   5.902   4.613  16.773  0.9527 -0.7997  1.4145
 3181TIP3   OH233737   5.675   5.584  18.405  0.4202  0.3033 -0.2214
 3181TIP3    H133738   5.699   5.625  18.488 -0.3537  0.1368  0.0990
 3181TIP3    H233739   5.747   5.524  18.385 -0.0032 -0.6938  1.0533
 3182TIP3   OH233740   5.121   0.669  18.090 -0.0470 -0.3532  0.0526
 3182TIP3    H133741   5.063   0.742  18.112 -1.1301 -1.6373  1.8588
 3182TIP3    H233742   5.070   0.616  18.029 -0.9502 -1.5534  1.7445
 3183TIP3   OH233743   1.589   4.213  17.634  0.6859  0.0772  0.3436
 3183TIP3    H133744   1.612   4.286  17.691 -0.0285 -0.8685  1.9249
 3183TIP3    H233745   1.622   4.136  17.679  0.4183 -0.6774 -0.7160
 3184TIP3   OH233746   2.260   0.979  17.945 -0.0657  0.5128 -0.6224
 3184TIP3    H133747   2.220   0.895  17.924  0.8259 -0.2187  0.5075
 3184TIP3    H233748   2.188   1.042  17.937 -1.3489 -0.6916  0.9173
 3185TIP3   OH233749   3.631   0.173  17.141 -0.0835  0.6109  0.2610
 3185TIP3    H133750   3.679   0.256  17.147 -0.1205  0.7007 -0.5616
 3185TIP3    H233751   3.595   0.173  17.052 -0.4870 -0.0689  0.4201
 3186TIP3   OH233752   5.718   5.862  18.150 -0.3651  0.3639  0.0731
 3186TIP3    H133753   5.652   5.792  18.147 -1.2830  1.2376 -1.0400
 3186TIP3    H233754   5.800   5.816  18.167 -0.9333 -0.9971 -0.6238
 3187TIP3   OH233755   0.169   4.603  17.090 -0.2341 -0.0107  1.1654
 3187TIP3    H133756   0.077   4.625  17.079 -0.0109 -0.4518 -2.8729
 3187TIP3    H233757   0.169   4.511  17.117 -0.9347  0.2056  1.9444
 3188TIP3   OH233758   1.037   0.792  17.987  0.7305 -0.2548 -0.0694
 3188TIP3    H133759   0.957   0.798  17.936  0.0223 -1.9092  0.7700
 3188TIP3    H233760   1.011   0.817  18.076  1.5173  0.7324 -0.0939
 3189TIP3   OH233761   2.766   3.357  19.157 -0.2084  0.1321 -0.2198
 3189TIP3    H133762   2.700   3.388  19.219 -0.5184  1.0148 -0.9648
 3189TIP3    H233763   2.827   3.306  19.211 -1.8607 -1.3455  0.3775
 3190TIP3   OH233764   7.047   5.416  18.681 -0.4356  0.0298 -0.5304
 3190TIP3    H133765   7.059   5.324  18.706  0.2869  0.4200  0.6666
 3190TIP3    H233766   7.127   5.438  18.633 -1.5298 -0.5262 -2.7355
 3191TIP3   OH233767   4.010   1.652  19.108 -0.5282  0.1542 -0.2974
 3191TIP3    H133768   3.915   1.664  19.117 -0.7239  0.1182 -2.0402
 3191TIP3    H233769   4.025   1.562  19.138 -1.4313 -0.6863 -2.1974
 3192TIP3   OH233770   0.802   0.787  17.860  0.0782  0.0221  0.0351
 3192TIP3    H133771   0.752   0.810  17.782 -0.1059 -0.3113  0.0566
 3192TIP3    H233772   0.783   0.695  17.875  2.0338 -0.6112 -0.9609
 3193TIP3   OH233773   3.298   3.199  19.238  0.7004 -0.1959  0.0865
 3193TIP3    H133774   3.267   3.114  19.268 -1.6805  0.7271  0.4228
 3193TIP3    H233775   3.298   3.191  19.142  1.4134 -0.8555  0.1301
 3194TIP3   OH233776   7.301   4.253  17.874  0.0031  0.0182  0.7616
 3194TIP3    H133777   7.253   4.242  17.956 -0.2827 -1.0345  0.4641
 3194TIP3    H233778   7.273   4.339  17.841 -2.5922 -1.0062  0.0304
 3195TIP3   OH233779   4.481   7.516  16.650 -0.5652  0.3799  0.2975
 3195TIP3    H133780   4.521   7.431  16.632 -0.3509  0.0452  2.2158
 3195TIP3    H233781   4.554   7.579  16.642 -0.8676  0.5444 -1.8603
 3196TIP3   OH233782   3.549   6.314  16.776 -0.2775 -0.3630  0.0529
 3196TIP3    H133783   3.630   6.263  16.781  0.3941  0.6891  0.1622
 3196TIP3    H233784   3.566   6.381  16.710  0.7026  2.7752  3.1332
 3197TIP3   OH233785   3.634   3.164  19.566  0.6301 -0.6075 -0.1148
 3197TIP3    H133786   3.558   3.106  19.571 -0.1777  0.5140  2.7342
 3197TIP3    H233787   3.597   3.251  19.549  1.2847 -0.1473  0.6908
 3198TIP3   OH233788   0.480   1.066  17.512 -0.3328  0.1823  0.6977
 3198TIP3    H133789   0.428   1.104  17.441 -0.1678 -1.1176 -0.1509
 3198TIP3    H233790   0.452   0.974  17.515  0.6158 -0.0952  1.4415
 3199TIP3   OH233791   1.129   1.930  17.732 -0.2609 -0.7572 -0.0313
 3199TIP3    H133792   1.092   1.940  17.644  1.3674 -0.2265 -0.6920
 3199TIP3    H233793   1.205   1.874  17.719 -0.0630 -0.7538  1.0721
 3200TIP3   OH233794   5.786   5.119  17.066 -0.2950  0.5294 -0.2767
 3200TIP3    H133795   5.773   5.175  16.990  3.5653  0.9416 -0.8067
 3200TIP3    H233796   5.807   5.033  17.030  1.0053  0.5903  0.2755
 3201TIP3   OH233797   4.740   4.496  18.959 -0.0003 -0.3745  0.5570
 3201TIP3    H133798   4.696   4.558  18.901 -0.6891  1.1483  2.6082
 3201TIP3    H233799   4.762   4.422  18.902  0.3388  1.4673 -1.8649
 3202TIP3   OH233800   7.324   0.686  18.204  0.5356 -0.1257  0.0619
 3202TIP3    H133801   7.283   0.622  18.262  0.1286  0.2098  0.1504
 3202TIP3    H233802   7.286   0.667  18.118  1.3268 -0.7880 -0.1590
 3203TIP3   OH233803   1.910   4.850  18.636  0.0964 -0.2526  0.3792
 3203TIP3    H133804   1.831   4.897  18.609  0.1136  0.8708  2.1342
 3203TIP3    H233805   1.878   4.767  18.670 -0.2730 -0.1113  0.3807
 3204TIP3   OH233806   4.178   6.484  17.753 -0.0137 -0.0520 -0.0875
 3204TIP3    H133807   4.216   6.508  17.837  2.7783  0.5389 -1.4076
 3204TIP3    H233808   4.218   6.544  17.690 -1.7155 -0.7212 -1.9045
 3205TIP3   OH233809   4.596   3.074  17.820  0.0580  0.2306 -0.1581
 3205TIP3    H133810   4.537   3.144  17.849 -0.6152 -0.8148  1.1133
 3205TIP3    H233811   4.684   3.110  17.828 -0.3313  2.3604 -3.4914
 3206TIP3   OH233812   4.670   0.086  17.049 -0.0724  0.2040 -0.0950
 3206TIP3    H133813   4.683   0.055  17.139 -0.3337  3.0553  1.0169
 3206TIP3    H233814   4.579   0.065  17.030  0.3139 -1.5100 -0.1967
 3207TIP3   OH233815   4.451   2.035  17.724 -0.2048  0.5164  0.5947
 3207TIP3    H133816   4.532   2.064  17.682 -0.3828 -0.0803 -0.1883
 3207TIP3    H233817   4.383   2.052  17.659 -0.4042 -0.9938  0.3816
 3208TIP3   OH233818   1.945   5.413  18.971  0.1283  0.2005  0.4798
 3208TIP3    H133819   1.957   5.435  19.064  1.7036 -1.5193  0.7436
 3208TIP3    H233820   1.917   5.321  18.972 -0.4537  0.3538 -0.7274
 3209TIP3   OH233821   0.886   3.179  17.142 -0.0910  0.4386  0.2436
 3209TIP3    H133822   0.865   3.125  17.066  0.5484 -0.3658  0.6149
 3209TIP3    H233823   0.909   3.116  17.211  0.5146  1.1751  0.7452
 3210TIP3   OH233824   2.705   7.285  17.657  0.4120  0.4231 -0.4040
 3210TIP3    H133825   2.701   7.203  17.607  0.4868  0.5442 -0.6083
 3210TIP3    H233826   2.752   7.262  17.737  1.8438  0.6274 -1.1613
 3211TIP3   OH233827   0.721   3.806  17.872 -0.7225  0.5092  0.2282
 3211TIP3    H133828   0.647   3.866  17.868 -1.6651 -0.5183  1.5319
 3211TIP3    H233829   0.751   3.811  17.963 -0.2176 -0.3024  0.1206
 3212TIP3   OH233830   3.595   1.126  18.528 -0.6781  0.5581 -0.0310
 3212TIP3    H133831   3.623   1.119  18.437 -0.1056 -0.5583  0.2037
 3212TIP3    H233832   3.500   1.113  18.525 -0.4893 -1.0208 -0.3517
 3213TIP3   OH233833   6.161   2.707  18.377  0.0493  0.3784  0.0605
 3213TIP3    H133834   6.069   2.707  18.351 -0.0036 -0.5075  0.2178
 3213TIP3    H233835   6.159   2.721  18.472  0.0260 -0.4550  0.1899
 3214TIP3   OH233836   1.294   7.147  18.340 -0.2523 -0.5772  0.4532
 3214TIP3    H133837   1.320   7.057  18.359  1.5191 -0.0824  0.5832
 3214TIP3    H233838   1.212   7.159  18.387 -0.2362 -1.9462  0.8733
 3215TIP3   OH233839   3.607   6.542  18.828  0.3847  0.4345 -0.4344
 3215TIP3    H133840   3.524   6.509  18.795 -0.1394  0.1565  1.0978
 3215TIP3    H233841   3.669   6.470  18.813 -0.1329 -0.1896  0.3337
 3216TIP3   OH233842   6.256   7.473  16.612 -0.0755 -0.1021  0.5297
 3216TIP3    H133843   6.177   7.528  16.613  0.5354  0.8675 -1.1268
 3216TIP3    H233844   6.329   7.535  16.616  0.6200 -0.8768  0.1041
 3217TIP3   OH233845   5.878   2.937  18.811 -0.4555  0.3713 -0.0604
 3217TIP3    H133846   5.830   3.010  18.773  0.3909  0.3331 -1.2489
 3217TIP3    H233847   5.914   2.971  18.893 -1.2773  0.8274  0.1185
 3218TIP3   OH233848   7.488   1.269  18.986  0.5153  0.7086 -0.4117
 3218TIP3    H133849   7.505   1.229  19.072 -0.4059  1.8458  0.3310
 3218TIP3    H233850   7.548   1.344  18.982 -0.4103  1.4849 -0.1360
 3219TIP3   OH233851   0.344   0.123  18.198  0.1714 -0.1335  0.4275
 3219TIP3    H133852   0.339   0.028  18.210  0.1399 -0.2719 -0.5989
 3219TIP3    H233853   0.263   0.145  18.151  0.1888  0.3984  0.6498
 3220TIP3   OH233854   3.112   4.450  19.822  0.0907  0.4026  0.4946
 3220TIP3    H133855   3.042   4.387  19.808  0.0348  0.6192 -0.2378
 3220TIP3    H233856   3.176   4.430  19.755  0.9628 -0.0942  1.4553
 3221TIP3   OH233857   1.630   7.192  17.486 -0.2362 -0.2682 -0.0219
 3221TIP3    H133858   1.572   7.128  17.444  0.4233 -0.2175 -1.0650
 3221TIP3    H233859   1.579   7.228  17.558 -0.9120 -1.3890  0.0875
 3222TIP3   OH233860   7.267   7.301  16.877  0.1546 -0.1165  0.1859
 3222TIP3    H133861   7.231   7.388  16.861 -0.4678 -0.1079  1.4716
 3222TIP3    H233862   7.257   7.254  16.795  0.9977  1.1834 -0.7034
 3223TIP3   OH233863   0.056   5.406  17.631  0.3027  0.2244 -0.0561
 3223TIP3    H133864   0.142   5.364  17.624 -0.9336 -2.5599  0.0884
 3223TIP3    H233865   0.050   5.433  17.722  1.1061  0.6982 -0.1301
 3224TIP3   OH233866   1.083   3.251  17.927  0.3602 -0.0373 -0.3905
 3224TIP3    H133867   1.066   3.163  17.963  0.5504 -0.6605 -1.7735
 3224TIP3    H233868   1.006   3.271  17.875 -0.3442  1.2791  1.0952
 3225TIP3   OH233869   0.716   2.237  17.805  0.6743  0.4649  0.0721
 3225TIP3    H133870   0.728   2.143  17.790  2.7611  0.4232  1.5404
 3225TIP3    H233871   0.773   2.278  17.740 -0.3270  0.7706 -0.6473
 3226TIP3   OH233872   5.688   0.336  18.926 -0.4349  0.1364  0.1754
 3226TIP3    H133873   5.733   0.417  18.952 -0.5205  0.1778  0.1938
 3226TIP3    H233874   5.727   0.313  18.842 -0.5143  0.2781  0.0983
 3227TIP3   OH233875   1.363   5.438  19.249  0.2213 -0.5674 -0.4329
 3227TIP3    H133876   1.299   5.494  19.292  0.1063  0.6412 -2.1059
 3227TIP3    H233877   1.374   5.476  19.162  1.5317 -2.0754 -0.9702
 3228TIP3   OH233878   3.794   5.272  18.901  0.1816 -0.2543 -0.3145
 3228TIP3    H133879   3.768   5.352  18.945  0.5914  1.9506 -3.7258
 3228TIP3    H233880   3.890   5.270  18.908  0.2933  0.3822 -1.4256
 3229TIP3   OH233881   6.268   0.452  17.636  0.1231 -0.0050 -0.2012
 3229TIP3    H133882   6.349   0.488  17.673 -0.5092  0.4407  0.7979
 3229TIP3    H233883   6.211   0.528  17.624  0.1376 -0.2091 -1.6799
 3230TIP3   OH233884   5.972   2.858  18.188 -0.2394 -0.2514 -0.1503
 3230TIP3    H133885   5.893   2.812  18.158 -0.0057 -0.8581  0.1585
 3230TIP3    H233886   5.945   2.900  18.269 -0.7603  1.0652 -0.9647
 3231TIP3   OH233887   1.255   4.315  18.868  0.0038 -0.1000 -0.4457
 3231TIP3    H133888   1.172   4.268  18.862 -0.4678  0.7567 -0.8316
 3231TIP3    H233889   1.253   4.378  18.795 -0.6227  2.4043  1.5811
 3232TIP3   OH233890   4.187   4.026  17.595  0.3377  0.2176 -0.1339
 3232TIP3    H133891   4.096   4.056  17.596  0.4483  0.5780 -0.8400
 3232TIP3    H233892   4.211   4.022  17.688 -0.4779 -0.1414  0.0755
 3233TIP3   OH233893   4.674   0.572  18.641  0.1045  0.0435 -0.2502
 3233TIP3    H133894   4.658   0.516  18.716 -0.5095 -1.7591 -1.6482
 3233TIP3    H233895   4.604   0.637  18.643  0.3133  0.2577  0.9030
 3234TIP3   OH233896   5.815   2.527  18.580  0.5017  0.3772 -0.1076
 3234TIP3    H133897   5.775   2.581  18.648  0.5096  1.2244 -0.7645
 3234TIP3    H233898   5.781   2.563  18.498  2.2722  0.8628 -0.6674
 3235TIP3   OH233899   5.057   6.010  18.962  0.7368  0.1214 -0.2377
 3235TIP3    H133900   5.070   5.925  19.003  0.8380  0.3495  0.2123
 3235TIP3    H233901   5.100   6.072  19.022  1.3973  0.3962 -0.9820
 3236TIP3   OH233902   3.575   2.836  17.958 -0.0347 -0.0523  0.3701
 3236TIP3    H133903   3.631   2.817  18.034 -0.0619 -2.5325 -0.1341
 3236TIP3    H233904   3.611   2.782  17.888 -0.7165  1.3095 -1.0895
 3237TIP3   OH233905   2.621   0.963  18.039  0.2916  0.6076  0.2068
 3237TIP3    H133906   2.692   0.922  17.990  0.0428 -0.2003  0.4963
 3237TIP3    H233907   2.665   1.014  18.107  0.6393  1.8883 -0.9426
 3238TIP3   OH233908   3.979   1.962  17.085  0.4202 -0.5783 -0.3033
 3238TIP3    H133909   3.983   1.973  16.990  0.2103 -1.3231 -0.4012
 3238TIP3    H233910   3.934   2.041  17.116  0.0229 -0.5757 -0.8715
 3239TIP3   OH233911   6.138   1.938  19.141 -0.0450 -0.3126 -0.8997
 3239TIP3    H133912   6.118   1.853  19.179  0.7439  0.6943  2.0036
 3239TIP3    H233913   6.061   1.992  19.161  0.6371  0.4004 -0.1221
 3240TIP3   OH233914   4.988   0.727  18.402  0.0468  0.7257 -0.1960
 3240TIP3    H133915   4.951   0.815  18.391  3.1307  1.9932 -2.1216
 3240TIP3    H233916   5.081   0.739  18.381  0.6221 -2.9957 -0.3184
 3241TIP3   OH233917   6.686   1.620  18.978 -0.3372  0.3543  0.1254
 3241TIP3    H133918   6.693   1.586  18.889 -1.2209 -1.1347  0.5798
 3241TIP3    H233919   6.651   1.709  18.967 -0.1093  0.3137 -1.0258
 3242TIP3   OH233920   6.727   1.498  18.328 -0.1952  0.2751 -0.2967
 3242TIP3    H133921   6.802   1.532  18.378  0.1571  1.4062 -1.5430
 3242TIP3    H233922   6.761   1.484  18.240 -1.3388  0.3684 -0.7727
 3243TIP3   OH233923   6.468   5.606  18.015  0.0447 -0.1643 -0.5333
 3243TIP3    H133924   6.517   5.669  17.963  0.8744  0.4552  0.9160
 3243TIP3    H233925   6.433   5.658  18.088  1.0855 -1.4304  0.9149
 3244TIP3   OH233926   4.895   7.495  18.210  0.1656  0.0485  0.0442
 3244TIP3    H133927   4.953   7.462  18.142  3.0709  0.5098  2.0969
 3244TIP3    H233928   4.879   7.420  18.267 -1.3084 -0.0715 -0.4957
 3245TIP3   OH233929   4.237   6.234  16.907 -0.2627  0.0581  0.2127
 3245TIP3    H133930   4.142   6.224  16.896 -0.5294  1.2780  1.1930
 3245TIP3    H233931   4.259   6.310  16.854 -0.0556  0.5564  1.0055
 3246TIP3   OH233932   4.758   1.047  17.132  0.0269  0.3112 -0.2268
 3246TIP3    H133933   4.742   1.064  17.039 -1.2827 -1.8371 -0.4780
 3246TIP3    H233934   4.831   0.985  17.132 -1.1200 -1.0975  0.0089
 3247TIP3   OH233935   6.010   1.380  17.856 -0.0072 -0.1132 -0.0319
 3247TIP3    H133936   5.933   1.325  17.873 -0.4445  0.0467 -1.3220
 3247TIP3    H233937   5.998   1.456  17.912 -0.8990 -0.0104 -0.3368
 3248TIP3   OH233938   3.977   5.720  18.116  0.1801  0.9101 -0.3818
 3248TIP3    H133939   3.899   5.757  18.158  0.8493  1.2512  0.5777
 3248TIP3    H233940   3.942   5.660  18.050 -0.8954  0.4602  0.5719
 3249TIP3   OH233941   6.068   6.736  16.983  0.1219 -0.2449 -0.0858
 3249TIP3    H133942   6.030   6.801  16.925 -1.5723 -0.0402  1.1626
 3249TIP3    H233943   6.020   6.747  17.066  1.9952 -0.9326  1.1557
 3250TIP3   OH233944   3.146   4.907  19.404 -0.4924  0.0881 -0.0132
 3250TIP3    H133945   3.192   4.921  19.321  0.5553 -1.2024  0.3304
 3250TIP3    H233946   3.076   4.845  19.383 -0.8457  0.5107 -0.1140
 3251TIP3   OH233947   7.322   6.857  18.839 -0.0404  0.4215  0.3836
 3251TIP3    H133948   7.261   6.930  18.850  0.7638  1.1773 -0.1373
 3251TIP3    H233949   7.356   6.841  18.927  0.0631  0.9128  0.4333
 3252TIP3   OH233950   1.829   1.808  18.339  0.6399 -0.0167 -0.2150
 3252TIP3    H133951   1.824   1.833  18.246  0.0874 -1.3860 -0.5817
 3252TIP3    H233952   1.922   1.810  18.359  0.6268  2.5939 -0.1039
 3253TIP3   OH233953   6.727   3.792  17.357 -0.1812 -0.3601 -0.1162
 3253TIP3    H133954   6.806   3.806  17.304  0.1733  0.3833  0.6080
 3253TIP3    H233955   6.658   3.839  17.310  0.1228  0.2622  0.0654
 3254TIP3   OH233956   0.946   3.972  17.416 -0.0515 -0.2766  0.3685
 3254TIP3    H133957   0.985   3.895  17.456  0.3435  0.5339  1.6088
 3254TIP3    H233958   0.955   4.041  17.482 -0.7297  0.7401 -0.5531
 3255TIP3   OH233959   4.551   1.446  18.651  0.2271 -0.4730 -0.2398
 3255TIP3    H133960   4.522   1.482  18.568  1.3199 -0.5356 -0.6596
 3255TIP3    H233961   4.485   1.474  18.714 -1.4715 -1.7447 -1.3716
 3256TIP3   OH233962   2.024   7.498  17.703  0.0871 -0.1063  0.7442
 3256TIP3    H133963   2.050   7.578  17.658  0.8235 -1.6465 -1.8167
 3256TIP3    H233964   1.935   7.514  17.733  0.1546  1.5837  0.1236
 3257TIP3   OH233965   5.965   4.045  18.918 -0.6266 -0.3347  0.7037
 3257TIP3    H133966   5.888   4.003  18.955  0.1371 -1.6434  0.8508
 3257TIP3    H233967   5.932   4.094  18.843 -1.8282  0.4294  1.7007
 3258TIP3   OH233968   0.977   2.279  17.571 -0.2372 -0.9555 -0.2779
 3258TIP3    H133969   0.894   2.316  17.539  0.4698  0.7361 -0.2644
 3258TIP3    H233970   0.984   2.196  17.525 -0.2859  0.4300 -3.0364
 3259TIP3   OH233971   2.332   6.707  17.054 -0.3639  0.0243 -0.1274
 3259TIP3    H133972   2.360   6.638  16.994  0.0241 -0.9159  1.0895
 3259TIP3    H233973   2.391   6.780  17.037  0.7683 -0.7966  0.1754
 3260TIP3   OH233974   6.942   1.537  18.492 -0.1507  0.1112 -0.0459
 3260TIP3    H133975   6.936   1.616  18.546 -1.4664 -0.0466  0.0681
 3260TIP3    H233976   7.036   1.527  18.475 -0.0830  3.5995 -2.8755
 3261TIP3   OH233977   6.610   2.011  18.999 -0.2358  0.0512  0.0355
 3261TIP3    H133978   6.650   2.097  19.009 -1.4134  1.0105 -2.6923
 3261TIP3    H233979   6.516   2.029  18.993 -0.5377 -1.4722 -0.1231
 3262TIP3   OH233980   4.628   6.439  16.427  0.2918  0.7165  0.4862
 3262TIP3    H133981   4.547   6.489  16.439  0.6673  1.2255  0.9423
 3262TIP3    H233982   4.697   6.505  16.427  0.5738  0.5278 -1.9917
 3263TIP3   OH233983   2.606   3.919  18.526 -0.7713 -0.1663  0.4783
 3263TIP3    H133984   2.650   3.875  18.599 -0.0817  0.4467  0.4476
 3263TIP3    H233985   2.629   3.867  18.450 -0.7339 -0.2861  0.5717
 3264TIP3   OH233986   2.439   5.521  18.433 -0.5783 -0.0894  0.3616
 3264TIP3    H133987   2.510   5.466  18.467 -0.6957 -1.3152 -1.2896
 3264TIP3    H233988   2.421   5.583  18.504  0.7453 -1.0649  1.6008
 3265TIP3   OH233989   4.919   7.193  19.352  0.1566 -0.1237 -0.8392
 3265TIP3    H133990   4.863   7.203  19.429 -0.3966  2.0129 -1.4374
 3265TIP3    H233991   4.985   7.129  19.378 -2.2695 -2.4451  0.0355
 3266TIP3   OH233992   7.605   2.041  17.677 -0.2988 -0.0288 -0.5142
 3266TIP3    H133993   7.536   2.097  17.713  1.1077  0.4885  1.5904
 3266TIP3    H233994   7.587   1.954  17.713 -0.1089  0.0128 -0.3160
 3267TIP3   OH233995   4.259   5.498  16.906 -0.4793  0.5262  0.0411
 3267TIP3    H133996   4.209   5.467  16.831 -1.9929  2.1127  0.3204
 3267TIP3    H233997   4.315   5.568  16.871  0.7508 -0.4789 -0.0592
 3268TIP3   OH233998   1.287   7.343  18.623 -0.4389  0.2214  0.5103
 3268TIP3    H133999   1.320   7.337  18.713 -1.7951  0.5642  1.0554
 3268TIP3    H234000   1.210   7.398  18.630 -0.8145 -0.1103 -0.8099
 3269TIP3   OH234001   2.677   2.525  17.107  0.2471  0.3796  0.2334
 3269TIP3    H134002   2.770   2.529  17.085 -0.1090  0.7674 -1.2751
 3269TIP3    H234003   2.645   2.448  17.061 -0.3514  0.7222  0.0775
 3270TIP3   OH234004   2.257   2.920  17.114 -0.1107 -0.3361  0.1418
 3270TIP3    H134005   2.272   2.976  17.038 -0.6608 -0.9680 -0.4528
 3270TIP3    H234006   2.337   2.927  17.166 -0.0182  0.6669 -0.1314
 3271TIP3   OH234007   4.913   2.732  19.224  0.0508 -0.3094  0.4721
 3271TIP3    H134008   4.882   2.641  19.219  0.4387 -0.3820 -1.0642
 3271TIP3    H234009   5.003   2.725  19.255  0.0629 -0.4484  0.4082
 3272TIP3   OH234010   1.853   4.471  18.570  0.2430  0.4225 -0.5573
 3272TIP3    H134011   1.919   4.403  18.584  2.6313  2.5378 -0.7259
 3272TIP3    H234012   1.806   4.476  18.653  1.1720 -0.2686  0.0332
 3273TIP3   OH234013   0.474   1.541  17.781  0.0116  0.3680  0.1489
 3273TIP3    H134014   0.398   1.491  17.811 -1.3045  1.9149 -0.4598
 3273TIP3    H234015   0.484   1.517  17.689 -1.3137  1.9668 -0.4548
 3274TIP3   OH234016   1.086   3.096  17.648 -0.3774  0.4848 -0.4921
 3274TIP3    H134017   1.039   3.153  17.587 -2.2848  1.8364  2.0346
 3274TIP3    H234018   1.066   3.132  17.734  3.0692 -0.6717  0.9405
 3275TIP3   OH234019   2.464   6.882  18.525  0.5777 -0.2513 -0.0065
 3275TIP3    H134020   2.559   6.887  18.525  0.5138  2.8053  0.0161
 3275TIP3    H234021   2.435   6.971  18.504 -2.2795 -0.8241  1.0148
 3276TIP3   OH234022   0.041   6.988  17.432  0.4181 -0.4155  0.6293
 3276TIP3    H134023   0.029   7.021  17.343  2.4536 -1.9869 -0.3117
 3276TIP3    H234024  -0.029   7.029  17.483  0.0771  1.6628 -1.3706
 3277TIP3   OH234025   5.908   7.427  17.237  0.0162  0.6246 -0.2797
 3277TIP3    H134026   5.992   7.413  17.280 -0.4189 -0.2723  0.2937
 3277TIP3    H234027   5.877   7.510  17.272  0.6420  0.9575 -0.4843
 3278TIP3   OH234028   7.467   5.641  16.460  0.0797 -0.3778  0.2642
 3278TIP3    H134029   7.524   5.575  16.419 -2.2135 -1.9914 -0.5238
 3278TIP3    H234030   7.393   5.648  16.401 -0.4462  1.9219  1.0825
 3279TIP3   OH234031   7.564   1.763  17.714  0.4946  0.2295 -0.0465
 3279TIP3    H134032   7.471   1.744  17.731  0.4830 -1.1361 -1.4000
 3279TIP3    H234033   7.608   1.746  17.797 -0.2909 -0.5091  0.2306
 3280TIP3   OH234034   3.818   3.049  16.614 -0.8316 -0.3450  0.6583
 3280TIP3    H134035   3.776   3.050  16.528 -0.5726  3.4667  0.4277
 3280TIP3    H234036   3.790   2.966  16.653 -4.1471 -0.4707 -1.5864
 3281TIP3   OH234037   6.900   6.307  17.700 -0.3199  0.1652 -0.1111
 3281TIP3    H134038   6.919   6.390  17.657 -0.6739 -1.0908 -2.9152
 3281TIP3    H234039   6.972   6.249  17.675 -0.8456 -0.8057  0.5305
 3282TIP3   OH234040   2.509   4.870  19.373 -0.0563  0.6642  0.4649
 3282TIP3    H134041   2.426   4.825  19.363  1.0085 -1.1933 -0.4112
 3282TIP3    H234042   2.532   4.859  19.466  0.4341 -1.1015  0.1574
 3283TIP3   OH234043   1.124   2.205  16.489  0.0496  0.2674  0.0441
 3283TIP3    H134044   1.128   2.110  16.478 -2.2046  0.1354 -0.0783
 3283TIP3    H234045   1.202   2.238  16.443 -0.2814 -1.3801 -1.8297
 3284TIP3   OH234046   3.639   6.827  18.374 -0.3283 -0.1512 -0.0280
 3284TIP3    H134047   3.598   6.880  18.443  0.7826  0.4254  0.2096
 3284TIP3    H234048   3.720   6.795  18.414  1.4147  1.9061 -1.6995
 3285TIP3   OH234049   3.279   2.616  16.811  0.0737  0.1608  0.7571
 3285TIP3    H134050   3.278   2.525  16.781  0.5027  0.4811 -0.3015
 3285TIP3    H234051   3.273   2.610  16.906 -0.5852 -0.9439  0.6714
 3286TIP3   OH234052   2.056   1.890  17.922  0.1582  0.2280  0.2161
 3286TIP3    H134053   2.005   1.831  17.867 -0.7833  0.5694  0.6993
 3286TIP3    H234054   2.137   1.842  17.940 -0.7600 -1.1203  0.9649
 3287TIP3   OH234055   4.070   3.548  18.165  0.0143 -0.6589  0.2802
 3287TIP3    H134056   4.098   3.521  18.253 -0.4600  0.4411  0.7934
 3287TIP3    H234057   4.089   3.642  18.162 -1.9201 -0.2229  0.0018
 3288TIP3   OH234058   3.530   2.504  18.029 -0.4373  0.2964 -0.3171
 3288TIP3    H134059   3.602   2.444  18.013 -0.5658  0.2258 -0.6282
 3288TIP3    H234060   3.467   2.453  18.080  0.6270  0.9584  1.7626
 3289TIP3   OH234061   3.582   1.868  17.770  0.1956 -0.5884 -0.1526
 3289TIP3    H134062   3.533   1.927  17.714 -1.2617 -1.4761  0.1402
 3289TIP3    H234063   3.661   1.848  17.720 -0.8761 -1.0482 -1.7549
 3290TIP3   OH234064   3.497   5.932  19.136 -0.3019 -0.0279  0.0181
 3290TIP3    H134065   3.448   5.922  19.055 -0.8375 -1.0904  0.4514
 3290TIP3    H234066   3.431   5.953  19.202 -0.0812 -0.6219  0.4431
 3291TIP3   OH234067   7.180   1.138  17.069 -0.3637 -0.3780  0.1806
 3291TIP3    H134068   7.177   1.074  16.997  0.8887 -0.2994  0.0339
 3291TIP3    H234069   7.209   1.088  17.145 -1.2965 -0.3777  0.5401
 3292TIP3   OH234070   7.265   3.319  18.455  0.4123  0.4924  0.2212
 3292TIP3    H134071   7.236   3.287  18.370  0.3967  0.8098  0.1063
 3292TIP3    H234072   7.228   3.407  18.461  1.6240  1.0285 -0.0674
 3293TIP3   OH234073   6.900   7.385  18.439 -0.2998 -0.1367  0.3285
 3293TIP3    H134074   6.902   7.377  18.343 -1.0920  0.5011  0.2487
 3293TIP3    H234075   6.963   7.455  18.458  1.0624 -1.3357  0.4293
 3294TIP3   OH234076   6.461   1.172  17.827  0.0218 -0.0982  0.8011
 3294TIP3    H134077   6.502   1.109  17.886  0.9488  1.3875  1.8119
 3294TIP3    H234078   6.369   1.146  17.825  0.2377 -1.0220  1.8103
 3295TIP3   OH234079   2.540   7.070  17.894 -0.9144 -0.7662  0.1234
 3295TIP3    H134080   2.513   6.987  17.934 -2.0423 -1.3617 -1.7356
 3295TIP3    H234081   2.483   7.136  17.933 -1.7085 -1.2730 -0.1603
 3296TIP3   OH234082   1.899   6.359  18.055  0.3079 -1.0790 -0.0099
 3296TIP3    H134083   1.863   6.372  18.143  0.3614  0.6034 -0.2084
 3296TIP3    H234084   1.984   6.318  18.070 -0.4540 -2.5050  0.6019
 3297TIP3   OH234085   3.940   2.302  18.347 -0.3976 -0.1682  0.0893
 3297TIP3    H134086   3.866   2.317  18.288 -0.7581 -2.5120 -0.1484
 3297TIP3    H234087   3.972   2.389  18.369 -1.3664  0.8253 -2.1720
 3298TIP3   OH234088   6.775   0.270  18.900 -0.2813 -0.6522 -0.8836
 3298TIP3    H134089   6.706   0.222  18.854  1.5807 -1.9243 -2.5678
 3298TIP3    H234090   6.749   0.362  18.894 -1.8816 -1.0987 -1.2978
 3299TIP3   OH234091   1.744   7.028  18.844 -0.2659 -0.3968  0.0347
 3299TIP3    H134092   1.832   7.011  18.878  0.2282  0.6303 -0.6604
 3299TIP3    H234093   1.726   6.956  18.784  0.6830  0.1028 -0.8736
 3300TIP3   OH234094   4.303   5.579  18.820 -0.1244 -0.0474 -0.2577
 3300TIP3    H134095   4.337   5.538  18.740  0.0825  0.6137 -0.5255
 3300TIP3    H234096   4.219   5.616  18.794  0.2819  0.8210 -0.3878
 3301TIP3   OH234097   4.636   5.196  18.573 -0.0903  0.2566  0.1131
 3301TIP3    H134098   4.710   5.200  18.512 -0.0263 -0.5010  0.1331
 3301TIP3    H234099   4.598   5.109  18.559 -1.0958  0.7020 -0.0303
 3302TIP3   OH234100   4.080   2.208  18.812  0.3205  0.5377 -0.1492
 3302TIP3    H134101   4.043   2.230  18.726  1.1078 -1.3575 -1.0516
 3302TIP3    H234102   4.010   2.161  18.857 -0.4950  2.5294  0.7692
 3303TIP3   OH234103   3.998   2.408  17.301  0.2616  0.3500  0.1598
 3303TIP3    H134104   3.951   2.461  17.365  0.5930  0.6566  0.1502
 3303TIP3    H234105   4.085   2.448  17.295  0.1562  0.4803 -0.6642
 3304TIP3   OH234106   4.717   4.374  17.374 -0.3373 -0.6289 -0.4912
 3304TIP3    H134107   4.751   4.356  17.286 -0.4056  1.0134 -0.8943
 3304TIP3    H234108   4.752   4.461  17.395 -2.6537  0.2734 -0.1110
 3305TIP3   OH234109   5.689   2.422  16.934 -0.6376  0.1900  0.2498
 3305TIP3    H134110   5.612   2.374  16.965 -0.5098  0.7903  1.5795
 3305TIP3    H234111   5.758   2.356  16.930 -1.4746 -0.6453 -2.2341
 3306TIP3   OH234112   0.873   0.370  18.970  0.1043 -0.2080 -0.2941
 3306TIP3    H134113   0.799   0.318  18.939 -0.5949  0.6947 -0.1921
 3306TIP3    H234114   0.840   0.460  18.969  0.1884 -0.0605  2.5562
 3307TIP3   OH234115   2.440   6.820  17.990 -0.1043  0.0464 -0.3047
 3307TIP3    H134116   2.483   6.735  17.993 -0.1920  0.0200  0.9867
 3307TIP3    H234117   2.435   6.848  18.082  0.3485  1.6636 -0.7319
 3308TIP3   OH234118   1.484   7.029  17.786  0.3734 -0.0833  0.1475
 3308TIP3    H134119   1.447   7.117  17.791 -2.8379 -0.7679 -4.6211
 3308TIP3    H234120   1.568   7.041  17.742 -0.5408  0.6231 -1.4941
 3309TIP3   OH234121   3.171   5.599  18.580 -0.0548  0.3108 -0.0372
 3309TIP3    H134122   3.236   5.535  18.551  0.4477  0.3143  1.0644
 3309TIP3    H234123   3.114   5.551  18.640 -0.7711  0.4446 -0.5920
 3310TIP3   OH234124   2.459   7.336  18.951  0.3260  0.5670  0.6572
 3310TIP3    H134125   2.441   7.419  18.907 -0.5018  0.3546  0.5622
 3310TIP3    H234126   2.513   7.287  18.889 -1.5550 -0.0839 -0.5819
 3311TIP3   OH234127   4.784   7.237  17.114 -0.2635  0.1330  0.3805
 3311TIP3    H134128   4.737   7.286  17.046 -0.4100  0.0775  0.4414
 3311TIP3    H234129   4.715   7.190  17.161 -0.0798 -0.4946  0.0340
 3312TIP3   OH234130   0.917   5.547  16.467 -0.3374 -0.7304  0.0797
 3312TIP3    H134131   0.967   5.545  16.386 -0.6222 -2.5429 -0.0975
 3312TIP3    H234132   0.855   5.619  16.456 -0.7458 -1.2938 -1.5537
 3313TIP3   OH234133   3.994   4.677  17.941  0.1984 -0.4212 -0.4153
 3313TIP3    H134134   3.998   4.767  17.909 -0.9088 -0.0148  0.5188
 3313TIP3    H234135   4.066   4.671  18.004  1.0057 -0.5583 -1.3364
 3314TIP3   OH234136   5.700   4.287  18.067 -0.3799 -0.0826 -0.1019
 3314TIP3    H134137   5.624   4.231  18.084 -2.7387  2.2860 -1.9989
 3314TIP3    H234138   5.663   4.368  18.032  2.9046  2.2285  1.2548
 3315TIP3   OH234139   6.607   2.046  18.284 -0.2864  0.0012 -0.4240
 3315TIP3    H134140   6.548   2.084  18.219 -1.6307 -0.4565  0.4883
 3315TIP3    H234141   6.559   1.971  18.319  1.6907 -1.6497 -1.1079
 3316TIP3   OH234142   6.928   7.421  19.199 -0.0145  0.1110  0.4567
 3316TIP3    H134143   6.890   7.349  19.249 -0.8441  0.3651  0.2077
 3316TIP3    H234144   6.857   7.484  19.190  0.2766  0.3013 -0.6048
 3317TIP3   OH234145   1.549   6.454  17.361 -0.5858 -0.0356 -0.2365
 3317TIP3    H134146   1.571   6.379  17.306 -0.0676  0.8582 -1.2681
 3317TIP3    H234147   1.603   6.443  17.439  1.7895  0.8377 -1.6750
 3318TIP3   OH234148   1.365   3.871  16.325  0.1476 -0.4558  0.2852
 3318TIP3    H134149   1.435   3.840  16.382 -0.0229 -0.7620  0.3366
 3318TIP3    H234150   1.372   3.817  16.247 -1.2819 -1.9415  1.1023
 3319TIP3   OH234151   2.334   6.275  18.593 -0.0141  0.3137 -0.2042
 3319TIP3    H134152   2.422   6.304  18.569 -0.1849  0.5066 -0.6132
 3319TIP3    H234153   2.286   6.276  18.510 -0.2266 -0.4222 -0.0936
 3320TIP3   OH234154   5.863   6.847  19.345 -0.2140  0.2398  0.4171
 3320TIP3    H134155   5.771   6.853  19.371 -0.6771 -0.7227 -0.8903
 3320TIP3    H234156   5.867   6.892  19.261  0.6280  0.6812  0.6783
 3321TIP3   OH234157   6.019   5.038  17.276  1.0373 -0.0386  0.0420
 3321TIP3    H134158   6.039   4.946  17.259 -0.5406 -0.2155 -1.1337
 3321TIP3    H234159   5.923   5.040  17.282  0.9998  1.6364 -0.6534
 3322TIP3   OH234160   4.010   4.564  17.502  0.0236  0.2767  0.2391
 3322TIP3    H134161   3.956   4.530  17.574  0.7596  0.0770  0.7126
 3322TIP3    H234162   3.948   4.582  17.432 -0.5914 -0.4730  0.5719
 3323TIP3   OH234163   0.613   0.226  18.692 -0.0801 -0.2321  0.5072
 3323TIP3    H134164   0.634   0.194  18.780  0.4745  0.6652  0.7158
 3323TIP3    H234165   0.689   0.202  18.639 -0.1002 -0.1480  0.4410
 3324TIP3   OH234166   3.734   6.060  17.178  0.0388 -0.9217 -0.1489
 3324TIP3    H134167   3.756   6.150  17.151  0.3294 -0.7627  0.5857
 3324TIP3    H234168   3.730   6.011  17.097  0.9082 -0.4582 -0.4913
 3325TIP3   OH234169   6.053   0.734  17.887  0.5039 -0.1512 -0.0515
 3325TIP3    H134170   6.082   0.644  17.876 -2.3378 -1.3243  1.1852
 3325TIP3    H234171   6.083   0.759  17.975  1.9441  0.4557 -0.6745
 3326TIP3   OH234172   2.850   5.260  18.889 -0.2282  0.1339  0.7175
 3326TIP3    H134173   2.876   5.208  18.813 -0.4927  1.9808 -0.7159
 3326TIP3    H234174   2.784   5.206  18.932 -0.1543 -0.9339 -0.4198
 3327TIP3   OH234175   1.422   6.418  17.703 -0.3091  1.1069  0.3900
 3327TIP3    H134176   1.484   6.440  17.772 -1.5269  2.9379  0.9924
 3327TIP3    H234177   1.429   6.490  17.641  1.0819 -0.7284 -1.7071
 3328TIP3   OH234178   7.438   3.987  17.108  0.0966  0.5748  0.1375
 3328TIP3    H134179   7.511   4.044  17.129 -0.5483  1.4329  0.1307
 3328TIP3    H234180   7.435   3.986  17.012 -0.1071  0.8223  0.1395
 3329TIP3   OH234181   2.320   4.989  17.380  0.7482 -0.6802  0.0143
 3329TIP3    H134182   2.395   5.003  17.322  0.1276 -0.8652 -0.8403
 3329TIP3    H234183   2.360   4.969  17.465  1.6958  2.9479  0.5917
 3330TIP3   OH234184   4.297   7.183  18.290 -0.4060  0.1408 -0.1806
 3330TIP3    H134185   4.288   7.189  18.195  0.2228 -2.9858 -0.5652
 3330TIP3    H234186   4.220   7.133  18.318 -1.2702  2.1160  1.2101
 3331TIP3   OH234187   2.084   0.007  17.270 -1.1587 -0.3460  0.0785
 3331TIP3    H134188   2.079  -0.053  17.197 -0.7842  0.8610 -0.9817
 3331TIP3    H234189   2.178   0.027  17.278 -1.1305 -0.8840  1.2455
 3332TIP3   OH234190   2.669   2.797  17.854 -0.7910 -0.0893 -0.2168
 3332TIP3    H134191   2.714   2.844  17.784 -0.7554  0.0808 -0.0806
 3332TIP3    H234192   2.712   2.826  17.934 -1.2530  0.2116 -0.0669
 3333TIP3   OH234193   7.616   3.531  19.252 -0.1033 -0.2337  0.5026
 3333TIP3    H134194   7.649   3.616  19.224 -2.2868 -0.2505 -2.6518
 3333TIP3    H234195   7.685   3.469  19.228  0.2000  0.3202 -0.0592
 3334TIP3   OH234196   2.533   3.065  16.606  0.7363 -0.3903  0.3936
 3334TIP3    H134197   2.511   2.979  16.641  0.3680  0.9884  4.0051
 3334TIP3    H234198   2.453   3.116  16.614  1.0264  0.4611 -1.3908
 3335TIP3   OH234199   6.595   0.075  18.500 -0.2511 -0.7728 -0.0460
 3335TIP3    H134200   6.618   0.010  18.566 -1.8636  0.5885  1.9882
 3335TIP3    H234201   6.534   0.029  18.442  0.1501 -1.6155  0.1822
 3336TIP3   OH234202   6.863   5.028  18.618  0.3668  0.3701 -0.0641
 3336TIP3    H134203   6.895   5.051  18.531 -0.6700  2.0707 -0.0369
 3336TIP3    H234204   6.919   5.078  18.678 -0.1740  0.7529  0.1305
 3337TIP3   OH234205   7.092   1.187  18.789 -0.0114  0.0948  0.6172
 3337TIP3    H134206   7.111   1.154  18.701  4.0591  3.1852  0.0277
 3337TIP3    H234207   7.037   1.264  18.774  1.3628  1.1161  0.5489
 3338TIP3   OH234208   7.225   7.280  19.196  0.3687  0.1414  0.2524
 3338TIP3    H134209   7.170   7.209  19.163 -0.3626  0.4798  0.7044
 3338TIP3    H234210   7.163   7.340  19.240  1.1439  0.3103  1.1564
 3339TIP3   OH234211   2.371   5.296  16.606  0.0727  0.1081  0.0097
 3339TIP3    H134212   2.372   5.332  16.694  0.3709 -2.8414  1.3132
 3339TIP3    H234213   2.462   5.268  16.591 -0.4245 -1.4261 -0.2982
 3340TIP3   OH234214   0.359   6.320  18.901 -0.2059  0.0564  0.2772
 3340TIP3    H134215   0.279   6.351  18.943 -0.5622  0.9819 -1.0166
 3340TIP3    H234216   0.348   6.345  18.809  0.8159 -1.3400 -0.2435
 3341TIP3   OH234217   5.546   6.054  17.448  0.4253  0.9432 -0.0775
 3341TIP3    H134218   5.637   6.025  17.452 -0.1136 -0.8419  0.4416
 3341TIP3    H234219   5.547   6.132  17.393  2.2116  0.7333 -0.3776
 3342TIP3   OH234220   1.570   0.946  18.254  1.0505 -0.1147 -0.6619
 3342TIP3    H134221   1.577   0.853  18.231 -1.4709 -0.1726 -1.5809
 3342TIP3    H234222   1.618   0.992  18.185  1.6756 -0.7014 -0.6189
 3343TIP3   OH234223   4.608   3.571  19.109  0.8350 -0.1497  0.1030
 3343TIP3    H134224   4.584   3.542  19.197  0.1317 -0.0024 -0.0356
 3343TIP3    H234225   4.607   3.492  19.055  0.6485 -0.1447  0.0980
 3344TIP3   OH234226   1.381   4.010  16.666 -0.0624  0.0677  0.3738
 3344TIP3    H134227   1.372   4.101  16.639 -1.5730 -0.3723 -0.7886
 3344TIP3    H234228   1.441   3.971  16.602 -0.0594  0.0602  0.3801
 3345TIP3   OH234229   4.177   4.576  18.396  0.3060 -0.2744 -0.2663
 3345TIP3    H134230   4.204   4.496  18.440  0.3609 -0.8044 -1.2410
 3345TIP3    H234231   4.082   4.579  18.407  0.2847 -0.5592 -0.3686
 3346TIP3   OH234232   5.617   5.101  19.314 -0.3496  0.0783  0.4536
 3346TIP3    H134233   5.611   5.069  19.404 -0.5663  0.6887  0.6549
 3346TIP3    H234234   5.706   5.078  19.287 -0.8594 -1.7755  0.1727
 3347TIP3   OH234235   3.422   6.827  19.062 -0.3151  0.3376 -0.2610
 3347TIP3    H134236   3.443   6.882  19.137 -1.7528  0.2170  0.2654
 3347TIP3    H234237   3.347   6.775  19.090  0.2537 -1.0306 -1.1693
 3348TIP3   OH234238   2.711   6.379  17.063  0.2200  0.5893  0.3139
 3348TIP3    H134239   2.792   6.417  17.029  0.2330 -0.7449 -1.2565
 3348TIP3    H234240   2.739   6.316  17.130  0.4123  0.7578  0.3909
 3349TIP3   OH234241   0.596   1.065  18.083 -0.3315  0.2181  0.0696
 3349TIP3    H134242   0.524   1.047  18.022 -1.6411 -1.0167  1.8981
 3349TIP3    H234243   0.642   1.140  18.044 -0.6839 -0.9058 -2.7442
 3350TIP3   OH234244   3.728   5.497  17.411 -0.2285 -0.3833 -0.3337
 3350TIP3    H134245   3.703   5.533  17.326 -1.6812 -0.0572  0.2014
 3350TIP3    H234246   3.650   5.449  17.440  0.5127 -1.1307  0.4798
 3351TIP3   OH234247   0.209   7.465  17.704  0.5220  0.1728  0.7267
 3351TIP3    H134248   0.277   7.476  17.638  0.5164 -0.0953  0.6764
 3351TIP3    H234249   0.133   7.434  17.655 -0.0905  1.8616  0.5464
 3352TIP3   OH234250   2.671   4.478  17.628  0.0031 -0.4247  0.4146
 3352TIP3    H134251   2.705   4.438  17.708  1.9512  0.4672  0.0856
 3352TIP3    H234252   2.742   4.534  17.597 -1.0506 -0.0482 -1.4612
 3353TIP3   OH234253   0.432   3.890  18.801 -0.2085 -0.4717  0.2078
 3353TIP3    H134254   0.452   3.956  18.734 -2.4533  1.6396  1.4311
 3353TIP3    H234255   0.381   3.824  18.755  0.2946 -0.2753 -0.6453
 3354TIP3   OH234256   6.091   1.769  18.876 -0.4712 -0.1174 -0.0854
 3354TIP3    H134257   6.010   1.757  18.825 -0.7099 -0.6876  0.4177
 3354TIP3    H234258   6.081   1.855  18.916 -1.0729 -0.3979  0.3922
 3355TIP3   OH234259   2.133   2.824  19.082 -0.0419 -0.4509 -0.0073
 3355TIP3    H134260   2.139   2.731  19.103 -0.4746 -0.3082  0.7995
 3355TIP3    H234261   2.060   2.855  19.136 -0.3839  0.1981 -0.8306
 3356TIP3   OH234262   4.984   1.972  18.897 -0.1785  0.2022 -0.0314
 3356TIP3    H134263   4.970   1.881  18.920  0.2104 -0.0505 -0.7593
 3356TIP3    H234264   4.997   2.016  18.981  0.1785 -0.5121  0.2993
 3357TIP3   OH234265   2.774   2.989  18.514 -0.6889  0.0440  0.2575
 3357TIP3    H134266   2.848   2.935  18.485  1.9611  1.1762  4.1818
 3357TIP3    H234267   2.811   3.076  18.526 -3.3482  1.2965  0.0295
 3358TIP3   OH234268   5.846   2.209  16.860  0.4415  0.1088  0.1650
 3358TIP3    H134269   5.803   2.174  16.782 -0.6208  1.6228  0.0407
 3358TIP3    H234270   5.920   2.150  16.874  0.0492 -0.8120 -1.3641
 3359TIP3   OH234271   0.788   1.238  17.617 -0.3681 -0.0480 -0.3350
 3359TIP3    H134272   0.752   1.327  17.610  1.4318  0.8775  1.1698
 3359TIP3    H234273   0.882   1.250  17.605 -0.1273 -1.8320 -0.4533
 3360TIP3   OH234274   6.568   6.564  17.695 -0.1864 -0.4038  0.3404
 3360TIP3    H134275   6.578   6.585  17.788 -0.4187  0.7510  0.1220
 3360TIP3    H234276   6.658   6.558  17.662 -0.0804  1.3623  0.2017
 3361TIP3   OH234277   5.324   3.585  16.598  0.2019  0.3725  0.1891
 3361TIP3    H134278   5.275   3.507  16.626 -0.6737  1.0549  0.6248
 3361TIP3    H234279   5.415   3.556  16.592 -0.1539 -0.7520  0.0701
 3362TIP3   OH234280   3.171   2.653  18.321  0.2156  0.7762 -0.0449
 3362TIP3    H134281   3.160   2.598  18.243  1.8410 -2.6631  1.9380
 3362TIP3    H234282   3.265   2.670  18.326  0.0454  1.5398  0.8272
 3363TIP3   OH234283   6.723   4.517  17.278 -0.0521 -0.0643  0.1216
 3363TIP3    H134284   6.724   4.566  17.360  1.3773  0.3708 -0.1354
 3363TIP3    H234285   6.815   4.492  17.264  0.2268  2.1009 -2.6658
 3364TIP3   OH234286   5.497   0.878  17.186 -0.3085 -0.1106  0.2059
 3364TIP3    H134287   5.536   0.806  17.236 -0.0175 -0.7213 -0.8772
 3364TIP3    H234288   5.476   0.840  17.101 -0.2460  1.0680 -0.3540
 3365TIP3   OH234289   3.561   5.024  19.186  0.0871  0.1964  0.5667
 3365TIP3    H134290   3.536   4.950  19.242  1.0146 -0.3573  0.2608
 3365TIP3    H234291   3.584   5.094  19.247  0.3222 -0.1455  0.8747
 3366TIP3   OH234292   5.670   7.517  17.692  0.3613  0.0917  0.6455
 3366TIP3    H134293   5.728   7.471  17.632  1.3631  0.4257  1.3350
 3366TIP3    H234294   5.664   7.606  17.657 -1.5523 -0.5085 -0.6700
 3367TIP3   OH234295   6.579   3.290  17.723 -0.9351  0.5679  0.1500
 3367TIP3    H134296   6.521   3.327  17.655 -0.2941  0.4942 -0.4451
 3367TIP3    H234297   6.633   3.227  17.676  1.4448  2.4904  0.1267
 3368TIP3   OH234298   4.608   2.865  17.591  0.4777 -0.2824 -0.4388
 3368TIP3    H134299   4.603   2.917  17.671 -2.3314 -0.2773 -0.4871
 3368TIP3    H234300   4.627   2.929  17.522 -0.5044  0.3343 -0.1698
 3369TIP3   OH234301   4.983   5.295  17.625 -0.7089  0.9578  0.0313
 3369TIP3    H134302   5.073   5.293  17.659 -0.4460  2.9041 -0.4588
 3369TIP3    H234303   4.989   5.348  17.546 -2.1574  0.3881 -0.4873
 3370TIP3   OH234304   1.755   1.354  16.437  0.2405  0.1022 -0.3058
 3370TIP3    H134305   1.746   1.445  16.411  0.9732  0.0701 -0.6894
 3370TIP3    H234306   1.693   1.307  16.380  1.2999  0.1247 -1.5219
 3371TIP3   OH234307   3.892   4.161  17.296 -0.3237 -0.3689 -0.6770
 3371TIP3    H134308   3.970   4.161  17.241  0.0717 -3.0984 -0.2834
 3371TIP3    H234309   3.829   4.215  17.249  1.4887  1.2252 -1.4210
 3372TIP3   OH234310   2.948   6.332  18.659  0.2208  0.4498 -0.4311
 3372TIP3    H134311   2.985   6.289  18.582 -1.0650 -1.5168 -0.0483
 3372TIP3    H234312   2.866   6.285  18.675 -0.5972  2.2071  0.8881
 3373TIP3   OH234313   2.019   5.522  18.727 -0.6438 -0.5142  0.3022
 3373TIP3    H134314   2.044   5.444  18.677  4.6775 -0.7465  2.6391
 3373TIP3    H234315   1.990   5.487  18.812 -0.9599 -0.0032  0.4054
 3374TIP3   OH234316   6.651   0.388  17.981  0.1835  0.4054 -0.8113
 3374TIP3    H134317   6.745   0.393  17.996  0.2135  1.5121 -1.2434
 3374TIP3    H234318   6.623   0.310  18.028  0.9785  1.2088  1.0986
 3375TIP3   OH234319   0.162   2.581  18.651 -0.1835  0.6349 -0.1281
 3375TIP3    H134320   0.164   2.677  18.658 -0.3326  0.7257 -1.1300
 3375TIP3    H234321   0.069   2.560  18.640 -0.4318  0.1646  2.2856
 3376TIP3   OH234322   6.469   0.930  17.428 -0.9115  0.0248  0.2089
 3376TIP3    H134323   6.465   0.933  17.523 -2.6891 -0.4618  0.1907
 3376TIP3    H234324   6.418   0.852  17.404  0.9856 -0.8794 -1.0871
 3377TIP3   OH234325   2.446   1.288  17.106 -0.2624 -0.3490  0.3981
 3377TIP3    H134326   2.507   1.361  17.099  0.4682 -0.9469  0.4141
 3377TIP3    H234327   2.499   1.215  17.139 -0.6811 -1.2444 -0.8042
 3378TIP3   OH234328   4.198   6.302  18.969 -0.2509  0.1191 -0.0627
 3378TIP3    H134329   4.152   6.219  18.986  1.5001 -1.1147 -1.0098
 3378TIP3    H234330   4.290   6.277  18.962  0.5208  2.4118  1.1653
 3379TIP3   OH234331   2.484   5.333  17.961  0.0036  0.2559  0.4732
 3379TIP3    H134332   2.544   5.334  18.036  0.5931  1.2485  0.0050
 3379TIP3    H234333   2.450   5.422  17.956 -1.6175 -0.3061  0.7855
 3380TIP3   OH234334   0.815   5.880  18.362  0.0601 -0.3092 -0.0923
 3380TIP3    H134335   0.827   5.795  18.318  3.0444  0.4662 -1.0331
 3380TIP3    H234336   0.839   5.944  18.296  0.3276  1.1352  1.3486
 3381TIP3   OH234337   5.104   3.829  18.458  0.0382 -0.6472 -0.1482
 3381TIP3    H134338   5.042   3.760  18.483 -0.7688  0.1625  0.1445
 3381TIP3    H234339   5.057   3.911  18.476  0.9696 -0.0197 -0.5099
 3382TIP3   OH234340   6.612   2.704  17.509 -0.2306 -0.0353  0.3983
 3382TIP3    H134341   6.585   2.715  17.418  0.5925 -0.3640  0.1068
 3382TIP3    H234342   6.707   2.704  17.506 -0.1138 -3.2235  0.8265
 3383TIP3   OH234343   6.324   6.344  19.344 -0.1342 -0.3808  0.4336
 3383TIP3    H134344   6.254   6.377  19.400 -0.2583 -1.4528  0.9294
 3383TIP3    H234345   6.292   6.358  19.255 -0.1010  0.9787  0.6080
 3384TIP3   OH234346   5.761   2.901  17.254  0.2128 -0.0809 -0.2360
 3384TIP3    H134347   5.834   2.841  17.238  1.0428  0.6233  0.7089
 3384TIP3    H234348   5.784   2.980  17.205  0.2612  0.2541  0.3117
 3385TIP3   OH234349   1.944   2.100  18.514  0.2134  0.3591  0.2068
 3385TIP3    H134350   1.980   2.040  18.449 -0.5543  0.3274 -0.2049
 3385TIP3    H234351   1.989   2.183  18.498  1.3508 -0.1165  0.8439
 3386TIP3   OH234352   3.747   6.780  16.919 -0.0522  0.6141  0.0913
 3386TIP3    H134353   3.835   6.797  16.951 -1.0955  0.1208  3.6684
 3386TIP3    H234354   3.736   6.685  16.926 -0.4547  0.5041 -1.6375
 3387TIP3   OH234355   3.065   2.507  18.131  0.2319  0.1275  0.6121
 3387TIP3    H134356   3.090   2.417  18.110  1.1555  0.6226 -0.5866
 3387TIP3    H234357   2.988   2.524  18.077  0.1911  0.1279  0.6703
 3388TIP3   OH234358   5.571   7.100  17.384 -0.0311 -0.0967 -0.2603
 3388TIP3    H134359   5.551   7.030  17.322 -0.4835  0.0389 -0.2745
 3388TIP3    H234360   5.485   7.129  17.415  0.2137 -0.5696  0.8957
 3389TIP3   OH234361   2.278   6.016  17.348  0.4508  0.1704  0.5613
 3389TIP3    H134362   2.343   6.082  17.324  0.1168 -0.0580 -1.0824
 3389TIP3    H234363   2.315   5.934  17.315 -1.4143  0.2723 -2.1011
 3390TIP3   OH234364   5.647   0.192  17.548  0.0361 -0.2580 -0.0834
 3390TIP3    H134365   5.631   0.215  17.640  1.9906  0.6685  0.0816
 3390TIP3    H234366   5.569   0.223  17.501 -1.8400 -2.3488  1.4222
 3391TIP3   OH234367   3.419   2.674  18.203  0.2594 -0.0324  0.0322
 3391TIP3    H134368   3.463   2.629  18.131  0.2898  0.6404 -0.3839
 3391TIP3    H234369   3.374   2.748  18.161 -0.1383  0.0774  0.6368
 3392TIP3   OH234370   0.781   3.730  18.144  0.2913  0.2382 -0.0894
 3392TIP3    H134371   0.844   3.787  18.189  1.0330  0.3485 -1.2394
 3392TIP3    H234372   0.828   3.646  18.135 -0.6383 -0.4654  1.2190
 3393TIP3   OH234373   5.498   4.413  18.275 -0.2873  0.3001 -0.0175
 3393TIP3    H134374   5.550   4.477  18.226  3.8789 -2.1813  0.6432
 3393TIP3    H234375   5.497   4.447  18.365 -2.4103  1.7110 -0.5025
 3394TIP3   OH234376   0.227   4.485  17.603  0.6383 -0.2877  0.5954
 3394TIP3    H134377   0.147   4.461  17.649  0.3316  1.1926  0.8843
 3394TIP3    H234378   0.246   4.575  17.631  0.8466  0.4148 -1.5828
 3395TIP3   OH234379   0.767   2.889  17.868 -0.1333  0.0541 -0.1962
 3395TIP3    H134380   0.755   2.799  17.898 -1.2941  0.3406  0.2629
 3395TIP3    H234381   0.856   2.892  17.834  0.2997 -0.9761  0.7987
 3396TIP3   OH234382   4.378   6.155  16.618  0.1010  0.3389  0.3198
 3396TIP3    H134383   4.407   6.239  16.654  1.9583  0.1835 -0.6951
 3396TIP3    H234384   4.443   6.133  16.552 -0.6863 -1.6245  0.1200
 3397TIP3   OH234385   2.380   2.898  18.953  1.3796 -0.7167  0.3495
 3397TIP3    H134386   2.433   2.819  18.945  1.4645 -0.6400  0.1480
 3397TIP3    H234387   2.300   2.869  18.999  2.3473 -0.4918  2.2743
 3398TIP3   OH234388   4.838   3.174  17.902  0.6022 -0.5847 -0.0704
 3398TIP3    H134389   4.914   3.141  17.854 -0.2942 -1.1768 -1.1233
 3398TIP3    H234390   4.818   3.106  17.966  0.0220 -1.1689 -0.8501
 3399TIP3   OH234391   1.208   5.693  17.784 -0.3023  0.4031  0.4123
 3399TIP3    H134392   1.116   5.667  17.774  0.0345 -0.8718  0.3908
 3399TIP3    H234393   1.236   5.716  17.696 -0.5150  0.4629  0.3599
 3400TIP3   OH234394   4.296   7.296  19.193 -0.0490 -0.3034  0.4220
 3400TIP3    H134395   4.290   7.392  19.202 -0.3908 -0.3227  0.4105
 3400TIP3    H234396   4.278   7.263  19.282  0.9333 -0.3248  0.6188
 3401TIP3   OH234397   4.596   3.080  18.148  0.8339 -0.2899  0.1198
 3401TIP3    H134398   4.508   3.052  18.122  0.3078  0.4638  1.0323
 3401TIP3    H234399   4.654   3.019  18.103 -0.1133 -0.2510 -1.2018
 3402TIP3   OH234400   4.428   2.544  18.705  0.6431 -0.0160  0.3700
 3402TIP3    H134401   4.454   2.611  18.641  0.8348 -0.0502  0.4113
 3402TIP3    H234402   4.333   2.537  18.695  0.8676 -1.4338 -1.3166
 3403TIP3   OH234403   0.595   5.536  19.152  0.4075  0.7445 -0.6680
 3403TIP3    H134404   0.668   5.594  19.174 -0.0978  0.1402  3.3643
 3403TIP3    H234405   0.524   5.563  19.209 -1.2598 -1.1921 -1.6677
 3404TIP3   OH234406   1.033   7.062  18.383 -0.2335 -0.1883  0.2151
 3404TIP3    H134407   1.057   7.009  18.307  0.7623 -0.3667  0.6527
 3404TIP3    H234408   0.965   7.121  18.349 -1.8580 -2.1575 -0.1094
 3405TIP3   OH234409   1.601   5.259  17.848 -0.4645 -0.1053  0.5713
 3405TIP3    H134410   1.624   5.197  17.917 -0.1466 -1.1209 -0.4208
 3405TIP3    H234411   1.522   5.222  17.808  1.1227 -1.3225 -1.7051
 3406TIP3   OH234412   4.924   0.838  17.067 -0.0113  0.1668  0.4797
 3406TIP3    H134413   5.018   0.850  17.080 -0.2195  1.3275  1.1235
 3406TIP3    H234414   4.914   0.817  16.974  0.9703 -1.1443  0.6610
 3407TIP3   OH234415   5.362   0.073  17.575  0.4337 -0.1130 -0.3643
 3407TIP3    H134416   5.376   0.106  17.664  0.8384 -0.3317 -0.3461
 3407TIP3    H234417   5.267   0.062  17.569  0.3754  0.2070 -0.0695
 3408TIP3   OH234418   1.024   0.130  18.115 -0.0734 -0.5417  0.1057
 3408TIP3    H134419   0.953   0.099  18.171  0.4359 -0.2707  0.9173
 3408TIP3    H234420   1.089   0.060  18.117  0.4491 -0.0485  0.7889
 3409TIP3   OH234421   0.828   5.297  17.931 -0.0625  0.5759  0.8434
 3409TIP3    H134422   0.842   5.309  18.025 -0.7020 -0.1568  1.0403
 3409TIP3    H234423   0.752   5.351  17.911 -0.9247 -0.5179  1.0830
 3410TIP3   OH234424   2.511   3.659  17.171  0.0380  0.1719 -0.1176
 3410TIP3    H134425   2.544   3.731  17.118  1.9668 -1.5799 -1.4396
 3410TIP3    H234426   2.571   3.654  17.246  0.8225 -0.9331 -0.7938
 3411TIP3   OH234427   1.064   3.503  18.992  0.1056 -0.0220 -0.1953
 3411TIP3    H134428   1.063   3.525  18.898  0.1424 -1.7038 -0.6203
 3411TIP3    H234429   1.015   3.421  18.998  0.7859 -0.3547  1.1534
 3412TIP3   OH234430   5.601   0.679  17.348 -0.1062 -0.2283 -0.1638
 3412TIP3    H134431   5.571   0.697  17.437 -0.3858  1.0333 -0.4925
 3412TIP3    H234432   5.575   0.588  17.331 -0.1391 -0.4422  0.9900
 3413TIP3   OH234433   3.032   3.489  16.858 -0.4767 -0.0687 -0.4289
 3413TIP3    H134434   3.114   3.485  16.808  0.3046 -1.2617  0.8756
 3413TIP3    H234435   2.983   3.412  16.829  0.1563 -0.9979  0.8674
 3414TIP3   OH234436   2.557   2.566  16.838  0.3565 -0.2269  0.2748
 3414TIP3    H134437   2.500   2.501  16.878  0.2767 -0.9088 -0.8933
 3414TIP3    H234438   2.634   2.517  16.809  0.2008  0.1363 -0.8239
 3415TIP3   OH234439   1.007   3.688  17.395 -0.3714  0.1185  0.1820
 3415TIP3    H134440   1.060   3.712  17.320  0.8564 -1.5108  0.4853
 3415TIP3    H234441   0.952   3.616  17.364  0.4204 -0.8320  0.8957
 3416TIP3   OH234442   4.056   6.683  19.243 -0.0737  0.4377  0.2540
 3416TIP3    H134443   4.140   6.728  19.247 -0.1571  0.5496  0.8156
 3416TIP3    H234444   3.991   6.752  19.231 -0.0250  0.2864 -1.0229
 3417TIP3   OH234445   7.057   6.811  19.043 -0.1231 -0.5964 -0.4732
 3417TIP3    H134446   7.115   6.735  19.033 -0.4091 -0.7772 -0.7862
 3417TIP3    H234447   6.978   6.787  18.994 -0.4027 -0.2893 -0.1726
 3418TIP3   OH234448   1.616   1.327  18.051 -0.5177  0.0186 -0.2202
 3418TIP3    H134449   1.617   1.420  18.030 -0.9537  0.0961  0.0922
 3418TIP3    H234450   1.654   1.284  17.974 -2.3577  0.2659 -1.3311
 3419TIP3   OH234451   5.411   5.627  17.665 -0.0272 -0.1407  0.3482
 3419TIP3    H134452   5.417   5.642  17.570  1.9953 -2.4756  0.0020
 3419TIP3    H234453   5.318   5.637  17.685 -0.5671  0.0454 -1.9544
 3420TIP3   OH234454   1.642   1.823  19.105  0.4585  0.3110 -0.1065
 3420TIP3    H134455   1.721   1.847  19.152 -0.4308 -1.0682  2.2843
 3420TIP3    H234456   1.671   1.764  19.036  1.3906 -2.9640  2.7927
 3421TIP3   OH234457   3.055   1.578  17.936  0.1171 -0.1650 -0.5066
 3421TIP3    H134458   3.009   1.604  17.856 -0.6825 -0.7725 -0.2567
 3421TIP3    H234459   3.108   1.503  17.910 -0.9613 -1.0427 -0.2475
 3422TIP3   OH234460   0.054   4.040  19.124 -0.2143 -0.0249  0.1979
 3422TIP3    H134461  -0.035   4.047  19.158 -0.2217  0.6106  0.0490
 3422TIP3    H234462   0.110   4.045  19.202 -0.2474  1.0752  0.1589
 3423TIP3   OH234463   0.749   4.430  18.352  0.5712 -0.1197  0.6065
 3423TIP3    H134464   0.764   4.417  18.258 -1.5795  1.1916  0.0396
 3423TIP3    H234465   0.664   4.390  18.368  1.1466 -0.7856  2.1521
 3424TIP3   OH234466   2.963   2.146  18.837 -0.3881  0.1043  0.0217
 3424TIP3    H134467   2.952   2.058  18.801  0.6260  0.3386 -0.8986
 3424TIP3    H234468   2.877   2.187  18.827 -0.7151 -0.5833 -0.0500
 3425TIP3   OH234469   4.885   6.703  18.918 -0.0129  0.4640 -0.5771
 3425TIP3    H134470   4.964   6.649  18.914 -0.2039  0.0132  1.2267
 3425TIP3    H234471   4.917   6.792  18.904  0.7780  0.2476 -0.2297
 3426TIP3   OH234472   3.456   7.079  17.718  0.5510  0.1100  0.2555
 3426TIP3    H134473   3.430   7.088  17.626  0.6777  0.3432  0.2407
 3426TIP3    H234474   3.397   7.138  17.765  0.9359  0.5155  0.2410
 3427TIP3   OH234475   2.347   5.441  19.282 -0.9465 -0.4914 -0.1386
 3427TIP3    H134476   2.369   5.511  19.343  0.2803 -1.6462  0.8130
 3427TIP3    H234477   2.431   5.400  19.261 -1.6456 -1.8266 -0.4809
 3428TIP3   OH234478   2.404   1.801  18.277  0.0145 -0.0228  0.9156
 3428TIP3    H134479   2.445   1.763  18.355 -0.7400  0.3492  1.5071
 3428TIP3    H234480   2.341   1.734  18.249 -0.6683  0.3989  1.4231
 3429TIP3   OH234481   4.747   4.359  17.857  0.5599 -0.1903  0.8414
 3429TIP3    H134482   4.693   4.285  17.829  1.3420 -0.8009  0.9406
 3429TIP3    H234483   4.825   4.355  17.802  0.7708  0.3533  1.0890
 3430TIP3   OH234484   3.498   6.550  17.557 -0.0894  0.0694  0.0433
 3430TIP3    H134485   3.512   6.644  17.560 -0.0182  0.0524  0.2988
 3430TIP3    H234486   3.509   6.521  17.648  0.8769 -0.3255 -0.1827
 3431TIP3   OH234487   6.096   0.407  18.209  0.2171  0.4937  0.0394
 3431TIP3    H134488   6.025   0.463  18.241  0.7296  0.2442  1.6973
 3431TIP3    H234489   6.131   0.366  18.288  0.7506 -1.1178 -0.9975
 3432TIP3   OH234490   0.047   1.826  17.052  0.2233 -0.2607  0.1623
 3432TIP3    H134491   0.047   1.836  17.147  1.5493 -0.2800  0.1746
 3432TIP3    H234492   0.128   1.780  17.032  0.1357  0.0625 -1.0196
 3433TIP3   OH234493   1.308   3.820  18.727  0.0065 -0.0006  0.1113
 3433TIP3    H134494   1.278   3.907  18.702 -1.4496 -0.3914  0.4188
 3433TIP3    H234495   1.385   3.805  18.672 -0.1818  1.1604 -0.5059
 3434TIP3   OH234496   6.544   2.055  19.307 -0.3799  0.4035 -0.9032
 3434TIP3    H134497   6.620   1.998  19.312 -1.2546 -0.7479 -0.4476
 3434TIP3    H234498   6.579   2.143  19.327  0.5895 -0.3129  0.8169
 3435TIP3   OH234499   0.589   0.448  17.599  0.3382 -0.2387  0.0529
 3435TIP3    H134500   0.681   0.465  17.621 -0.1842  1.5948  0.9989
 3435TIP3    H234501   0.593   0.400  17.516  2.1237  1.0457 -0.6816
 3436TIP3   OH234502   6.465   7.437  19.283  0.0474  0.1931 -0.0590
 3436TIP3    H134503   6.378   7.458  19.317  0.4442  1.0531  0.4418
 3436TIP3    H234504   6.517   7.416  19.361  0.3528 -0.0925 -0.3353
 3437TIP3   OH234505   6.013   6.404  19.189  0.6466  0.3876  0.0954
 3437TIP3    H134506   6.101   6.405  19.151  0.6866  0.6368  0.1896
 3437TIP3    H234507   6.028   6.392  19.282  0.6531  1.6950  0.2796
 3438TIP3   OH234508   0.638   6.893  16.757  0.3415 -0.1186  0.0123
 3438TIP3    H134509   0.716   6.890  16.703  1.1017 -1.2367  1.1176
 3438TIP3    H234510   0.603   6.804  16.755 -1.2547  0.4761 -0.9164
 3439TIP3   OH234511   3.110   1.157  18.256  0.4711  0.4864 -0.2845
 3439TIP3    H134512   3.197   1.190  18.233  0.4475  0.4905 -0.3703
 3439TIP3    H234513   3.064   1.232  18.293  0.7395  0.3082  0.4275
 3440TIP3   OH234514   1.644   1.647  18.451 -0.4414 -0.1667 -0.3432
 3440TIP3    H134515   1.571   1.629  18.392  0.2205 -1.3071 -0.8490
 3440TIP3    H234516   1.697   1.711  18.404 -0.8300  0.2571 -0.2100
 3441TIP3   OH234517   3.349   2.509  18.597 -0.0597 -0.5310  0.0394
 3441TIP3    H134518   3.371   2.489  18.688  2.0741 -1.6463 -0.6431
 3441TIP3    H234519   3.400   2.588  18.576 -1.0032  0.0739 -0.0432
 3442TIP3   OH234520   4.781   2.658  18.290  0.3350 -0.0384 -0.1069
 3442TIP3    H134521   4.814   2.610  18.214  0.5045  1.2173 -0.8498
 3442TIP3    H234522   4.687   2.667  18.274  0.7056  2.2109 -1.3525
 3443TIP3   OH234523   3.378   7.369  17.861 -0.1474  0.2203  0.0792
 3443TIP3    H134524   3.402   7.447  17.911 -1.6412  0.4355  0.5082
 3443TIP3    H234525   3.311   7.400  17.801 -0.1933 -0.5852 -0.2867
 3444TIP3   OH234526   3.051   7.260  18.074  0.4334  0.1477  0.0467
 3444TIP3    H134527   3.101   7.179  18.082  0.8631  0.1438 -2.0136
 3444TIP3    H234528   2.959   7.233  18.077  0.5352 -0.0870  1.8192
 3445TIP3   OH234529   7.426   1.338  17.317 -0.3683 -0.1168  0.3434
 3445TIP3    H134530   7.356   1.355  17.254 -0.2172 -2.6785 -0.6103
 3445TIP3    H234531   7.507   1.343  17.265  0.0468  1.0066  1.0578
 3446TIP3   OH234532   4.327   5.744  17.436 -0.4263  0.5145 -0.3888
 3446TIP3    H134533   4.372   5.827  17.449 -0.7023  0.9290 -1.8781
 3446TIP3    H234534   4.302   5.716  17.524 -1.0349  2.4070  0.0747
 3447TIP3   OH234535   7.350   3.613  19.235 -0.1549  0.2251  0.3682
 3447TIP3    H134536   7.436   3.596  19.272  0.1579  2.9799  1.0863
 3447TIP3    H234537   7.292   3.620  19.311 -1.0690 -1.5084 -0.1001
 3448TIP3   OH234538   6.758   0.526  19.102  0.1964  0.8280 -0.4252
 3448TIP3    H134539   6.773   0.593  19.036 -0.5843  1.2307 -0.1993
 3448TIP3    H234540   6.674   0.549  19.142  0.0163 -0.1630 -0.2004
 3449TIP3   OH234541   5.858   1.641  19.192  0.4154  0.2677  0.1034
 3449TIP3    H134542   5.772   1.602  19.206  0.1524  1.3384  1.7745
 3449TIP3    H234543   5.854   1.677  19.103 -0.4324 -0.7108 -0.2715
 3450TIP3   OH234544   0.473   5.212  18.794 -0.1799 -0.2052  0.3974
 3450TIP3    H134545   0.521   5.232  18.874  0.5676 -0.9226  0.1450
 3450TIP3    H234546   0.420   5.135  18.815 -1.2699  0.5926  0.6788
 3451TIP3   OH234547   5.261   5.939  18.588  0.1947 -0.1654  0.1192
 3451TIP3    H134548   5.263   6.003  18.659 -0.8151 -0.0582  0.0706
 3451TIP3    H234549   5.169   5.914  18.581 -0.1143  1.3006 -2.4099
 3452TIP3   OH234550   7.045   0.782  17.568 -0.1960 -0.0271 -0.3345
 3452TIP3    H134551   7.083   0.739  17.645  0.0191  0.8871  0.0989
 3452TIP3    H234552   7.095   0.748  17.494 -0.2630 -0.7663 -0.0405
 3453TIP3   OH234553   0.394   6.293  18.054  0.1897  0.7307  0.1213
 3453TIP3    H134554   0.439   6.237  18.117  0.9714  1.2166  0.0136
 3453TIP3    H234555   0.314   6.246  18.032  0.6137 -0.1184  0.3755
 3454TIP3   OH234556   3.556   1.974  16.846  0.2824 -0.7560  0.0372
 3454TIP3    H134557   3.596   2.049  16.891 -1.7514  0.5069 -0.1246
 3454TIP3    H234558   3.605   1.898  16.878  0.7981  0.3848  2.1823
 3455TIP3   OH234559   0.130   2.730  17.627 -0.4133 -0.6736 -0.2056
 3455TIP3    H134560   0.172   2.701  17.709 -0.7710  2.0778  1.0603
 3455TIP3    H234561   0.136   2.825  17.630 -0.5795 -0.4829 -3.3865
 3456TIP3   OH234562   1.018   1.229  19.051  0.5497 -0.4875 -0.1781
 3456TIP3    H134563   1.002   1.310  19.098 -0.2619 -0.5525 -0.3247
 3456TIP3    H234564   1.089   1.250  18.990  1.4978 -0.3655  0.9409
 3457TIP3   OH234565   4.624   3.116  18.447 -0.8037 -0.1453  0.2799
 3457TIP3    H134566   4.633   3.211  18.447  1.9717 -0.2953 -0.7147
 3457TIP3    H234567   4.609   3.093  18.355 -1.4347 -0.6891  0.5088
 3458TIP3   OH234568   4.461   5.693  16.486 -0.1792  0.3335  0.1839
 3458TIP3    H134569   4.495   5.610  16.519  1.5788  0.7268 -0.5077
 3458TIP3    H234570   4.536   5.753  16.493 -0.8364  1.3486 -1.1409
 3459TIP3   OH234571   2.847   4.436  19.483 -0.0638  0.3390  0.2992
 3459TIP3    H134572   2.893   4.519  19.499 -2.9141  2.2744 -0.8093
 3459TIP3    H234573   2.820   4.406  19.570  1.5099  0.1953  0.7673
 3460TIP3   OH234574   1.786   0.741  17.231 -0.1974 -0.3307  0.4541
 3460TIP3    H134575   1.775   0.820  17.284 -1.3662  0.1846 -0.5159
 3460TIP3    H234576   1.881   0.733  17.219 -0.0728  1.1260  0.3022
 3461TIP3   OH234577   1.894   3.289  17.821  0.5360 -0.3499  0.3606
 3461TIP3    H134578   1.920   3.318  17.909 -0.8823 -0.8720  0.9715
 3461TIP3    H234579   1.914   3.196  17.820 -1.0837 -0.7382  0.7998
 3462TIP3   OH234580   5.098   3.191  18.139 -0.2189  0.3236  0.1500
 3462TIP3    H134581   5.146   3.227  18.065 -1.4317  0.4050 -0.6112
 3462TIP3    H234582   5.042   3.262  18.169 -3.7503 -1.1786 -2.3003
 3463TIP3   OH234583   5.301   0.457  16.616  0.4498 -0.5700  0.8827
 3463TIP3    H134584   5.338   0.520  16.678  0.2758 -0.3421  0.7536
 3463TIP3    H234585   5.361   0.382  16.620  1.1880 -0.0192  0.3334
 3464TIP3   OH234586   1.149   2.735  18.816 -0.4590 -0.0356 -0.3740
 3464TIP3    H134587   1.171   2.784  18.737  1.5167 -1.4683 -0.8128
 3464TIP3    H234588   1.100   2.659  18.785 -0.3752 -0.1922 -0.1329
 3465TIP3   OH234589   5.023   4.269  17.290  0.7738 -0.5326 -0.0800
 3465TIP3    H134590   5.083   4.316  17.232  0.9730 -0.5865  0.0867
 3465TIP3    H234591   5.076   4.243  17.365  0.5082 -0.4415  0.1413
 3466TIP3   OH234592   6.113   2.284  17.071 -0.6379 -0.1699 -0.0071
 3466TIP3    H134593   6.026   2.323  17.080 -1.2106 -1.9338  4.5819
 3466TIP3    H234594   6.099   2.207  17.015 -1.6599  0.4499 -0.6343
 3467TIP3   OH234595   6.077   7.339  17.838  0.7582  0.1110  0.5380
 3467TIP3    H134596   6.040   7.314  17.753 -0.5675  1.5996  0.6357
 3467TIP3    H234597   6.008   7.388  17.881  2.1210  1.1684  1.6337
 3468TIP3   OH234598   1.748   6.412  18.308 -0.6578 -0.1860 -0.1575
 3468TIP3    H134599   1.803   6.389  18.382 -0.8243  1.4996  0.5418
 3468TIP3    H234600   1.687   6.339  18.299  1.1115 -1.6791 -0.4008
 3469TIP3   OH234601   7.483   7.083  18.291 -0.2764  0.2581  0.4323
 3469TIP3    H134602   7.544   7.023  18.248 -2.0991 -1.7717  0.5522
 3469TIP3    H234603   7.523   7.170  18.278  2.2954 -0.8783 -0.0010
 3470TIP3   OH234604   0.470   4.299  16.826 -0.0398  0.1050  0.5576
 3470TIP3    H134605   0.452   4.371  16.886 -0.4010 -0.7307  1.4927
 3470TIP3    H234606   0.449   4.220  16.877 -0.1915 -0.6348 -0.6190
 3471TIP3   OH234607   2.620   0.969  16.949  0.9127  0.0568  0.3421
 3471TIP3    H134608   2.647   1.060  16.946  1.1317  0.1155  2.5169
 3471TIP3    H234609   2.686   0.922  16.897 -0.3958  1.3102 -2.6492
 3472TIP3   OH234610   3.801   2.105  17.385  0.2013  0.0871 -0.2785
 3472TIP3    H134611   3.811   2.179  17.325 -1.3745  1.8204  1.4588
 3472TIP3    H234612   3.736   2.049  17.344 -1.0589  1.3907 -0.1478
 3473TIP3   OH234613   7.507   3.458  18.205 -0.2995 -0.2520  0.1643
 3473TIP3    H134614   7.464   3.440  18.121  1.3133 -0.4455 -0.6618
 3473TIP3    H234615   7.476   3.545  18.229 -0.7046 -0.1469 -0.6949
 3474TIP3   OH234616   3.221   6.002  17.385 -0.5155  0.3670 -0.3302
 3474TIP3    H134617   3.303   6.050  17.398 -0.0201 -0.4321 -0.4217
 3474TIP3    H234618   3.222   5.977  17.293  0.3936 -1.8289  0.2015
 3475TIP3   OH234619   0.928   1.450  19.187 -0.1915  0.2044 -0.3378
 3475TIP3    H134620   0.941   1.529  19.239  0.4974 -0.2579  0.2140
 3475TIP3    H234621   0.854   1.471  19.130 -0.6955  0.8790  0.5318
 3476TIP3   OH234622   3.980   1.675  17.377 -0.8753  0.2065 -0.6460
 3476TIP3    H134623   3.996   1.650  17.286 -1.2722  0.4848 -0.7904
 3476TIP3    H234624   3.897   1.634  17.399 -1.1995  0.8341 -0.6739
 3477TIP3   OH234625   0.404   5.294  16.600 -0.6331 -0.2121  0.0301
 3477TIP3    H134626   0.449   5.371  16.565 -0.1142  0.1443  1.4078
 3477TIP3    H234627   0.454   5.219  16.569  1.2775  0.1930  1.9232
 3478TIP3   OH234628   0.622   6.074  17.141  0.9844  0.6088 -1.0112
 3478TIP3    H134629   0.668   6.026  17.072 -0.8176 -1.5001 -0.8760
 3478TIP3    H234630   0.531   6.077  17.111  0.1504 -0.3668  1.1906
 3479TIP3   OH234631   4.081   0.802  16.429 -0.1172 -0.2659  0.4517
 3479TIP3    H134632   4.088   0.895  16.410 -0.8717  0.1037  1.8552
 3479TIP3    H234633   4.171   0.769  16.425 -0.0884 -0.0391 -2.5420
 3480TIP3   OH234634   4.998   5.821  17.482 -0.2180 -0.0886 -0.2134
 3480TIP3    H134635   5.041   5.894  17.437  0.3226 -0.2835 -0.0255
 3480TIP3    H234636   4.940   5.783  17.416 -0.1389  0.2089 -0.4593
 3481TIP3   OH234637   4.961   3.120  19.329  0.0943  0.4698 -0.2843
 3481TIP3    H134638   4.953   3.088  19.418  2.1662 -0.1182 -0.2680
 3481TIP3    H234639   4.907   3.200  19.327  0.3210  0.7003  1.5751
 3482TIP3   OH234640   1.132   6.374  17.895 -0.1759 -0.1739 -0.1154
 3482TIP3    H134641   1.220   6.410  17.880 -1.2395  2.0441 -1.7832
 3482TIP3    H234642   1.132   6.348  17.987  1.6923  1.3934  0.4087
 3483TIP3   OH234643   0.998   0.635  17.692  0.0759  0.7679 -0.1137
 3483TIP3    H134644   1.002   0.710  17.750 -2.1543  2.2145 -1.6553
 3483TIP3    H234645   1.073   0.645  17.634  1.0534  0.5210  1.0665
 3484TIP3   OH234646   2.339   3.700  18.790 -0.1719 -0.6549  0.3901
 3484TIP3    H134647   2.323   3.616  18.748 -1.8800 -0.4343  0.5407
 3484TIP3    H234648   2.376   3.677  18.875 -1.7666 -1.3420  0.9379
 3485TIP3   OH234649   0.727   0.786  18.138  0.2397  0.2421  0.6018
 3485TIP3    H134650   0.758   0.713  18.085 -0.2564  0.2021  0.3600
 3485TIP3    H234651   0.705   0.854  18.075  2.4542  1.3339  0.8894
 3486TIP3   OH234652   6.676   2.560  19.307  0.0617  0.0630  0.1995
 3486TIP3    H134653   6.768   2.563  19.278  0.5819 -0.2546  1.7431
 3486TIP3    H234654   6.629   2.611  19.241  1.2004 -0.5027 -1.1098
 3487TIP3   OH234655   0.868   2.328  18.044 -0.0469 -0.0114  0.8204
 3487TIP3    H134656   0.891   2.371  17.962  1.1704  0.0414  1.1734
 3487TIP3    H234657   0.860   2.235  18.021 -1.7215  0.2332  0.2570
 3488TIP3   OH234658   0.851   5.611  18.317 -0.7101 -0.2713  0.1029
 3488TIP3    H134659   0.883   5.564  18.240 -1.1084  0.3709 -0.4577
 3488TIP3    H234660   0.928   5.619  18.374 -0.6189 -1.5319  0.1821
 3489TIP3   OH234661   2.484   0.950  17.698  0.1373 -0.4603  0.6603
 3489TIP3    H134662   2.572   0.959  17.662 -0.3066 -2.0921 -0.9788
 3489TIP3    H234663   2.446   0.875  17.652 -1.5674 -0.7907  2.4459
 3490TIP3   OH234664   6.607   5.025  18.539 -0.5140 -0.8635  0.4158
 3490TIP3    H134665   6.696   5.059  18.543 -0.4213 -1.1650  1.2179
 3490TIP3    H234666   6.551   5.103  18.546 -0.3178 -0.6527 -0.3502
 3491TIP3   OH234667   2.389   6.622  17.732 -0.5616 -0.2052  0.0570
 3491TIP3    H134668   2.334   6.687  17.690  0.3491 -0.1070 -1.0078
 3491TIP3    H234669   2.399   6.654  17.822 -2.7975 -0.5998  0.5137
 3492TIP3   OH234670   7.590   3.221  18.834  0.0718  0.2243  0.2215
 3492TIP3    H134671   7.579   3.153  18.900 -0.7733  0.0055 -0.1229
 3492TIP3    H234672   7.663   3.191  18.780  1.0743  0.6372  1.3176
 3493TIP3   OH234673   6.842   4.836  17.979 -0.1201 -0.1098  0.2367
 3493TIP3    H134674   6.821   4.744  17.995 -1.1335  0.2172  0.8871
 3493TIP3    H234675   6.765   4.884  18.009  0.5895  0.9886  0.3673
 3494TIP3   OH234676   0.587   6.441  18.609  0.1550 -0.2731  0.3597
 3494TIP3    H134677   0.521   6.464  18.543  1.0252 -0.2038 -0.5091
 3494TIP3    H234678   0.552   6.476  18.690  0.3362  2.1451 -0.5204
 3495TIP3   OH234679   4.263   3.269  18.180  0.4318 -0.1634  0.3080
 3495TIP3    H134680   4.272   3.228  18.266  2.3489 -0.6433 -0.0748
 3495TIP3    H234681   4.168   3.273  18.165  0.1147 -3.0026  1.0487
 3496TIP3   OH234682   0.954   4.566  19.037 -0.1222 -0.1161 -0.0337
 3496TIP3    H134683   1.005   4.490  19.065 -0.0014  0.1917  0.6048
 3496TIP3    H234684   0.867   4.553  19.074 -0.3648 -0.3970 -0.7050
 3497TIP3   OH234685   1.692   5.110  19.241 -0.1093 -0.0401  0.5507
 3497TIP3    H134686   1.667   5.055  19.166  0.5977  0.8259 -0.3478
 3497TIP3    H234687   1.682   5.052  19.317  0.1540 -1.2627 -0.3077
 3498TIP3   OH234688   7.253   2.400  17.191  0.2890 -0.0466  0.1292
 3498TIP3    H134689   7.346   2.419  17.203  0.3931 -0.4084 -0.0922
 3498TIP3    H234690   7.245   2.378  17.098  0.9005 -4.8584  0.9497
 3499TIP3   OH234691   7.314   6.173  17.961  0.1110 -0.0455  0.1158
 3499TIP3    H134692   7.386   6.197  18.019  1.3238 -0.2547 -1.2375
 3499TIP3    H234693   7.245   6.142  18.020  1.9509 -2.0011  1.3830
 3500TIP3   OH234694   2.475   6.293  17.519  0.1796  0.4939 -0.3370
 3500TIP3    H134695   2.477   6.265  17.611  0.1687  0.7140 -0.2693
 3500TIP3    H234696   2.476   6.389  17.524  1.0410  0.4978 -0.5951
 3501TIP3   OH234697   1.763   7.181  17.742  0.6061 -0.1852 -0.5289
 3501TIP3    H134698   1.818   7.224  17.676  1.8717  0.5168  0.9106
 3501TIP3    H234699   1.796   7.215  17.825 -0.5677 -1.4692  0.4927
 3502TIP3   OH234700   0.206   7.420  18.135  0.9477 -0.3248  0.1751
 3502TIP3    H134701   0.219   7.472  18.215 -0.1143 -1.9797  1.4832
 3502TIP3    H234702   0.284   7.365  18.130  1.1015 -0.0897 -0.0525
 3503TIP3   OH234703   4.310   7.142  18.976 -0.4265  0.0131 -0.7016
 3503TIP3    H134704   4.313   7.207  18.906  2.2648  1.5266  0.6443
 3503TIP3    H234705   4.326   7.193  19.056 -1.0969 -1.9410  0.7436
 3504TIP3   OH234706   6.152   2.046  18.702  0.1596  0.5375 -0.2433
 3504TIP3    H134707   6.080   2.108  18.709 -0.5587 -0.2070 -0.7459
 3504TIP3    H234708   6.199   2.053  18.785  0.1107  1.7459 -0.3018
 3505TIP3   OH234709   3.671   7.548  17.474  0.0777 -0.2517 -0.3436
 3505TIP3    H134710   3.664   7.614  17.544  2.6835  1.0214 -1.1809
 3505TIP3    H234711   3.620   7.585  17.402 -2.3020 -1.3942  0.6303
 3506TIP3   OH234712   0.637   5.090  18.240 -0.3094  0.3550  0.0706
 3506TIP3    H134713   0.633   5.114  18.333  2.4738  3.7599 -0.4593
 3506TIP3    H234714   0.714   5.033  18.234 -0.9854 -0.5574 -0.0741
 3507TIP3   OH234715   4.240   1.657  17.480  0.5301 -0.2213  0.7729
 3507TIP3    H134716   4.276   1.578  17.440  0.5668 -0.2883  0.9367
 3507TIP3    H234717   4.149   1.659  17.450  0.5763 -0.2346  0.6320
 3508TIP3   OH234718   4.500   5.949  16.734 -0.2121  0.0994  0.0953
 3508TIP3    H134719   4.566   5.912  16.675  1.2065  2.3742  0.1569
 3508TIP3    H234720   4.441   5.998  16.677  0.1580  0.8854  0.3820
 3509TIP3   OH234721   0.031   3.207  16.518  0.0609 -0.0517 -0.0798
 3509TIP3    H134722  -0.003   3.147  16.452 -0.7236  1.7443 -1.3929
 3509TIP3    H234723   0.118   3.231  16.486  0.3797 -0.4824  0.4518
 3510TIP3   OH234724   4.830   4.318  17.112  0.3519 -0.5880 -0.1511
 3510TIP3    H134725   4.876   4.392  17.073 -0.9660 -0.1183 -0.8783
 3510TIP3    H234726   4.891   4.283  17.177  0.7585  1.5426  0.6942
 3511TIP3   OH234727   2.736   6.851  18.136 -0.1626  0.1876  0.2456
 3511TIP3    H134728   2.696   6.808  18.061 -0.5101  0.5745  0.2034
 3511TIP3    H234729   2.772   6.780  18.189 -0.5646 -0.1357  0.0860
 3512TIP3   OH234730   6.414   0.026  19.248 -0.1498  0.1198 -0.5230
 3512TIP3    H134731   6.409  -0.068  19.231  0.3152  0.0495 -0.2673
 3512TIP3    H234732   6.357   0.065  19.181 -2.6079 -0.5201  1.0764
 3513TIP3   OH234733   0.550   3.879  17.063 -0.5001  0.4326  0.3684
 3513TIP3    H134734   0.494   3.844  17.132  2.6180 -0.8112  2.4571
 3513TIP3    H234735   0.624   3.918  17.109  0.6859  1.5303 -2.2475
 3514TIP3   OH234736   1.296   4.327  16.683 -0.3277  0.1450  1.0254
 3514TIP3    H134737   1.388   4.319  16.706 -0.7731 -0.5573  2.7337
 3514TIP3    H234738   1.252   4.342  16.766 -2.0559 -2.2789  0.6661
 3515TIP3   OH234739   3.592   5.636  17.701  0.2688  0.1396  0.0232
 3515TIP3    H134740   3.662   5.647  17.638  0.4163  1.9467  0.4341
 3515TIP3    H234741   3.568   5.725  17.726 -2.4612 -0.3767 -0.3926
 3516TIP3   OH234742   1.288   2.848  19.039  0.7964 -0.2164  0.5297
 3516TIP3    H134743   1.257   2.835  19.129  1.6243 -2.4324  0.5438
 3516TIP3    H234744   1.235   2.789  18.986  0.0969  1.2937 -0.5439
 3517TIP3   OH234745   5.402   4.596  16.824 -0.6649  0.0523  0.7719
 3517TIP3    H134746   5.410   4.666  16.759  1.5970 -0.0052  0.9358
 3517TIP3    H234747   5.472   4.534  16.802 -0.2063 -0.2502  2.9063
 3518TIP3   OH234748   0.416   2.662  17.088 -0.2863 -0.6065 -0.2934
 3518TIP3    H134749   0.408   2.576  17.130  0.9225 -1.0018 -0.8226
 3518TIP3    H234750   0.508   2.668  17.064 -0.1542  1.2333  0.5267
 3519TIP3   OH234751   1.703   4.930  19.014 -0.4448  0.1245  0.1270
 3519TIP3    H134752   1.634   4.995  19.002 -0.7465 -0.2299 -0.0877
 3519TIP3    H234753   1.714   4.890  18.928  0.7230  0.8461 -0.0839
 3520TIP3   OH234754   1.360   4.347  17.399  0.4251 -0.0530  0.1010
 3520TIP3    H134755   1.326   4.296  17.325  0.2520  0.7768 -0.4054
 3520TIP3    H234756   1.395   4.281  17.459 -0.5934 -0.8162 -0.1193
 3521TIP3   OH234757   7.268   5.119  17.240  0.2925  0.5766  0.5042
 3521TIP3    H134758   7.253   5.037  17.193 -0.4799  0.9041  0.1631
 3521TIP3    H234759   7.181   5.157  17.251  0.6935  1.6402  0.1269
 3522TIP3   OH234760   7.100   2.263  18.142 -0.0289 -0.1086  0.2386
 3522TIP3    H134761   7.117   2.218  18.225  1.4197 -0.1061 -0.0223
 3522TIP3    H234762   7.186   2.266  18.098  0.2071  3.6795  0.6005
 3523TIP3   OH234763   0.644   1.095  19.006 -0.2903  0.5089  0.2272
 3523TIP3    H134764   0.591   1.018  18.986 -0.3378  0.9327 -1.3825
 3523TIP3    H234765   0.580   1.165  19.021 -0.2585  0.1984  2.0206
 3524TIP3   OH234766   7.439   7.395  18.753 -0.2219 -0.3196  0.2541
 3524TIP3    H134767   7.497   7.471  18.743 -0.2205 -0.4447 -0.7762
 3524TIP3    H234768   7.424   7.389  18.848 -0.6941  1.3090  0.3094
 3525TIP3   OH234769   2.903   3.352  17.071 -0.2173 -0.5812 -0.2274
 3525TIP3    H134770   2.880   3.270  17.028  1.2048 -1.4287  0.5468
 3525TIP3    H234771   2.994   3.368  17.044  0.1716 -0.2978  1.1655
 3526TIP3   OH234772   6.331   6.820  17.840  0.3289  0.0327 -0.5029
 3526TIP3    H134773   6.366   6.889  17.784  0.2713  0.3079 -0.2028
 3526TIP3    H234774   6.260   6.862  17.889 -0.9334 -0.6811 -1.6258
 3527TIP3   OH234775   4.043   4.690  18.637  0.2974 -0.6214 -0.9150
 3527TIP3    H134776   3.987   4.627  18.682  0.1925 -0.3271 -0.6315
 3527TIP3    H234777   4.131   4.653  18.644  0.1816 -0.9356 -1.0996
 3528TIP3   OH234778   1.079   7.662  18.388  0.0254  0.0055  0.4424
 3528TIP3    H134779   1.096   7.730  18.454 -0.0906 -0.1659  0.6470
 3528TIP3    H234780   1.075   7.580  18.438  3.0929 -0.6041 -0.0838
 3529TIP3   OH234781   7.392   0.822  19.009 -0.4001 -0.0214 -0.2796
 3529TIP3    H134782   7.355   0.761  19.072  0.4034 -0.0055  0.2147
 3529TIP3    H234783   7.334   0.898  19.012 -0.0614  0.2075  0.8518
 3530TIP3   OH234784   1.018   0.464  17.335 -0.5785  0.2409 -0.1497
 3530TIP3    H134785   1.055   0.394  17.389 -1.6479  0.9888  1.6257
 3530TIP3    H234786   1.091   0.495  17.282 -0.2624 -2.8073 -1.7273
 3531TIP3   OH234787   7.039   0.868  19.165  0.3347 -0.2035 -0.2010
 3531TIP3    H134788   7.104   0.855  19.097  0.6311  0.9519 -0.1525
 3531TIP3    H234789   7.052   0.958  19.195  0.7591 -0.9130  1.9514
 3532TIP3   OH234790   1.455   6.494  17.982 -0.1178  0.1109 -0.2120
 3532TIP3    H134791   1.442   6.452  18.068 -0.5115  0.8797  0.1097
 3532TIP3    H234792   1.409   6.578  17.989  1.1331  0.8609 -0.6418
 3533TIP3   OH234793   2.305   5.282  18.388  0.1131  0.8879  0.2697
 3533TIP3    H134794   2.334   5.373  18.394  0.5385  0.7305  0.7305
 3533TIP3    H234795   2.271   5.262  18.475  0.9622  0.3064  0.4811
 3534TIP3   OH234796   4.461   3.477  19.330  0.2974 -0.0442  0.1025
 3534TIP3    H134797   4.406   3.533  19.386 -0.3470 -1.8020  1.3106
 3534TIP3    H234798   4.402   3.446  19.262  0.9589  1.6681 -1.3444
 3535TIP3   OH234799   0.343   1.477  16.630 -0.2051 -0.0023 -0.7850
 3535TIP3    H134800   0.427   1.472  16.675 -0.4835 -0.7040 -0.3401
 3535TIP3    H234801   0.281   1.505  16.698 -0.4800 -0.2639 -0.9282
 3536TIP3   OH234802   5.732   5.318  16.874 -0.7924  0.5014  0.0786
 3536TIP3    H134803   5.769   5.361  16.797 -0.6037 -0.4622 -0.3802
 3536TIP3    H234804   5.651   5.278  16.843  0.3176 -1.7047 -0.1869
 3537TIP3   OH234805   1.235   4.561  17.713  0.5165  0.4618 -0.4743
 3537TIP3    H134806   1.214   4.639  17.764  0.1205  0.3045 -0.3991
 3537TIP3    H234807   1.211   4.487  17.769 -1.2308  0.2732 -1.3957
 3538TIP3   OH234808   4.050   1.833  18.815 -0.1173 -0.0466  0.0424
 3538TIP3    H134809   4.010   1.756  18.776  0.6960  0.8087 -2.7067
 3538TIP3    H234810   4.126   1.800  18.863 -1.0061 -1.1193  0.7440
 3539TIP3   OH234811   5.039   5.638  18.707  0.5945  0.4210 -0.1396
 3539TIP3    H134812   5.009   5.725  18.682  0.5664  0.0194 -1.5841
 3539TIP3    H234813   5.067   5.648  18.799 -1.7181  1.3468  0.5301
 3540TIP3   OH234814   3.062   7.656  18.536  0.0770 -0.1661 -0.3912
 3540TIP3    H134815   3.144   7.666  18.584 -0.0282  0.0610 -0.2590
 3540TIP3    H234816   2.994   7.664  18.603 -0.0912  0.6763 -0.6483
 3541TIP3   OH234817   0.870   6.773  16.920 -0.1032 -0.2604 -0.6104
 3541TIP3    H134818   0.841   6.700  16.976  0.9957  0.6850  1.3031
 3541TIP3    H234819   0.806   6.842  16.936 -0.9089 -0.6184 -2.1082
 3542TIP3   OH234820   3.587   7.033  18.176 -0.5429 -0.1168  0.4933
 3542TIP3    H134821   3.656   7.016  18.112  0.5746  0.8775  1.3727
 3542TIP3    H234822   3.598   6.964  18.242  0.4579  0.7359  1.2640
 3543TIP3   OH234823   5.023   2.592  17.431  0.2527 -0.3592 -0.0374
 3543TIP3    H134824   5.039   2.634  17.346 -1.8621 -0.3941 -0.5091
 3543TIP3    H234825   4.939   2.629  17.460 -0.6542 -2.6728  0.5233
 3544TIP3   OH234826   1.959   1.703  16.393 -0.4673 -0.4502  0.0807
 3544TIP3    H134827   2.020   1.665  16.330 -1.4164 -1.3910 -0.2959
 3544TIP3    H234828   1.875   1.661  16.374 -1.1203  0.4235  0.9374
 3545TIP3   OH234829   7.515   3.840  16.554  0.1220 -0.3165  0.2811
 3545TIP3    H134830   7.519   3.773  16.485  0.9638 -0.6890  0.6816
 3545TIP3    H234831   7.594   3.893  16.540 -1.2430  1.5177 -0.9338
 3546TIP3   OH234832   7.092   6.781  17.989  0.1602  0.1535 -0.1742
 3546TIP3    H134833   7.082   6.686  17.983  2.2234 -0.2275  1.1952
 3546TIP3    H234834   7.040   6.806  18.065  0.0394  0.0298 -0.2172
 3547TIP3   OH234835   6.526   0.660  19.147 -0.0419  0.4302 -0.1240
 3547TIP3    H134836   6.514   0.754  19.137 -0.6697  0.3244 -0.4591
 3547TIP3    H234837   6.484   0.639  19.231 -0.7869  0.3058 -0.5196
 3548TIP3   OH234838   3.696   3.905  19.297  0.4488 -0.4993 -0.6294
 3548TIP3    H134839   3.735   3.971  19.239  1.6498 -0.1856  0.5029
 3548TIP3    H234840   3.693   3.826  19.244  0.6139  0.0211 -1.4367
 3549TIP3   OH234841   0.029   3.364  18.379 -0.5900  0.1678 -0.2831
 3549TIP3    H134842  -0.040   3.301  18.399 -0.9892 -0.2231 -2.5774
 3549TIP3    H234843  -0.007   3.416  18.307  0.7754  1.2714 -0.2171
 3550TIP3   OH234844   2.289   5.911  19.036 -0.2902 -0.3539  0.3422
 3550TIP3    H134845   2.219   5.849  19.054 -0.3728 -0.2538  0.3662
 3550TIP3    H234846   2.295   5.913  18.941 -1.9489  1.4236  0.2031
 3551TIP3   OH234847   3.354   5.198  18.734  0.0357  0.1103  0.1156
 3551TIP3    H134848   3.270   5.197  18.779 -0.2689  0.2162 -0.4468
 3551TIP3    H234849   3.417   5.173  18.801 -0.4053  0.3314  0.6189
 3552TIP3   OH234850   4.264   4.564  17.385 -0.3482 -0.2270  0.1752
 3552TIP3    H134851   4.186   4.576  17.439 -1.3814 -0.6156 -1.1944
 3552TIP3    H234852   4.288   4.652  17.357  0.0905 -0.0419  1.1059
 3553TIP3   OH234853   2.415   6.101  19.207  0.5591  0.0654 -0.0605
 3553TIP3    H134854   2.423   6.184  19.160  0.2153  0.0312 -0.1807
 3553TIP3    H234855   2.388   6.038  19.140  1.8129 -0.3634 -0.1811
 3554TIP3   OH234856   2.591   0.325  16.591 -0.0083 -0.5437  0.4965
 3554TIP3    H134857   2.544   0.408  16.598  0.5075 -0.2455  0.4889
 3554TIP3    H234858   2.614   0.319  16.498  2.2999  0.6475  0.8932
 3555TIP3   OH234859   3.763   1.837  18.100  0.0127 -0.1106  0.5727
 3555TIP3    H134860   3.717   1.886  18.168  1.4623  0.0928  1.4295
 3555TIP3    H234861   3.804   1.904  18.045  0.3689 -0.3166  0.5846
 3556TIP3   OH234862   2.627   4.514  17.110  0.2991  0.3628 -0.0686
 3556TIP3    H134863   2.624   4.562  17.028 -1.4431  1.2599  0.4458
 3556TIP3    H234864   2.536   4.488  17.126  0.9548 -1.9483  0.3866
 3557TIP3   OH234865   3.230   6.892  17.310 -0.4706  0.6148  0.6698
 3557TIP3    H134866   3.211   6.800  17.326 -2.5163  1.1418  1.7530
 3557TIP3    H234867   3.279   6.894  17.228  0.2897 -1.4622  1.0322
 3558TIP3   OH234868   0.792   6.130  18.533 -0.8659  0.2534 -0.1361
 3558TIP3    H134869   0.771   6.200  18.471 -0.2730 -0.8827 -1.6591
 3558TIP3    H234870   0.807   6.053  18.479 -1.2536 -1.0177  1.4922
 3559TIP3   OH234871   3.111   1.821  18.070  0.6177 -1.2295 -0.0162
 3559TIP3    H134872   3.118   1.737  18.026 -1.5744 -1.3302 -0.2740
 3559TIP3    H234873   3.024   1.854  18.046  0.4213 -0.0417  2.0875
 3560TIP3   OH234874   3.815   4.220  17.552 -0.0277  0.0047  0.0759
 3560TIP3    H134875   3.864   4.149  17.593  0.6917  0.7750  0.5808
 3560TIP3    H234876   3.839   4.216  17.459 -0.3548 -0.6898  0.0132
 3561TIP3   OH234877   5.099   7.455  17.591  0.5981 -0.0073 -0.2243
 3561TIP3    H134878   5.157   7.445  17.667 -1.2274 -1.1481  1.1063
 3561TIP3    H234879   5.154   7.429  17.517  1.7345 -1.3826  1.0064
 3562TIP3   OH234880   2.606   7.237  18.751  0.1257 -0.2415  0.0073
 3562TIP3    H134881   2.676   7.189  18.707 -1.9845 -1.8288 -1.8421
 3562TIP3    H234882   2.580   7.305  18.689  1.1042  1.4988  1.4032
 3563TIP3   OH234883   6.566   7.201  16.912  0.2497 -0.7789  0.0488
 3563TIP3    H134884   6.577   7.292  16.939 -0.9476 -0.4217 -0.6279
 3563TIP3    H234885   6.656   7.168  16.904  0.7956  0.8947 -1.5461
 3564TIP3   OH234886   6.980   4.115  17.142  0.7845  0.6379  0.5365
 3564TIP3    H134887   6.912   4.164  17.097 -2.1091  0.3633  4.1629
 3564TIP3    H234888   7.062   4.151  17.108 -1.1078  2.7726 -2.2215
 3565TIP3   OH234889   1.671   3.882  17.240  0.4649  0.2070 -0.1722
 3565TIP3    H134890   1.717   3.799  17.228  0.8130  0.4295 -0.3793
 3565TIP3    H234891   1.671   3.896  17.335  0.3700 -0.0510 -0.1351
 3566TIP3   OH234892   4.067   0.401  19.009 -0.4427  0.1081  0.1472
 3566TIP3    H134893   4.108   0.328  19.055 -1.4387  0.9234  2.4988
 3566TIP3    H234894   4.061   0.372  18.918 -0.6495 -2.6625  0.9579
 3567TIP3   OH234895   2.165   2.974  17.487  0.0163 -0.3472  0.3304
 3567TIP3    H134896   2.091   3.034  17.486  0.7734  0.6108 -1.4307
 3567TIP3    H234897   2.127   2.889  17.465 -0.3354  0.4930 -2.6693
 3568TIP3   OH234898   7.099   2.695  19.041  0.2938  0.2602  0.1182
 3568TIP3    H134899   7.148   2.663  18.965 -2.5583  0.2169 -1.9108
 3568TIP3    H234900   7.058   2.776  19.009 -1.9099 -0.3649  1.1562
 3569TIP3   OH234901   0.761   5.604  18.869 -0.0670  0.2891 -0.0294
 3569TIP3    H134902   0.672   5.583  18.841  0.0976  0.8813 -1.0302
 3569TIP3    H234903   0.798   5.655  18.797  1.2228 -0.2993  0.1852
 3570TIP3   OH234904   6.312   1.624  18.873  0.0767  0.0632  0.2967
 3570TIP3    H134905   6.261   1.563  18.820  0.2947  1.1653 -1.2672
 3570TIP3    H234906   6.254   1.699  18.887  0.0459 -0.1871  1.6073
 3571TIP3   OH234907   2.413   2.131  17.080 -0.0135 -0.3833 -0.4083
 3571TIP3    H134908   2.331   2.176  17.060 -0.7909 -1.2593  0.6611
 3571TIP3    H234909   2.410   2.116  17.175  1.9475  0.6152 -0.1392
 3572TIP3   OH234910   7.619   2.390  16.906 -0.1638 -0.1568 -0.4826
 3572TIP3    H134911   7.612   2.297  16.927 -2.3196 -0.4035 -1.9906
 3572TIP3    H234912   7.677   2.426  16.974  0.6993 -2.5569  0.1428
 3573TIP3   OH234913   0.751   1.498  18.976  0.2434  0.0070 -0.0462
 3573TIP3    H134914   0.822   1.548  18.935 -1.1411  2.0282 -0.1348
 3573TIP3    H234915   0.674   1.555  18.967 -0.6937 -0.5858  3.0408
 3574TIP3   OH234916   1.559   3.014  18.851  0.0193  0.2338  0.3112
 3574TIP3    H134917   1.498   2.955  18.807  0.4735  1.0593 -1.5449
 3574TIP3    H234918   1.644   2.997  18.810  0.4728  1.0350  0.8749
 3575TIP3   OH234919   0.206   1.225  19.128  0.5329 -0.3111 -0.2019
 3575TIP3    H134920   0.126   1.238  19.178 -0.2516  0.7057 -1.6733
 3575TIP3    H234921   0.276   1.234  19.192 -0.4857 -0.4233  0.9577
 3576TIP3   OH234922   2.134   7.327  17.891  0.0393  0.3332 -0.7739
 3576TIP3    H134923   2.206   7.374  17.933 -1.2671  0.7611  1.1245
 3576TIP3    H234924   2.096   7.391  17.830  1.5581 -0.0775 -2.2086
 3577TIP3   OH234925   2.179   1.887  18.905 -0.0056 -0.0694  0.4965
 3577TIP3    H134926   2.093   1.867  18.869 -0.3626 -0.3982  1.4919
 3577TIP3    H234927   2.216   1.802  18.930 -0.2266  0.2071  1.8608
 3578TIP3   OH234928   0.941   2.173  16.805  0.1137  0.0709 -0.1441
 3578TIP3    H134929   0.942   2.237  16.734 -0.6045 -0.5964 -0.7800
 3578TIP3    H234930   0.892   2.099  16.769  0.3565 -0.5658  0.8075
 3579TIP3   OH234931   5.759   4.292  19.132 -0.0824 -0.5122 -0.1482
 3579TIP3    H134932   5.754   4.340  19.049  0.4258  0.6320  0.4647
 3579TIP3    H234933   5.756   4.359  19.199 -1.5731 -1.4909  0.8193
 3580TIP3   OH234934   3.222   6.178  18.157 -0.3755 -0.3596 -0.0880
 3580TIP3    H134935   3.164   6.216  18.091 -0.3218  0.6702  0.4416
 3580TIP3    H234936   3.249   6.094  18.119 -1.1900 -0.2758 -0.9024
 3581TIP3   OH234937   5.204   4.809  16.531 -0.0531  0.7974  0.5579
 3581TIP3    H134938   5.298   4.791  16.536  0.1044  1.2708 -0.4087
 3581TIP3    H234939   5.162   4.727  16.557  0.6239  0.5748  0.9740
 3582TIP3   OH234940   6.654   5.729  18.647 -0.5252  0.6295 -0.6268
 3582TIP3    H134941   6.675   5.662  18.711 -0.3461 -0.0473 -1.3787
 3582TIP3    H234942   6.698   5.701  18.567 -1.0486  1.2590 -1.1511
 3583TIP3   OH234943   6.978   5.507  17.803  0.1933 -0.2148  0.0802
 3583TIP3    H134944   7.032   5.502  17.883 -0.5325 -3.3778  0.5264
 3583TIP3    H234945   7.042   5.522  17.733  1.3205 -0.9185  0.9053
 3584TIP3   OH234946   5.668   2.238  19.345 -0.1604 -0.3852  0.1908
 3584TIP3    H134947   5.727   2.286  19.287  2.1716  0.7516  3.2517
 3584TIP3    H234948   5.718   2.161  19.372 -0.8306 -0.4218  1.3978
 3585TIP3   OH234949   1.963   5.924  18.468  0.3433  0.0511  0.4857
 3585TIP3    H134950   1.950   5.871  18.390 -0.3500 -0.0785  0.6817
 3585TIP3    H234951   1.908   6.001  18.453 -0.4301 -0.3464  1.1846
 3586TIP3   OH234952   3.540   1.453  19.272  0.1088  0.6635 -0.2711
 3586TIP3    H134953   3.468   1.473  19.213 -0.2798  0.4778  0.1273
 3586TIP3    H234954   3.510   1.484  19.358  0.7720  1.1801 -0.2081
 3587TIP3   OH234955   5.067   1.959  17.921 -0.2212 -0.3535 -0.0590
 3587TIP3    H134956   4.998   2.008  17.877 -0.3075  0.1549  0.6156
 3587TIP3    H234957   5.103   2.020  17.985 -0.9127 -1.4011  1.4089
 3588TIP3   OH234958   6.184   3.865  19.206  0.2386  0.2337 -0.2607
 3588TIP3    H134959   6.269   3.900  19.230  0.2468 -0.1020  0.2186
 3588TIP3    H234960   6.177   3.881  19.112  0.8198  0.2716 -0.3012
 3589TIP3   OH234961   3.650   2.200  19.135 -0.4822 -0.1335  0.1497
 3589TIP3    H134962   3.687   2.252  19.063  0.7578 -1.1255  0.0390
 3589TIP3    H234963   3.566   2.168  19.100 -0.8493  1.0460 -0.0961
 3590TIP3   OH234964   4.782   0.834  18.607 -0.0740 -0.4819 -0.8147
 3590TIP3    H134965   4.862   0.785  18.625  0.6274  1.2158  1.1606
 3590TIP3    H234966   4.711   0.775  18.633  0.7295 -0.6102  1.3089
 3591TIP3   OH234967   6.734   4.102  17.743  0.3180 -0.5099 -0.1733
 3591TIP3    H134968   6.706   4.161  17.674  1.7237  0.6688  0.2218
 3591TIP3    H234969   6.771   4.027  17.697 -1.5480 -1.1737 -0.6798
 3592TIP3   OH234970   2.456   6.252  17.235  0.1113  0.4683  0.6080
 3592TIP3    H134971   2.542   6.287  17.211 -0.0356  0.4563  0.0578
 3592TIP3    H234972   2.452   6.263  17.330  1.5529 -1.4288  0.9314
 3593TIP3   OH234973   1.936   5.619  17.872  1.0443  0.3988 -0.5621
 3593TIP3    H134974   1.887   5.581  17.799  0.3509 -3.4510  1.5979
 3593TIP3    H234975   1.871   5.667  17.923  0.1401 -1.6869  0.3847
 3594TIP3   OH234976   7.527   2.899  18.310  0.0817 -0.2199  0.0168
 3594TIP3    H134977   7.504   2.983  18.271  3.5018  0.6204 -0.4804
 3594TIP3    H234978   7.541   2.840  18.236 -2.7087 -1.4821  0.3652
 3595TIP3   OH234979   2.472   3.114  17.751  0.1227 -0.2146 -0.0848
 3595TIP3    H134980   2.421   3.043  17.789  0.7175  0.1054  1.3627
 3595TIP3    H234981   2.422   3.193  17.769  0.0084 -0.1377 -0.7111
 3596TIP3   OH234982   3.746   3.099  18.451 -0.2989  0.8613 -0.5144
 3596TIP3    H134983   3.814   3.041  18.485  1.1911  2.3513 -0.8854
 3596TIP3    H234984   3.692   3.119  18.528 -1.8719 -2.1900 -0.6252
 3597TIP3   OH234985   1.230   5.773  16.032  0.3560 -0.0401 -0.3297
 3597TIP3    H134986   1.288   5.848  16.022 -0.4612  0.9242  1.6385
 3597TIP3    H234987   1.287   5.697  16.020  1.4374  0.8691 -1.1763
 3598TIP3   OH234988   0.677   2.917  16.700 -0.2313 -0.5765  0.5153
 3598TIP3    H134989   0.717   2.832  16.683  1.9466  0.6099 -0.6512
 3598TIP3    H234990   0.633   2.940  16.619 -1.4955 -0.8864  1.0823
 3599TIP3   OH234991   6.021   7.212  19.143  0.0069  0.1730  0.1842
 3599TIP3    H134992   6.050   7.186  19.230  1.0231 -1.2480 -0.5247
 3599TIP3    H234993   5.927   7.228  19.152  0.0119 -0.4234  1.4363
 3600TIP3   OH234994   3.831   2.390  19.049 -0.0001 -0.0540 -0.2863
 3600TIP3    H134995   3.899   2.382  19.116  1.0122  0.4481 -1.2395
 3600TIP3    H234996   3.849   2.472  19.005 -2.5275  1.2335  0.8176
 3601TIP3   OH234997   3.322   2.293  18.433 -0.6267  0.5106  0.3286
 3601TIP3    H134998   3.338   2.362  18.497  0.6303  0.5300  0.0146
 3601TIP3    H234999   3.314   2.213  18.486  0.7161  0.4769  0.5365
 3602TIP3   OH235000   4.060   6.243  17.640 -0.9053 -0.3970 -0.3616
 3602TIP3    H135001   4.096   6.309  17.699 -0.6944 -0.1997 -0.7083
 3602TIP3    H235002   3.975   6.278  17.614 -1.9657 -1.4379  1.4478
 3603TIP3   OH235003   1.811   7.011  17.337  0.6008 -0.4414 -0.4746
 3603TIP3    H135004   1.751   7.064  17.389  0.0899 -0.2110 -1.2795
 3603TIP3    H235005   1.898   7.036  17.368  0.3494  0.5021 -0.4987
 3604TIP3   OH235006   1.765   5.159  18.732  0.5371  0.1779 -0.3985
 3604TIP3    H135007   1.814   5.226  18.685 -0.6580 -0.6423 -3.0476
 3604TIP3    H235008   1.742   5.095  18.664 -1.1063 -1.2634  1.4008
 3605TIP3   OH235009   1.699   3.235  17.129 -0.0432 -0.3024  0.0731
 3605TIP3    H135010   1.650   3.169  17.080 -1.5726  0.4718  0.4861
 3605TIP3    H235011   1.784   3.195  17.144 -1.2601 -2.6488  1.2580
 3606TIP3   OH235012   0.690   6.268  18.013 -0.0409  0.1707  0.2292
 3606TIP3    H135013   0.736   6.343  17.974 -0.1560 -0.5563 -1.3827
 3606TIP3    H235014   0.599   6.297  18.019 -0.0920  0.1486 -0.4295
 3607TIP3   OH235015   6.811   4.245  16.965  0.0782 -0.4952 -0.0331
 3607TIP3    H135016   6.842   4.195  16.890 -1.9080 -0.6197 -0.8398
 3607TIP3    H235017   6.787   4.331  16.929 -0.3831 -0.3729  0.5491
 3608TIP3   OH235018   0.565   2.247  18.389  0.6944 -0.8518  0.0224
 3608TIP3    H135019   0.609   2.322  18.349  0.4710 -0.9807 -0.4762
 3608TIP3    H235020   0.603   2.241  18.476 -0.4126  0.8135  0.6585
 3609TIP3   OH235021   0.618   2.899  18.961  0.4750  0.3739 -0.6720
 3609TIP3    H135022   0.669   2.927  18.884  2.0540  0.2598  0.2763
 3609TIP3    H235023   0.683   2.860  19.019 -1.1132 -2.2488 -0.4861
 3610TIP3   OH235024   2.283   5.420  17.192  0.7069 -0.0650  0.0736
 3610TIP3    H135025   2.193   5.450  17.202  1.4935  2.3538  0.4186
 3610TIP3    H235026   2.288   5.391  17.100 -0.5355 -0.8329  0.2150
 3611TIP3   OH235027   1.206   2.016  18.806 -0.0006 -0.4451  0.3651
 3611TIP3    H135028   1.263   1.991  18.879 -1.0691 -3.0621  0.4130
 3611TIP3    H235029   1.251   1.985  18.728 -0.7246 -1.3842  0.2991
 3612TIP3   OH235030   4.273   3.817  17.441  0.6924 -0.1795 -0.0557
 3612TIP3    H135031   4.243   3.905  17.464  0.5633 -0.2091 -0.1029
 3612TIP3    H235032   4.280   3.772  17.524  1.9784  0.2456  0.0816
 3613TIP3   OH235033   2.141   2.357  18.264  0.0482 -0.2974 -0.0110
 3613TIP3    H135034   2.064   2.371  18.208 -0.1124 -2.2950 -0.3707
 3613TIP3    H235035   2.181   2.444  18.272 -1.5416  0.5590 -0.8416
 3614TIP3   OH235036   5.804   2.588  17.955  0.0912 -0.3736  0.0644
 3614TIP3    H135037   5.766   2.597  18.042 -0.0565 -1.0482  0.0724
 3614TIP3    H235038   5.729   2.599  17.896 -0.1758 -1.8830  0.0839
 3615TIP3   OH235039   1.065   4.750  17.881 -0.4691  0.0097  0.0256
 3615TIP3    H135040   1.012   4.778  17.807  1.4650 -1.3642 -2.0315
 3615TIP3    H235041   1.107   4.829  17.913 -1.7449  0.7024  0.0383
 3616TIP3   OH235042   2.890   1.903  17.942  0.1027  0.7954 -0.0348
 3616TIP3    H135043   2.862   1.824  17.894  0.3401  1.1113 -0.7105
 3616TIP3    H235044   2.811   1.958  17.946 -0.3020  0.1605  1.2153
 3617TIP3   OH235045   3.235   3.463  16.688 -0.1341  0.3962  0.5128
 3617TIP3    H135046   3.275   3.472  16.602 -0.5886  1.1642  0.3716
 3617TIP3    H235047   3.300   3.497  16.749 -0.0662  0.4508  0.4104
 3618TIP3   OH235048   5.121   1.065  17.794  0.3667 -0.8247 -0.2627
 3618TIP3    H135049   5.083   1.014  17.723  0.1916  0.2097 -0.9280
 3618TIP3    H235050   5.130   1.153  17.759  0.6797 -0.3872  0.8584
 3619TIP3   OH235051   3.256   3.992  18.458  0.0993  0.4519 -0.1477
 3619TIP3    H135052   3.244   3.972  18.551 -1.2701 -0.2049 -0.4363
 3619TIP3    H235053   3.287   4.082  18.456 -1.6181  1.1133  0.8959
 3620TIP3   OH235054   7.062   6.848  18.633 -0.5998  0.4843  0.5290
 3620TIP3    H135055   6.985   6.825  18.684  1.2666 -0.8704  3.0097
 3620TIP3    H235056   7.098   6.924  18.678  0.8504 -0.4762  1.0990
 3621TIP3   OH235057   6.055   2.527  18.070 -0.7461  0.4138 -0.2091
 3621TIP3    H135058   5.972   2.570  18.050 -0.7575  0.0083 -1.0911
 3621TIP3    H235059   6.122   2.590  18.046 -0.7894  0.4070 -0.3522
 3622TIP3   OH235060   5.492   3.043  17.634 -0.0208 -0.7114  0.6337
 3622TIP3    H135061   5.561   2.981  17.612 -0.1161 -0.1636 -1.4256
 3622TIP3    H235062   5.517   3.079  17.719  1.9921 -0.8602  0.1415
 3623TIP3   OH235063   1.039   6.912  18.151  0.0342 -0.0341  0.2017
 3623TIP3    H135064   1.095   6.955  18.086 -1.0919  2.2252  0.6244
 3623TIP3    H235065   1.068   6.821  18.150  1.3663  0.3168 -2.0497
 3624TIP3   OH235066   4.977   0.276  17.254  0.2388  0.5824  0.0817
 3624TIP3    H135067   4.984   0.278  17.349  2.5076  0.7481 -0.0411
 3624TIP3    H235068   4.997   0.185  17.230 -0.0242  0.6105 -0.2644
 3625TIP3   OH235069   0.723   2.375  17.514  0.0756  0.0497 -0.0475
 3625TIP3    H135070   0.628   2.373  17.510  0.0024 -0.0385  1.4246
 3625TIP3    H235071   0.743   2.457  17.560  0.6993 -0.1451  0.0352
 3626TIP3   OH235072   6.254   2.898  17.461 -0.5723 -0.0285  0.0037
 3626TIP3    H135073   6.296   2.882  17.377  0.9192 -2.7266  1.1358
 3626TIP3    H235074   6.308   2.966  17.502  0.5969 -0.9102 -0.0208
 3627TIP3   OH235075   1.954   5.149  17.358 -0.2575 -0.0440 -0.5702
 3627TIP3    H135076   2.019   5.179  17.422 -1.6486 -0.5410  1.1444
 3627TIP3    H235077   1.887   5.217  17.356 -0.7721 -0.5404 -0.6760
 3628TIP3   OH235078   1.346   6.526  16.224  0.0060  0.1512  0.3703
 3628TIP3    H135079   1.357   6.561  16.135  1.2111 -0.9319  0.0440
 3628TIP3    H235080   1.281   6.582  16.265 -1.6363 -0.1365 -1.6529
 3629TIP3   OH235081   2.186   1.168  17.148  0.0448 -0.4613 -0.3811
 3629TIP3    H135082   2.173   1.117  17.068  0.1154  0.8639 -1.2626
 3629TIP3    H235083   2.269   1.214  17.135  1.2491 -1.9529  1.4346
 3630TIP3   OH235084   2.369   2.388  18.465 -0.8655  0.4742 -0.2219
 3630TIP3    H135085   2.454   2.414  18.431  0.0486 -2.5162 -0.5402
 3630TIP3    H235086   2.306   2.414  18.398 -0.0855  1.6722 -0.5113
 3631TIP3   OH235087   2.766   5.595  18.414 -0.7301  0.4011  0.1829
 3631TIP3    H135088   2.706   5.551  18.475 -1.6498  1.8079  0.3390
 3631TIP3    H235089   2.810   5.524  18.369 -0.3504 -0.7058  2.1614
 3632TIP3   OH235090   4.347   0.158  18.101 -0.0306 -0.2269  0.6918
 3632TIP3    H135091   4.337   0.110  18.183  1.2945  2.4617  2.5823
 3632TIP3    H235092   4.310   0.245  18.119  0.0845  0.3934 -1.6668
 3633TIP3   OH235093   5.777   6.364  17.366  0.3282  0.1845 -0.4618
 3633TIP3    H135094   5.699   6.369  17.311 -0.7543  2.2694  1.1088
 3633TIP3    H235095   5.747   6.324  17.447  1.4255 -0.9742 -0.5995
 3634TIP3   OH235096   2.188   5.906  16.646  0.4719 -0.6309 -0.4972
 3634TIP3    H135097   2.269   5.940  16.684  0.0791 -1.5881  1.3153
 3634TIP3    H235098   2.212   5.883  16.556  1.3729  1.9900 -1.0136
 3635TIP3   OH235099   1.555   3.849  16.507 -0.0120 -0.0523 -0.0854
 3635TIP3    H135100   1.575   3.792  16.582  0.2585  0.1819  0.0255
 3635TIP3    H235101   1.631   3.907  16.501 -0.9117  1.2646  0.6975
 3636TIP3   OH235102   0.833   0.537  17.987  0.1730 -0.2329  0.2068
 3636TIP3    H135103   0.817   0.457  17.936  0.9426  0.3447 -0.9715
 3636TIP3    H235104   0.923   0.528  18.019  0.0475 -0.1108  0.6019
 3637TIP3   OH235105   3.558   0.205  16.873 -0.1762 -0.0211  0.1886
 3637TIP3    H135106   3.487   0.144  16.853 -1.2234  1.5262 -1.0470
 3637TIP3    H235107   3.556   0.269  16.802  1.6294  0.8140  0.8159
 3638TIP3   OH235108   3.086   3.643  18.061  0.4872 -0.4511  0.5568
 3638TIP3    H135109   3.148   3.691  18.116  0.3391 -0.0419  0.3655
 3638TIP3    H235110   3.021   3.708  18.035  0.6981 -0.5800 -0.3251
 3639TIP3   OH235111   4.645   7.567  19.301 -0.2097  0.1139 -0.4787
 3639TIP3    H135112   4.617   7.479  19.280 -0.7764  0.3888 -0.9057
 3639TIP3    H235113   4.728   7.556  19.349 -1.3234 -0.7528  1.3606
 3640TIP3   OH235114   5.502   2.863  17.156  0.6144  0.4826  0.1924
 3640TIP3    H135115   5.586   2.855  17.201  2.2569 -0.2073 -2.6861
 3640TIP3    H235116   5.510   2.802  17.082 -0.6799  3.4579 -2.6353
 3641TIP3   OH235117   1.576   0.341  16.483 -0.0908 -0.0043  0.2460
 3641TIP3    H135118   1.526   0.260  16.485  2.2370 -1.5314  1.2429
 3641TIP3    H235119   1.624   0.338  16.400  0.8138 -0.2203  0.7605
 3642TIP3   OH235120   5.322   1.023  17.393 -0.5856  0.3804 -0.8312
 3642TIP3    H135121   5.326   1.117  17.411 -1.4990  0.7137 -2.1721
 3642TIP3    H235122   5.406   1.002  17.353  0.4634  0.1460  1.3584
 3643TIP3   OH235123   7.494   7.551  18.281  0.0570  0.5784  0.7928
 3643TIP3    H135124   7.399   7.555  18.290  0.1750  2.6232  1.7089
 3643TIP3    H235125   7.528   7.597  18.358  1.7888  0.0187  0.4128
 3644TIP3   OH235126   5.968   6.282  17.737  0.5678 -0.9351  0.3003
 3644TIP3    H135127   5.985   6.336  17.660 -0.0630 -1.8753 -0.5197
 3644TIP3    H235128   5.873   6.282  17.746  0.6316 -0.9224  1.0171
 3645TIP3   OH235129   5.656   1.025  17.517 -0.0767 -0.5094  0.3670
 3645TIP3    H135130   5.663   1.062  17.605 -0.0220  0.1448  0.0892
 3645TIP3    H235131   5.638   0.932  17.532  2.6456 -1.0171  1.1243
 3646TIP3   OH235132   4.599   6.424  18.870  0.6847  0.7067 -0.1171
 3646TIP3    H135133   4.547   6.379  18.937  0.3952  0.9636 -0.1668
 3646TIP3    H235134   4.625   6.354  18.810  1.5380  0.3620  0.6336
 3647TIP3   OH235135   1.119   5.345  19.093 -0.5574 -0.5127  0.8804
 3647TIP3    H135136   1.025   5.363  19.093 -0.2267  1.7345 -1.5263
 3647TIP3    H235137   1.150   5.379  19.178 -1.9619 -2.0840  2.0917
 3648TIP3   OH235138   0.139   3.457  17.580 -0.5403  0.6804 -0.0457
 3648TIP3    H135139   0.051   3.435  17.549 -0.7287 -0.3147  1.1174
 3648TIP3    H235140   0.125   3.526  17.645 -0.2147  2.2065 -1.5097
 3649TIP3   OH235141   4.099   2.797  16.830 -0.1434  0.1374 -0.3324
 3649TIP3    H135142   4.026   2.739  16.807  0.1659  0.5226 -2.5144
 3649TIP3    H235143   4.177   2.747  16.806  0.3396 -0.0413  1.4510
 3650TIP3   OH235144   7.061   0.245  17.941  0.1135 -0.3705  0.2682
 3650TIP3    H135145   7.021   0.213  17.860 -0.6745 -0.0162  0.5016
 3650TIP3    H235146   7.012   0.200  18.011 -0.5650  0.8051  0.5824
 3651TIP3   OH235147   1.416   3.218  17.771  0.4745  0.1000  0.3153
 3651TIP3    H135148   1.347   3.209  17.706 -0.5568 -0.8834  1.4878
 3651TIP3    H235149   1.470   3.140  17.761  0.0138 -0.3082  0.9615
 3652TIP3   OH235150   3.555   5.420  17.863  0.3132  0.1799 -0.3302
 3652TIP3    H135151   3.560   5.503  17.817 -1.5645  1.6343  1.8996
 3652TIP3    H235152   3.572   5.441  17.955 -2.8849 -1.2954  0.7810
 3653TIP3   OH235153   0.947   0.878  18.812  0.4978  0.5211  0.1932
 3653TIP3    H135154   0.864   0.840  18.784  0.6688 -0.3171  0.7763
 3653TIP3    H235155   0.926   0.926  18.892  0.5587  0.3221  0.3312
 3654TIP3   OH235156   4.583   7.679  18.517  0.6963  0.2094  0.8524
 3654TIP3    H135157   4.640   7.661  18.442 -0.1887  0.1517  0.1788
 3654TIP3    H235158   4.540   7.595  18.535 -0.6105  0.6963  0.1182
 3655TIP3   OH235159   2.389   2.426  17.208  0.0023 -0.2163 -0.1278
 3655TIP3    H135160   2.325   2.420  17.280  0.4804 -1.1533  0.2299
 3655TIP3    H235161   2.468   2.459  17.250  0.0665 -0.0649 -0.3697
 3656TIP3   OH235162   1.693   5.521  18.711 -0.4234  0.2392 -0.0395
 3656TIP3    H135163   1.720   5.551  18.798  2.2211  0.7587 -0.9650
 3656TIP3    H235164   1.690   5.601  18.658 -0.0378 -0.3136 -0.9094
 3657TIP3   OH235165   4.795   4.022  18.141  0.2149 -0.3364  0.8547
 3657TIP3    H135166   4.889   4.038  18.131  0.2224 -0.1317  1.2424
 3657TIP3    H235167   4.756   4.110  18.145  0.0006 -0.4197  0.6629
 3658TIP3   OH235168   2.990   1.280  17.282  0.0571 -0.5526  0.5312
 3658TIP3    H135169   2.955   1.238  17.203  0.8906  0.5075 -0.4598
 3658TIP3    H235170   2.935   1.249  17.353 -0.9507 -1.2736 -0.5303
 3659TIP3   OH235171   3.511   6.626  18.095 -0.1288 -0.3114  1.3535
 3659TIP3    H135172   3.606   6.615  18.102  0.5700  0.0661 -3.5080
 3659TIP3    H235173   3.474   6.542  18.122  2.1095 -2.2783 -1.1538
 3660TIP3   OH235174   6.353   7.083  16.786  0.3474  0.1394  0.0191
 3660TIP3    H135175   6.439   7.119  16.810  0.2135  0.4724 -0.0016
 3660TIP3    H235176   6.292   7.155  16.800 -0.0182 -0.2829  0.6226
 3661TIP3   OH235177   1.833   2.649  18.910 -0.2300 -0.2348  0.2415
 3661TIP3    H135178   1.741   2.631  18.894  0.0410 -1.1977 -0.3049
 3661TIP3    H235179   1.851   2.609  18.996  0.0324 -1.4139 -0.3416
 3662TIP3   OH235180   7.338   2.601  18.899  0.0350 -0.3194 -0.0979
 3662TIP3    H135181   7.428   2.578  18.921 -0.6060 -0.2164  3.0999
 3662TIP3    H235182   7.343   2.693  18.871  1.2102 -1.1302 -2.9552
 3663TIP3   OH235183   2.785   5.777  19.048  0.3608  0.1470  0.2685
 3663TIP3    H135184   2.801   5.871  19.045 -0.0668  0.4414  3.6711
 3663TIP3    H235185   2.872   5.739  19.063  0.2844  0.1418  0.6857
 3664TIP3   OH235186   2.756   1.862  17.223 -0.0531 -0.4527  0.5444
 3664TIP3    H135187   2.821   1.791  17.222 -0.6924 -1.0387  0.0627
 3664TIP3    H235188   2.781   1.916  17.298  0.7852 -0.8655  0.5698
 3665TIP3   OH235189   6.331   7.622  18.543 -1.1336  0.5484 -0.1240
 3665TIP3    H135190   6.321   7.636  18.449 -1.5996 -1.1829 -0.3641
 3665TIP3    H235191   6.279   7.691  18.584  0.8743  2.7208 -1.0565
 3666TIP3   OH235192   5.587   0.453  16.866 -0.0765  0.3182  0.5243
 3666TIP3    H135193   5.541   0.537  16.868 -0.5534  0.1081 -0.6405
 3666TIP3    H235194   5.562   0.414  16.782  1.5538 -0.2009  0.2461
 3667TIP3   OH235195   6.837   0.694  18.915  0.1085 -0.2243 -0.2721
 3667TIP3    H135196   6.820   0.768  18.857  0.0405  1.1578  1.4225
 3667TIP3    H235197   6.932   0.683  18.913  0.3661  1.4300  1.1868
 3668TIP3   OH235198   5.987   4.790  19.240 -0.1998  0.4907 -0.1685
 3668TIP3    H135199   6.022   4.797  19.151  0.2683  0.9559  0.0480
 3668TIP3    H235200   5.987   4.880  19.273  1.2007  0.1435  0.8946
 3669TIP3   OH235201   6.181   4.196  16.684  0.2439 -0.3580 -0.5500
 3669TIP3    H135202   6.166   4.102  16.686  1.8296 -0.6502  1.8927
 3669TIP3    H235203   6.272   4.206  16.658  0.2161  0.4686 -0.3707
 3670TIP3   OH235204   4.886   5.252  18.691  0.2716 -0.1438 -0.2859
 3670TIP3    H135205   4.796   5.225  18.673  0.8363 -0.8911 -2.1590
 3670TIP3    H235206   4.877   5.341  18.726 -1.1812 -0.2225 -0.3908
 3671TIP3   OH235207   6.847   6.222  16.505 -0.6045 -0.3949 -0.2861
 3671TIP3    H135208   6.940   6.235  16.524 -0.6041  0.8751 -1.0273
 3671TIP3    H235209   6.827   6.289  16.440 -2.4646  0.5178  1.1469
 3672TIP3   OH235210   1.089   6.313  18.162  0.5223 -0.2809  0.6809
 3672TIP3    H135211   1.083   6.260  18.241 -0.6809 -1.9764 -0.4763
 3672TIP3    H235212   1.012   6.369  18.165 -0.3084 -1.3591  0.0474
 3673TIP3   OH235213   5.552   1.134  17.230 -0.0156  0.4941 -0.1363
 3673TIP3    H135214   5.551   1.040  17.213 -0.1781  0.6484 -1.0549
 3673TIP3    H235215   5.644   1.158  17.230  0.1402  0.0259  2.0248
 3674TIP3   OH235216   2.888   1.713  17.744 -0.2129 -0.2869  0.1028
 3674TIP3    H135217   2.924   1.709  17.656 -0.6265  0.8798 -0.1301
 3674TIP3    H235218   2.793   1.722  17.731 -0.2229  0.4830  0.6418
 3675TIP3   OH235219   0.916   4.919  17.545 -0.0429  0.1028 -0.0078
 3675TIP3    H135220   0.821   4.925  17.542  0.0838  2.6231 -0.6444
 3675TIP3    H235221   0.934   4.824  17.547 -2.5187 -0.4230 -0.0387
 3676TIP3   OH235222   4.188   3.976  19.389 -0.3431 -0.3213 -0.0131
 3676TIP3    H135223   4.250   3.949  19.457  0.4877 -1.2943 -1.1228
 3676TIP3    H235224   4.101   3.959  19.427  0.1147 -2.4120  0.2440
 3677TIP3   OH235225   6.438   4.494  18.445 -0.7078  0.2267  0.0715
 3677TIP3    H135226   6.458   4.536  18.528 -1.9493  1.2523 -0.1178
 3677TIP3    H235227   6.381   4.557  18.399 -1.7176 -1.1856 -0.6861
 3678TIP3   OH235228   1.848   3.653  17.327 -0.1787 -0.1536 -0.2687
 3678TIP3    H135229   1.911   3.596  17.284 -0.9922 -0.0356 -1.6864
 3678TIP3    H235230   1.770   3.598  17.340 -0.8670  0.5187 -1.3856
 3679TIP3   OH235231   5.567   1.685  19.151  0.8061  0.3399  0.1588
 3679TIP3    H135232   5.610   1.721  19.073 -1.9495  0.2881 -1.5186
 3679TIP3    H235233   5.512   1.757  19.182  0.3486 -0.2957  0.8384
 3680TIP3   OH235234   1.530   2.701  18.937  0.5224 -0.2918  0.0647
 3680TIP3    H135235   1.458   2.758  18.965 -0.1862 -0.7012 -0.8491
 3680TIP3    H235236   1.539   2.719  18.843 -1.2535 -3.2450 -0.8008
 3681TIP3   OH235237   1.972   0.875  18.912 -0.0003 -0.2318 -0.0258
 3681TIP3    H135238   1.924   0.956  18.896  0.3992  0.1301  0.5680
 3681TIP3    H235239   1.912   0.806  18.884 -0.2765  0.2704 -0.6931
 3682TIP3   OH235240   0.232   1.679  18.187 -0.1718  0.0141 -0.4968
 3682TIP3    H135241   0.205   1.689  18.278  0.7900  1.7280 -0.3502
 3682TIP3    H235242   0.261   1.588  18.180 -2.0315 -0.7033  0.3656
 3683TIP3   OH235243   5.185   4.877  18.099  0.1991 -0.1996  0.3626
 3683TIP3    H135244   5.128   4.894  18.023  0.0950  2.4247  0.9439
 3683TIP3    H235245   5.156   4.791  18.131  0.5510 -1.6348 -2.7569
 3684TIP3   OH235246   7.303   1.215  17.557 -0.0801  0.5632 -0.1080
 3684TIP3    H135247   7.238   1.193  17.491  0.1926 -0.2447 -0.1094
 3684TIP3    H235248   7.367   1.268  17.511 -0.5991  1.1623 -0.1626
 3685TIP3   OH235249   0.228   5.628  16.565  0.5136  0.4502 -0.2479
 3685TIP3    H135250   0.144   5.658  16.529 -0.3887 -1.3369  0.2558
 3685TIP3    H235251   0.293   5.660  16.503 -0.2320  3.8952  0.5208
 3686TIP3   OH235252   2.564   4.688  18.524  0.0660 -0.8443 -0.6518
 3686TIP3    H135253   2.604   4.714  18.441  0.2299 -0.8918 -0.5874
 3686TIP3    H235254   2.634   4.696  18.588 -0.8584  2.6350  0.1712
 3687TIP3   OH235255   4.613   0.221  16.653  0.3573  0.3242  0.1931
 3687TIP3    H135256   4.643   0.130  16.656 -1.0778 -0.1697  0.3180
 3687TIP3    H235257   4.524   0.219  16.690  0.3387  1.7960  0.3121
 3688TIP3   OH235258   3.307   5.594  17.655  0.0453 -0.0295 -0.6754
 3688TIP3    H135259   3.394   5.567  17.682  0.4529  1.6531 -0.1670
 3688TIP3    H235260   3.265   5.624  17.736 -0.6945 -0.0449 -1.0451
 3689TIP3   OH235261   4.059   0.897  18.801 -0.3079  0.2942 -0.3834
 3689TIP3    H135262   4.132   0.836  18.816 -0.7086 -0.1712 -0.3067
 3689TIP3    H235263   4.072   0.927  18.711 -0.7397 -0.7754 -0.8145
 3690TIP3   OH235264   0.256   1.400  17.843  0.3670 -0.1529 -0.0678
 3690TIP3    H135265   0.278   1.308  17.856  2.0365  0.2198  0.0423
 3690TIP3    H235266   0.197   1.421  17.915 -0.2162 -1.1806 -0.2238
 3691TIP3   OH235267   5.508   3.040  18.699  0.1210  0.0583  0.1612
 3691TIP3    H135268   5.599   3.065  18.711 -0.0459  0.1144  1.3671
 3691TIP3    H235269   5.471   3.112  18.647  0.1888  1.2448  1.7033
 3692TIP3   OH235270   0.835   5.664  19.137 -0.1509  0.1498  0.0593
 3692TIP3    H135271   0.878   5.743  19.170 -2.3999  0.9902  1.1951
 3692TIP3    H235272   0.821   5.681  19.044  0.4869  0.5451  0.0333
 3693TIP3   OH235273   7.079   4.206  17.623  0.1194  0.1048  0.6048
 3693TIP3    H135274   7.083   4.181  17.716 -0.3032 -0.1726  0.5481
 3693TIP3    H235275   7.168   4.237  17.604 -0.1991  1.7344  1.5355
 3694TIP3   OH235276   6.526   5.497  17.213  0.2156 -0.2004 -0.4770
 3694TIP3    H135277   6.519   5.453  17.298  1.9877 -0.2409 -0.3131
 3694TIP3    H235278   6.513   5.427  17.149 -3.8560  0.2397 -0.4036
 3695TIP3   OH235279   6.334   5.189  18.416 -0.8262  0.2646 -0.4261
 3695TIP3    H135280   6.392   5.265  18.420 -0.3625 -0.0227 -1.3731
 3695TIP3    H235281   6.251   5.220  18.451  0.0203  0.5519  1.4527
 3696TIP3   OH235282   1.213   1.980  16.816  0.3267  0.0824  0.8340
 3696TIP3    H135283   1.278   1.926  16.771 -0.3654 -0.8634  0.9459
 3696TIP3    H235284   1.140   1.987  16.755  0.9109  1.9732  0.3123
 3697TIP3   OH235285   2.827   0.877  18.668 -0.1063 -0.3879  0.8548
 3697TIP3    H135286   2.748   0.869  18.615  0.2757  2.6885 -0.4144
 3697TIP3    H235287   2.798   0.863  18.757 -2.0916  0.4968  0.3958
 3698TIP3   OH235288   5.437   1.407  18.767  0.1943  0.1330  0.2678
 3698TIP3    H135289   5.366   1.465  18.794 -0.2556  0.1277 -0.8678
 3698TIP3    H235290   5.488   1.393  18.847  0.8813  2.8435  0.3708
 3699TIP3   OH235291   4.059   5.180  18.123  0.2461  0.5554 -0.4715
 3699TIP3    H135292   4.053   5.212  18.214  1.7886  0.7082 -0.3933
 3699TIP3    H235293   4.112   5.246  18.078 -2.2522  1.5985 -2.0651
 3700TIP3   OH235294   0.142   4.156  18.688 -0.6136 -1.0108 -0.2144
 3700TIP3    H135295   0.149   4.103  18.767 -0.6406 -0.7222 -0.0168
 3700TIP3    H235296   0.158   4.095  18.617 -0.2331 -1.2036  0.0339
 3701TIP3   OH235297   7.216   3.464  17.075  0.3197 -0.2101 -1.0952
 3701TIP3    H135298   7.282   3.461  17.006  1.7999  1.7885  0.1218
 3701TIP3    H235299   7.250   3.407  17.143 -0.2255 -0.7389 -1.2587
 3702TIP3   OH235300   5.357   4.198  19.396 -0.0590 -0.8400 -0.1141
 3702TIP3    H135301   5.451   4.187  19.409 -0.0109  1.5618  2.3749
 3702TIP3    H235302   5.348   4.217  19.303  2.1112  0.2553 -0.1595
 3703TIP3   OH235303   2.884   3.879  18.370  0.0489 -0.4380 -1.0075
 3703TIP3    H135304   2.872   3.896  18.463  2.0013 -1.3725 -0.5473
 3703TIP3    H235305   2.859   3.961  18.327 -0.1747  0.2351  0.3700
 3704TIP3   OH235306   4.669   6.254  18.681  0.4417 -0.0868  0.2156
 3704TIP3    H135307   4.722   6.180  18.712 -0.9839 -1.3544 -0.2802
 3704TIP3    H235308   4.668   6.244  18.586 -1.4329 -0.6719  0.2507
 3705TIP3   OH235309   1.677   5.501  17.758  0.2209 -0.0352 -0.2147
 3705TIP3    H135310   1.603   5.561  17.751  0.2644 -0.1533 -1.9645
 3705TIP3    H235311   1.639   5.417  17.781 -0.3210 -0.2956 -1.9342
 3706TIP3   OH235312   6.270   7.482  17.623 -0.0637  0.3935 -0.1336
 3706TIP3    H135313   6.302   7.528  17.700  0.1389 -0.0564  0.0570
 3706TIP3    H235314   6.178   7.505  17.617  0.1000  1.0469 -0.2110
 3707TIP3   OH235315   3.384   2.183  19.031  0.7051 -0.2685 -0.3932
 3707TIP3    H135316   3.391   2.257  18.970  0.7237 -0.9285 -1.2134
 3707TIP3    H235317   3.291   2.178  19.052  0.3998 -1.1287 -1.7966
 3708TIP3   OH235318   2.116   1.691  17.670  0.4298 -0.6820  0.4150
 3708TIP3    H135319   2.095   1.631  17.598  0.3499  3.1638 -3.1904
 3708TIP3    H235320   2.032   1.709  17.711  0.1077 -1.2917  0.0437
 3709TIP3   OH235321   3.850   3.741  17.500 -0.4986  0.1442 -0.3640
 3709TIP3    H135322   3.776   3.800  17.486  0.7539  1.8582 -0.0552
 3709TIP3    H235323   3.882   3.723  17.411 -2.1362 -1.8527 -0.6307
 3710TIP3   OH235324   2.535   7.584  18.811 -0.1054  0.0633  0.2505
 3710TIP3    H135325   2.562   7.581  18.720 -1.8830  0.4348 -0.3249
 3710TIP3    H235326   2.511   7.675  18.826 -0.2072 -0.0740  0.9742
 3711TIP3   OH235327   7.611   5.412  16.397 -0.3505  0.0942  0.1881
 3711TIP3    H135328   7.696   5.374  16.375 -0.5160 -0.1333 -0.0632
 3711TIP3    H235329   7.606   5.405  16.492  0.4374  1.2343  0.3346
 3712TIP3   OH235330   3.166   4.407  17.310  0.1508  0.4747  0.0222
 3712TIP3    H135331   3.217   4.377  17.235 -1.2812  0.3087 -0.9311
 3712TIP3    H235332   3.129   4.491  17.282  0.6887  1.0809  1.0653
 3713TIP3   OH235333   7.655   2.992  16.867  0.3080  0.0903 -0.2009
 3713TIP3    H135334   7.689   2.924  16.810 -0.8640 -0.8559  0.1799
 3713TIP3    H235335   7.569   2.959  16.895  1.1864  0.0723  2.8327
 3714TIP3   OH235336   6.503   0.078  17.693 -0.7606 -0.1018  0.5148
 3714TIP3    H135337   6.492   0.005  17.754 -0.5621 -1.8096 -1.3820
 3714TIP3    H235338   6.428   0.135  17.710 -0.3221 -0.1193  2.8111
 3715TIP3   OH235339   7.238   2.933  17.945 -0.4468 -0.2451 -0.2178
 3715TIP3    H135340   7.316   2.904  17.991  0.0077 -0.4222 -1.0865
 3715TIP3    H235341   7.259   2.923  17.853 -0.6157  1.9152 -0.5460
 3716TIP3   OH235342   4.146   0.632  18.717  0.1589  0.1329  0.2019
 3716TIP3    H135343   4.098   0.551  18.736  0.9061 -0.5793 -0.7807
 3716TIP3    H235344   4.097   0.672  18.645  0.8155 -0.4252 -0.5776
 3717TIP3   OH235345   5.093   6.929  17.555  0.5424  0.1457  0.3788
 3717TIP3    H135346   5.181   6.958  17.574  0.5202  1.0707 -0.8239
 3717TIP3    H235347   5.102   6.874  17.477 -0.1866  2.0816 -1.1352
 3718TIP3   OH235348   5.503   0.545  18.270 -0.4202 -0.9861 -0.1325
 3718TIP3    H135349   5.441   0.505  18.209  0.8328 -0.8795 -1.5005
 3718TIP3    H235350   5.577   0.485  18.272  1.4451  1.0714 -2.1209
 3719TIP3   OH235351   5.264   6.489  16.854  0.4393 -0.2202  0.0330
 3719TIP3    H135352   5.212   6.448  16.786  1.6456 -0.5989 -0.6852
 3719TIP3    H235353   5.308   6.563  16.811 -0.9123  1.2534  1.0652
 3720TIP3   OH235354   1.757   6.916  16.836  0.5788  0.6243 -0.1484
 3720TIP3    H135355   1.662   6.910  16.823  0.6809  0.1383 -0.7270
 3720TIP3    H235356   1.769   6.901  16.930  0.2020 -1.2301 -0.3539
 3721TIP3   OH235357   4.560   4.569  17.888 -0.0421 -0.0727  0.3294
 3721TIP3    H135358   4.613   4.644  17.859 -1.3652  0.3800 -1.0150
 3721TIP3    H235359   4.615   4.493  17.870  0.6753  0.4662  0.2032
 3722TIP3   OH235360   5.129   1.331  17.644  0.0305  0.1465 -0.1634
 3722TIP3    H135361   5.154   1.381  17.722  1.5593 -0.2079 -0.3924
 3722TIP3    H235362   5.034   1.342  17.638 -0.1794 -0.0943  1.9294
 3723TIP3   OH235363   1.140   3.743  16.631 -0.1766 -0.0866  0.3045
 3723TIP3    H135364   1.185   3.773  16.552  0.1938 -1.4001 -0.0094
 3723TIP3    H235365   1.134   3.820  16.686  1.8798  0.2898  0.0664
 3724TIP3   OH235366   6.940   1.560  17.903 -0.6811 -0.5650 -0.1739
 3724TIP3    H135367   6.918   1.525  17.817 -0.2485  0.4237 -0.6924
 3724TIP3    H235368   6.869   1.620  17.924  0.1818  0.6918 -0.7281
 3725TIP3   OH235369   2.890   5.163  17.730 -0.2346  0.6022  0.1514
 3725TIP3    H135370   2.857   5.189  17.816  0.4932  2.2867 -0.0318
 3725TIP3    H235371   2.922   5.245  17.691  1.3895 -0.4591 -0.8695
 3726TIP3   OH235372   0.250   6.243  17.125  0.0826  0.1052  0.8309
 3726TIP3    H135373   0.170   6.295  17.127  0.4106  0.6099  1.5352
 3726TIP3    H235374   0.228   6.164  17.174  0.1188  0.4268  1.3866
 3727TIP3   OH235375   5.684   7.163  18.109 -0.3096  0.1839  0.3844
 3727TIP3    H135376   5.740   7.097  18.067  1.5908  1.8087  0.2486
 3727TIP3    H235377   5.716   7.167  18.199  0.9388  2.2161 -0.0807
 3728TIP3   OH235378   5.044   6.237  18.725 -0.1516 -0.6964 -0.7041
 3728TIP3    H135379   5.096   6.196  18.794 -1.0450 -2.1196 -0.8301
 3728TIP3    H235380   4.954   6.214  18.746 -0.5195 -0.3356 -1.8129
 3729TIP3   OH235381   4.119   1.255  17.461 -0.4385  0.2299 -0.4754
 3729TIP3    H135382   4.140   1.335  17.414  1.5353 -0.3804 -0.7348
 3729TIP3    H235383   4.054   1.281  17.526  0.5821  2.1785 -0.1723
 3730TIP3   OH235384   2.166   3.614  19.153 -0.1954  0.6600 -0.0888
 3730TIP3    H135385   2.129   3.560  19.083  0.0010  0.2308  0.1355
 3730TIP3    H235386   2.244   3.655  19.114 -0.4849  0.9873 -0.3348
 3731TIP3   OH235387   7.308   0.408  17.003  0.4198 -0.1044  0.3439
 3731TIP3    H135388   7.270   0.373  16.923 -2.1151 -0.6806  1.6938
 3731TIP3    H235389   7.313   0.503  16.989 -0.7232 -0.1139 -0.2362
 3732TIP3   OH235390   1.683   2.448  18.223  0.2864 -0.6632  0.4377
 3732TIP3    H135391   1.618   2.439  18.154 -0.2769 -1.5968  1.0721
 3732TIP3    H235392   1.639   2.417  18.302  1.1106 -0.1627  1.1099
 3733TIP3   OH235393   5.431   3.856  18.062  0.2276  0.4797  0.3718
 3733TIP3    H135394   5.443   3.779  18.006  2.1578  0.4926  0.6972
 3733TIP3    H235395   5.373   3.827  18.132  0.3165 -0.4558  0.0622
 3734TIP3   OH235396   0.445   5.829  18.168  0.1802  0.1537 -0.5839
 3734TIP3    H135397   0.383   5.776  18.119  2.0605 -0.9852 -1.8278
 3734TIP3    H235398   0.488   5.768  18.227  1.5679  0.4739 -1.2248
 3735TIP3   OH235399   5.363   6.714  19.183 -0.5319 -0.0841  0.0876
 3735TIP3    H135400   5.275   6.680  19.165 -0.0735 -1.4840  0.3751
 3735TIP3    H235401   5.422   6.652  19.142  0.3434  1.1450 -0.5854
 3736TIP3   OH235402   3.373   7.564  18.883  0.1661  0.1510  0.4962
 3736TIP3    H135403   3.321   7.616  18.823 -1.1208 -1.3781  0.2263
 3736TIP3    H235404   3.325   7.565  18.965 -0.4092 -1.3681  0.2132
 3737TIP3   OH235405   4.337   2.888  16.544  0.0772 -0.3450 -0.7440
 3737TIP3    H135406   4.397   2.884  16.619 -0.2759  0.2837 -0.4134
 3737TIP3    H235407   4.259   2.930  16.580 -0.4740 -0.9541 -1.2284
 3738TIP3   OH235408   4.074   7.235  17.688 -0.5606 -0.5856  0.4105
 3738TIP3    H135409   4.037   7.151  17.661  1.2252 -1.1303 -0.5162
 3738TIP3    H235410   4.007   7.299  17.665 -1.8297 -1.7086  0.8427
 3739TIP3   OH235411   1.754   1.081  18.090 -0.7748 -0.7371 -0.4045
 3739TIP3    H135412   1.835   1.103  18.044 -2.3340 -0.0108 -2.9973
 3739TIP3    H235413   1.711   1.165  18.103 -0.5271 -0.9423  2.3124
 3740TIP3   OH235414   0.191   3.959  18.468  0.6247 -0.7764  0.7175
 3740TIP3    H135415   0.181   4.033  18.407  0.8374 -1.1378  0.2367
 3740TIP3    H235416   0.230   3.890  18.415 -0.3135 -1.5038  0.9598
 3741TIP3   OH235417   6.635   0.815  18.261  0.2908 -0.3571 -0.1481
 3741TIP3    H135418   6.720   0.854  18.239  0.6390  0.1349  1.8344
 3741TIP3    H235419   6.654   0.722  18.272  0.7080 -0.1704  0.8080
 3742TIP3   OH235420   2.141   5.051  17.908  0.6978 -0.8316  0.3841
 3742TIP3    H135421   2.090   4.970  17.913 -0.9364  0.2452  2.5061
 3742TIP3    H235422   2.139   5.086  17.997  0.9109  1.8375 -0.5858
 3743TIP3   OH235423   6.146   6.946  18.840  0.1638  0.1200  0.5405
 3743TIP3    H135424   6.208   7.018  18.841  1.2063 -0.7523  0.7982
 3743TIP3    H235425   6.198   6.870  18.812 -0.9258 -0.5137  0.1492
 3744TIP3   OH235426   4.288   1.655  17.812  0.5880  0.3117 -0.1685
 3744TIP3    H135427   4.299   1.729  17.871  0.6611 -0.2395  0.5273
 3744TIP3    H235428   4.298   1.692  17.725 -2.7710  1.7987 -0.0677
 3745TIP3   OH235429   3.448   6.784  16.593  0.2854 -0.0006  0.3813
 3745TIP3    H135430   3.398   6.773  16.512 -0.9480 -1.1273  1.2577
 3745TIP3    H235431   3.382   6.782  16.662  1.3130  0.9528  1.4353
 3746TIP3   OH235432   0.725   5.953  18.086  0.5652  0.1682  0.0237
 3746TIP3    H135433   0.655   5.958  18.152  0.7464 -0.9219  0.3102
 3746TIP3    H235434   0.690   6.002  18.011  0.2622  1.2217  0.8276
 3747TIP3   OH235435   5.912   5.387  18.654  0.0188 -0.0018  0.2236
 3747TIP3    H135436   5.970   5.348  18.719  0.2200  0.9172  0.6121
 3747TIP3    H235437   5.879   5.313  18.604  1.1389 -0.5879  0.3185
 3748TIP3   OH235438   6.666   6.353  18.225 -0.0547  0.8643  0.4571
 3748TIP3    H135439   6.712   6.362  18.142 -0.6338 -0.5586 -0.0367
 3748TIP3    H235440   6.579   6.388  18.208 -0.2174  0.4444  0.4223
 3749TIP3   OH235441   0.848   6.506  18.506 -0.2432  0.4542 -0.4410
 3749TIP3    H135442   0.765   6.479  18.545  0.7771 -1.1528  0.7263
 3749TIP3    H235443   0.906   6.519  18.581  0.4664  1.9944 -1.2154
 3750TIP3   OH235444   6.020   5.098  18.410 -0.3466  0.0163 -0.0541
 3750TIP3    H135445   5.939   5.046  18.407  0.6045 -1.5052 -0.3657
 3750TIP3    H235446   6.072   5.059  18.480  0.8921 -0.2370 -1.0809
 3751TIP3   OH235447   5.290   5.041  17.600 -0.2582  0.0888 -0.0868
 3751TIP3    H135448   5.229   5.008  17.534  0.8095 -1.3796 -0.4161
 3751TIP3    H235449   5.372   5.053  17.552  0.9025 -2.2445  1.1282
 3752TIP3   OH235450   6.251   6.071  16.743  0.1533  0.0842 -0.2296
 3752TIP3    H135451   6.210   6.143  16.792 -0.5962  0.1646 -0.9556
 3752TIP3    H235452   6.345   6.086  16.753  0.0269  0.0690  1.2158
 3753TIP3   OH235453   4.754   3.794  16.987 -0.1406  0.3267 -0.2218
 3753TIP3    H135454   4.723   3.756  17.069 -1.6491 -0.7480 -1.2309
 3753TIP3    H235455   4.824   3.735  16.958  1.6191  1.6677  1.0878
 3754TIP3   OH235456   3.216   4.583  18.029  0.3171 -0.2475 -0.0830
 3754TIP3    H135457   3.217   4.496  17.989  1.5176 -0.0818 -0.4598
 3754TIP3    H235458   3.271   4.573  18.107  0.1426  0.0772  0.0819
 3755TIP3   OH235459   2.768   3.506  17.777 -0.4431 -0.2980 -0.7751
 3755TIP3    H135460   2.761   3.432  17.837 -3.0023 -1.1003 -1.9026
 3755TIP3    H235461   2.688   3.557  17.793 -1.5790 -0.8978 -3.8171
 3756TIP3   OH235462   6.996   4.157  17.876 -0.6494  0.3674  0.6469
 3756TIP3    H135463   6.912   4.138  17.836 -1.8672  1.7411  2.4111
 3756TIP3    H235464   6.993   4.114  17.961  1.2582 -1.1703  0.0396
 3757TIP3   OH235465   1.415   6.942  18.062 -0.5920  0.1149 -0.1451
 3757TIP3    H135466   1.480   6.942  17.991  0.8808  1.9539  1.0992
 3757TIP3    H235467   1.343   6.995  18.028  0.0290  0.8424 -0.3801
 3758TIP3   OH235468   3.382   6.506  18.624 -0.3786 -0.0658  0.6706
 3758TIP3    H135469   3.350   6.530  18.537  1.4354 -0.4937 -0.1589
 3758TIP3    H235470   3.415   6.417  18.613  1.5005  0.5109  1.3360
 3759TIP3   OH235471   1.111   7.673  16.987 -0.1288 -0.3871 -0.3000
 3759TIP3    H135472   1.188   7.633  16.946 -0.2038 -0.2671 -0.5613
 3759TIP3    H235473   1.047   7.679  16.916 -0.2195 -0.0724 -0.1910
 3760TIP3   OH235474   1.759   5.471  16.394 -0.0763 -0.4661  0.0008
 3760TIP3    H135475   1.685   5.502  16.342  0.8935 -0.4469 -1.4346
 3760TIP3    H235476   1.811   5.419  16.333  1.0695 -0.5251  0.9861
 3761TIP3   OH235477   3.971   5.318  17.325  0.4194  0.5047  0.2068
 3761TIP3    H135478   3.975   5.413  17.314  1.1587  0.5855  1.0038
 3761TIP3    H235479   3.951   5.305  17.418 -0.8575 -0.1296 -0.1315
 3762TIP3   OH235480   3.811   2.009  19.220 -0.9041  0.4378 -0.9685
 3762TIP3    H135481   3.745   2.077  19.206 -1.8001 -0.4222 -0.9668
 3762TIP3    H235482   3.785   1.966  19.302 -1.5023 -1.1984 -1.9717
 3763TIP3   OH235483   3.924   4.532  19.205  0.1341  0.1404 -0.4476
 3763TIP3    H135484   3.951   4.478  19.279  0.8166  1.1795  0.0978
 3763TIP3    H235485   3.988   4.603  19.203 -0.0095  0.2706 -1.9003
 3764TIP3   OH235486   1.906   6.169  16.074 -0.0359  0.0699 -0.1676
 3764TIP3    H135487   1.844   6.182  16.146  1.1638 -0.9216  1.0863
 3764TIP3    H235488   1.865   6.102  16.019 -0.9366  0.7972 -0.3959
 3765TIP3   OH235489   4.648   5.327  18.911  0.4168 -0.3229 -0.5630
 3765TIP3    H135490   4.556   5.324  18.937  0.6809 -0.7789  0.3630
 3765TIP3    H235491   4.681   5.239  18.928  1.3387  0.1723  0.3045
 3766TIP3   OH235492   1.977   1.170  16.678 -0.1120  0.0889  0.3212
 3766TIP3    H135493   2.008   1.242  16.623  0.3786 -0.2546  0.1423
 3766TIP3    H235494   2.003   1.091  16.631  0.6913 -0.2192  1.2514
 3767TIP3   OH235495   5.390   3.672  19.130  0.1996  0.4244 -0.4966
 3767TIP3    H135496   5.345   3.592  19.104  0.8589  0.6316 -2.4509
 3767TIP3    H235497   5.344   3.701  19.208 -0.8560 -1.1855 -0.4688
 3768TIP3   OH235498   5.682   4.134  17.803  0.2076 -0.3940  0.1080
 3768TIP3    H135499   5.727   4.172  17.878 -1.0059 -1.1393  1.2489
 3768TIP3    H235500   5.741   4.150  17.729  1.3914  0.4260  1.1910
 3769TIP3   OH235501   7.670   7.443  16.939 -0.1544 -0.1549  0.0524
 3769TIP3    H135502   7.712   7.408  16.861 -1.8349  1.2824 -1.5657
 3769TIP3    H235503   7.623   7.520  16.909 -2.9575 -0.9692  1.9440
 3770TIP3   OH235504   4.181   1.678  18.178  0.2464 -0.6881 -0.0145
 3770TIP3    H135505   4.137   1.664  18.094  1.1230 -0.6801 -0.4868
 3770TIP3    H235506   4.153   1.765  18.206  0.0770 -0.6239 -0.3804
 3771TIP3   OH235507   6.226   1.258  17.661  0.3824  0.0248  0.5084
 3771TIP3    H135508   6.242   1.348  17.687  0.0138 -0.3758  2.2376
 3771TIP3    H235509   6.145   1.261  17.609  1.1210  0.8432 -0.6332
 3772TIP3   OH235510   1.297   1.893  18.513  0.4581  0.0745 -0.0823
 3772TIP3    H135511   1.379   1.855  18.547  1.6092  1.9182 -0.6740
 3772TIP3    H235512   1.293   1.863  18.422 -0.1307 -0.9241  0.2576
 3773TIP3   OH235513   0.763   7.047  18.793 -0.4496 -0.5193  0.4862
 3773TIP3    H135514   0.766   7.076  18.885  2.8086 -2.0985  1.0469
 3773TIP3    H235515   0.727   6.959  18.797  0.4446 -0.9055  0.4249
 3774TIP3   OH235516   5.016   0.259  18.311 -0.2155 -0.4825 -0.3266
 3774TIP3    H135517   5.020   0.252  18.215 -0.4731 -0.6423 -0.3266
 3774TIP3    H235518   4.923   0.258  18.331 -0.3163  2.3606 -0.2670
 3775TIP3   OH235519   2.198   2.215  17.557 -0.3345  0.4393  0.1886
 3775TIP3    H135520   2.188   2.212  17.652  2.8301 -1.4996  0.5976
 3775TIP3    H235521   2.246   2.296  17.541  0.9337 -0.2097  0.5463
 3776TIP3   OH235522   4.155   3.105  17.443 -0.0500 -0.1330 -0.7040
 3776TIP3    H135523   4.126   3.152  17.521 -1.3892 -0.4631 -0.9777
 3776TIP3    H235524   4.212   3.036  17.477  1.6473  1.4173 -0.2705
 3777TIP3   OH235525   5.369   2.811  19.200 -0.2922  0.0485 -0.5656
 3777TIP3    H135526   5.399   2.724  19.174  0.9540  0.7827 -1.7295
 3777TIP3    H235527   5.305   2.836  19.133 -1.5646 -0.4069  0.4204
 3778TIP3   OH235528   6.426   7.019  19.280 -0.0936  0.3078 -0.3711
 3778TIP3    H135529   6.363   7.044  19.212  0.3959  0.3952 -0.7971
 3778TIP3    H235530   6.391   6.936  19.314 -0.7818  0.6777 -0.1533
 3779TIP3   OH235531   0.525   1.680  18.982 -0.0001 -0.3318 -0.2724
 3779TIP3    H135532   0.487   1.749  19.036 -1.1962  0.6609 -2.2812
 3779TIP3    H235533   0.569   1.726  18.910  1.9346 -1.5963  0.0097
 3780TIP3   OH235534   6.691   7.437  16.975 -0.3505 -0.4953 -0.2446
 3780TIP3    H135535   6.636   7.505  17.014  0.4133 -0.2526  0.4445
 3780TIP3    H235536   6.780   7.464  16.995 -0.0439 -2.1622  0.8841
 3781TIP3   OH235537   5.503   5.363  18.354  0.1975  0.5190  0.1638
 3781TIP3    H135538   5.570   5.407  18.407 -1.2785  1.7424  1.1149
 3781TIP3    H235539   5.545   5.347  18.270  1.2740  2.5080  0.2672
 3782TIP3   OH235540   2.524   7.210  17.070 -0.0053 -0.0931  0.6897
 3782TIP3    H135541   2.598   7.234  17.125 -0.8647 -0.2392  1.9440
 3782TIP3    H235542   2.447   7.234  17.121 -0.8333  0.4452 -0.7690
 3783TIP3   OH235543   4.697   2.206  19.085  0.6493  0.2976 -0.5709
 3783TIP3    H135544   4.733   2.290  19.056  0.7727  0.2710 -0.4985
 3783TIP3    H235545   4.773   2.158  19.118  0.4774  0.4244  0.0179
 3784TIP3   OH235546   2.858   7.205  18.622  0.2278  0.0129 -0.6571
 3784TIP3    H135547   2.912   7.270  18.667  0.8808 -0.7186 -0.3477
 3784TIP3    H235548   2.921   7.155  18.569 -0.2637 -0.3573 -0.8982
 3785TIP3   OH235549   2.500   2.777  18.521  0.0546  0.1510  0.3292
 3785TIP3    H135550   2.442   2.723  18.575  0.0212 -1.1470 -0.9376
 3785TIP3    H235551   2.584   2.732  18.524 -0.0410 -0.1578 -0.9497
 3786TIP3   OH235552   3.388   2.914  17.686 -0.0652  0.0312  0.4855
 3786TIP3    H135553   3.478   2.948  17.686  0.2896 -0.8799  0.3006
 3786TIP3    H235554   3.333   2.992  17.682  0.7359  0.5693 -0.5363
 3787TIP3   OH235555   2.191   1.021  17.506 -0.6776  0.4114 -0.5469
 3787TIP3    H135556   2.138   0.995  17.581  1.2153  2.8696  1.8505
 3787TIP3    H235557   2.245   0.944  17.487 -1.1729 -0.2602  0.6493
 3788TIP3   OH235558   3.542   1.222  17.395 -0.2092 -0.4498 -0.4429
 3788TIP3    H135559   3.476   1.157  17.370 -0.3322 -0.0673 -1.1500
 3788TIP3    H235560   3.501   1.271  17.466  0.6169 -2.3410  1.4375
 3789TIP3   OH235561   6.079   1.852  17.415  0.8870 -0.6855  0.0434
 3789TIP3    H135562   6.018   1.923  17.438  1.7517  0.5149 -1.1697
 3789TIP3    H235563   6.064   1.785  17.481 -1.2416 -0.1295  0.2011
 3790TIP3   OH235564   5.241   5.361  18.648 -0.1802 -0.2258  0.0364
 3790TIP3    H135565   5.336   5.350  18.659 -0.0841 -0.6595 -1.0821
 3790TIP3    H235566   5.232   5.430  18.583 -0.6090 -0.8803 -0.6103
 3791TIP3   OH235567   5.303   1.676  18.256 -0.7021  0.3953  0.3425
 3791TIP3    H135568   5.293   1.770  18.269 -0.4475  0.2164  2.1243
 3791TIP3    H235569   5.273   1.638  18.338  3.0002 -0.8346  1.2857
 3792TIP3   OH235570   2.917   2.792  18.356 -0.6154  0.0376 -0.5723
 3792TIP3    H135571   2.902   2.810  18.263  0.8481  0.7657 -0.7108
 3792TIP3    H235572   2.998   2.740  18.357 -0.6428  0.0023  0.2866
 3793TIP3   OH235573   3.486   3.772  18.470 -0.5055  0.0722 -0.2212
 3793TIP3    H135574   3.449   3.824  18.541 -1.1041  1.2549 -1.3542
 3793TIP3    H235575   3.423   3.780  18.399 -0.5819 -2.1883 -0.4743
 3794TIP3   OH235576   1.930   6.357  18.515  0.1926 -0.4275 -0.2102
 3794TIP3    H135577   1.951   6.445  18.544 -1.0179 -0.1672 -0.0664
 3794TIP3    H235578   1.996   6.301  18.557  0.5652  0.3232  0.2271
 3795TIP3   OH235579   4.617   0.230  18.658 -0.0149  0.0736  0.2206
 3795TIP3    H135580   4.556   0.245  18.731 -1.4888 -0.0898 -0.9150
 3795TIP3    H235581   4.594   0.143  18.626 -0.5818  0.8260 -1.4957
 3796TIP3   OH235582   5.406   1.921  19.203 -0.8846 -0.2824 -0.1799
 3796TIP3    H135583   5.493   1.961  19.198  0.0902 -1.9272  2.0457
 3796TIP3    H235584   5.347   1.988  19.169  0.9163  2.0980  1.0944
 3797TIP3   OH235585   0.090   6.219  17.784  0.3245 -0.0206  0.1512
 3797TIP3    H135586   0.022   6.188  17.726  0.4055  0.6528 -0.3241
 3797TIP3    H235587   0.159   6.252  17.725 -0.5753  2.8576  0.5313
 3798TIP3   OH235588   6.769   5.161  18.300 -0.5575  0.4283 -0.0051
 3798TIP3    H135589   6.728   5.155  18.214  1.5581  0.1264 -1.0462
 3798TIP3    H235590   6.825   5.084  18.306  1.6326  1.9538  0.3422
 3799TIP3   OH235591   6.792   5.242  17.387 -0.4028  0.7917 -0.6747
 3799TIP3    H135592   6.835   5.204  17.463 -1.5120  2.0055  0.6088
 3799TIP3    H235593   6.776   5.167  17.329 -1.1525 -0.4868  1.0726
 3800TIP3   OH235594   1.281   0.134  18.599 -0.1503  0.5669  0.5530
 3800TIP3    H135595   1.353   0.079  18.567  0.8490  1.2145  1.6034
 3800TIP3    H235596   1.267   0.198  18.529  0.1379  0.2865  0.2355
 3801TIP3   OH235597   3.823   7.388  19.148 -0.2857  0.5611  0.1833
 3801TIP3    H135598   3.757   7.454  19.126 -2.4970 -1.3077  0.7544
 3801TIP3    H235599   3.818   7.379  19.243 -0.6996 -1.0018  0.0501
 3802TIP3   OH235600   4.024   3.286  17.085 -0.1830  0.5185  0.0464
 3802TIP3    H135601   3.932   3.291  17.060 -0.1838  0.3086  0.0130
 3802TIP3    H235602   4.058   3.209  17.040  0.2421  1.1243 -0.6953
 3803TIP3   OH235603   5.256   3.438  19.088 -0.0165  0.1656  0.4643
 3803TIP3    H135604   5.210   3.398  19.162 -0.3687  1.3878  0.9224
 3803TIP3    H235605   5.337   3.388  19.080  1.7015  2.0951  3.8871
 3804TIP3   OH235606   3.837   4.860  18.836 -0.0129 -0.0700  0.7315
 3804TIP3    H135607   3.842   4.856  18.931  0.2845  0.9143  0.7624
 3804TIP3    H235608   3.857   4.771  18.808  0.0733 -0.3279  1.5794
 3805TIP3   OH235609   4.674   0.345  16.984 -0.0345  0.1326  0.1338
 3805TIP3    H135610   4.678   0.275  17.049  0.5571 -0.1024 -0.1474
 3805TIP3    H235611   4.682   0.300  16.900 -2.6323  0.2303 -0.2430
 3806TIP3   OH235612   7.247   0.330  18.842  0.5396 -0.0247 -0.4074
 3806TIP3    H135613   7.312   0.400  18.849 -0.8751  1.4311 -1.0700
 3806TIP3    H235614   7.245   0.307  18.749  0.4305 -0.3928 -0.3178
 3807TIP3   OH235615   1.897   1.447  18.067  0.9843  0.0453 -0.3766
 3807TIP3    H135616   1.923   1.355  18.060  2.8632  0.2981  1.7779
 3807TIP3    H235617   1.900   1.465  18.161  1.9154  2.6321 -0.8185
 3808TIP3   OH235618   6.547   0.334  18.413 -0.2602  0.4992  0.1182
 3808TIP3    H135619   6.600   0.259  18.440 -0.5503  0.5955  0.9873
 3808TIP3    H235620   6.610   0.397  18.379  0.2205  0.6765  1.2847
 3809TIP3   OH235621   3.873   7.439  17.660 -0.5127  0.5183  0.3641
 3809TIP3    H135622   3.794   7.468  17.615 -1.8269 -0.4649  1.9257
 3809TIP3    H235623   3.845   7.424  17.751  1.8401  1.7061  1.3793
 3810TIP3   OH235624   6.615   6.007  17.367 -0.0258  0.1430  0.3484
 3810TIP3    H135625   6.541   6.006  17.429  0.6157 -1.0098  1.1231
 3810TIP3    H235626   6.678   6.067  17.407  0.2850 -0.4133  0.7075
 3811TIP3   OH235627   2.059   3.697  18.122 -0.0163 -0.3357  0.1953
 3811TIP3    H135628   2.011   3.756  18.064  0.0936 -1.2064 -0.8131
 3811TIP3    H235629   2.006   3.693  18.202  0.2889  1.5692  0.5276
 3812TIP3   OH235630   6.552   0.173  18.783 -0.2411  0.1052  0.1818
 3812TIP3    H135631   6.532   0.159  18.690 -1.0432 -2.7584  0.6709
 3812TIP3    H235632   6.478   0.222  18.817 -1.8804 -2.0447 -0.0296
 3813TIP3   OH235633   4.845   6.572  16.595 -0.3594 -0.3007  0.1419
 3813TIP3    H135634   4.907   6.613  16.656  0.2978 -2.0640  0.7141
 3813TIP3    H235635   4.780   6.640  16.579  1.5804  1.5814 -0.3420
 3814TIP3   OH235636   6.563   2.639  17.784 -0.2580  0.6004 -0.2770
 3814TIP3    H135637   6.564   2.668  17.692  0.1866 -1.1044 -0.8452
 3814TIP3    H235638   6.650   2.603  17.799 -0.5918  0.1195  0.5735
 3815TIP3   OH235639   1.178   5.410  16.278  0.3420 -0.0721  0.1583
 3815TIP3    H135640   1.135   5.349  16.218  1.0672 -0.6309  0.1830
 3815TIP3    H235641   1.175   5.494  16.233  0.2629 -0.3454 -0.3616
 3816TIP3   OH235642   6.328   6.739  19.305 -0.1872  0.0817  0.2848
 3816TIP3    H135643   6.281   6.733  19.222  0.7323 -0.2035 -0.2285
 3816TIP3    H235644   6.263   6.714  19.371 -0.8284 -0.0458 -0.3808
 3817TIP3   OH235645   5.857   5.599  19.010  0.0516 -0.0823 -0.4422
 3817TIP3    H135646   5.898   5.595  19.096 -1.0372 -0.6384  0.0633
 3817TIP3    H235647   5.827   5.689  19.002 -0.8167 -0.3106  0.2244
 3818TIP3   OH235648   0.012   1.425  17.346 -0.2735 -0.6403  0.3559
 3818TIP3    H135649   0.057   1.459  17.423 -1.9402  0.4681  0.8814
 3818TIP3    H235650  -0.017   1.504  17.299 -0.6726 -1.3241 -0.5700
 3819TIP3   OH235651   2.448   6.133  18.865  0.6327 -0.6380 -0.5956
 3819TIP3    H135652   2.525   6.175  18.905  1.3901 -1.5237 -1.0899
 3819TIP3    H235653   2.418   6.196  18.800 -1.5947  1.5798  2.2963
 3820TIP3   OH235654   5.390   0.202  17.812 -0.0346  0.5434  0.5911
 3820TIP3    H135655   5.435   0.287  17.816 -0.2155  0.5920  2.1173
 3820TIP3    H235656   5.375   0.179  17.904  0.6785 -1.5118  0.2373
 3821TIP3   OH235657   2.382   4.321  16.793  0.4930 -0.0496 -0.1192
 3821TIP3    H135658   2.361   4.228  16.800  0.1195  0.1592  2.9894
 3821TIP3    H235659   2.339   4.349  16.713 -0.7517 -2.2129 -0.3026
 3822TIP3   OH235660   4.120   5.439  18.050 -1.1766 -0.0514  0.2655
 3822TIP3    H135661   4.181   5.434  18.124 -0.7395 -0.3416 -0.1139
 3822TIP3    H235662   4.175   5.459  17.974 -1.7169  1.0633  0.1352
 3823TIP3   OH235663   5.002   2.139  16.975 -0.6387  0.3218 -0.2646
 3823TIP3    H135664   4.970   2.113  16.889 -1.8579  0.7964  0.0270
 3823TIP3    H235665   5.059   2.067  17.002  0.0582  0.3441 -1.6121
 3824TIP3   OH235666   3.342   2.591  17.857 -0.1130 -0.2979 -0.5845
 3824TIP3    H135667   3.390   2.575  17.938 -1.9644  0.0126  0.6537
 3824TIP3    H235668   3.267   2.531  17.862 -0.1634 -0.4070 -2.1837
 3825TIP3   OH235669   1.323   0.488  18.733  0.3548  0.1033 -0.0874
 3825TIP3    H135670   1.248   0.468  18.789  0.9572 -1.4648  0.2130
 3825TIP3    H235671   1.307   0.577  18.702 -0.6220  0.5467  1.5723
 3826TIP3   OH235672   7.193   7.394  17.391  0.3810  0.0549  0.2348
 3826TIP3    H135673   7.185   7.486  17.418  1.6261 -0.3765  2.2806
 3826TIP3    H235674   7.247   7.354  17.459  0.0788 -2.1535 -0.7550
 3827TIP3   OH235675   1.509   5.951  18.100 -0.0587  1.0095  0.5234
 3827TIP3    H135676   1.475   5.968  18.012 -0.8783 -1.1629  0.3847
 3827TIP3    H235677   1.460   5.876  18.132  0.3921  1.5775  2.7786
 3828TIP3   OH235678   4.663   7.674  17.328  0.5098 -0.1989  0.3394
 3828TIP3    H135679   4.744   7.654  17.374  0.2952 -0.7642  0.4830
 3828TIP3    H235680   4.597   7.618  17.370  0.1434 -0.0978 -0.0899
 3829TIP3   OH235681   3.982   6.403  19.219 -0.8583  0.1105  0.6661
 3829TIP3    H135682   3.984   6.491  19.258  1.1258  0.5492 -0.2893
 3829TIP3    H235683   4.035   6.349  19.278 -2.1068 -0.4864  1.2732
 3830TIP3   OH235684   3.055   3.299  18.028 -0.0402  0.3795  0.2457
 3830TIP3    H135685   2.968   3.336  18.042 -0.7117 -0.9100 -0.3642
 3830TIP3    H235686   3.075   3.320  17.937  0.3560  0.7998  0.4277
 3831TIP3   OH235687   4.424   4.356  18.942  0.0552  0.5926 -0.1621
 3831TIP3    H135688   4.337   4.344  18.904 -0.3323  2.8806 -0.1038
 3831TIP3    H235689   4.479   4.384  18.869  0.2245  1.2200  0.1945
 3832TIP3   OH235690   3.311   1.063  17.433 -0.2403 -0.0688  0.4384
 3832TIP3    H135691   3.285   1.015  17.355  0.4865  2.5671 -1.5347
 3832TIP3    H235692   3.244   1.131  17.443  0.5858  0.6630  1.1295
 3833TIP3   OH235693   3.492   5.632  19.170  0.2232  0.7244 -0.2656
 3833TIP3    H135694   3.556   5.651  19.101 -0.1622  0.3322 -0.7397
 3833TIP3    H235695   3.507   5.699  19.236  3.1872 -1.0594  1.0818
 3834TIP3   OH235696   4.487   1.722  18.385  0.2330 -0.2418 -0.3269
 3834TIP3    H135697   4.525   1.769  18.459  1.1267  0.5857 -1.2829
 3834TIP3    H235698   4.397   1.704  18.412  0.6985 -0.4541  1.1750
 3835TIP3   OH235699   3.498   2.316  19.338 -0.4111  0.5012  0.2659
 3835TIP3    H135700   3.533   2.304  19.250 -0.9050 -1.1998  0.2578
 3835TIP3    H235701   3.550   2.388  19.375  1.6167 -0.4751 -0.4988
 3836TIP3   OH235702   2.031   4.795  19.028 -0.3903  0.8350  0.1034
 3836TIP3    H135703   2.013   4.861  18.961 -0.3545 -0.7176 -1.5159
 3836TIP3    H235704   2.127   4.797  19.038 -0.3363  0.6287 -0.3638
 3837TIP3   OH235705   4.774   6.848  18.086  0.2601  0.0829 -0.4300
 3837TIP3    H135706   4.842   6.782  18.098  0.0361 -0.3093 -1.2117
 3837TIP3    H235707   4.820   6.922  18.046  0.2898 -0.0698 -0.6836
 3838TIP3   OH235708   3.898   3.962  17.646  0.2165 -0.5020  0.7007
 3838TIP3    H135709   3.825   3.941  17.703 -0.9350 -0.2646 -0.6348
 3838TIP3    H235710   3.911   3.883  17.594 -0.7546  0.2702 -0.7810
 3839TIP3   OH235711   7.608   7.305  18.253 -0.6670  0.1923  0.4320
 3839TIP3    H135712   7.559   7.382  18.223 -1.6217 -1.5213 -2.9634
 3839TIP3    H235713   7.685   7.302  18.197 -1.2152 -1.8592 -0.2934
 3840TIP3   OH235714   3.153   3.177  17.290  0.0276 -0.1333 -0.4708
 3840TIP3    H135715   3.128   3.136  17.207 -2.1892 -0.5249  0.3189
 3840TIP3    H235716   3.074   3.171  17.344  1.1721  0.8114  1.4012
 3841TIP3   OH235717   0.152   5.743  19.331  0.7606  0.3690 -0.0332
 3841TIP3    H135718   0.078   5.765  19.388  1.6370  0.9928  0.9096
 3841TIP3    H235719   0.156   5.815  19.268  0.3263  0.1239 -0.3486
 3842TIP3   OH235720   2.733   3.734  18.129  0.3456  0.1183  0.0332
 3842TIP3    H135721   2.774   3.679  18.195 -0.6199 -0.3200  0.2882
 3842TIP3    H235722   2.806   3.772  18.080  1.0202 -1.5978 -0.3332
 3843TIP3   OH235723   4.234   1.938  18.296  0.1897 -0.6138  0.2612
 3843TIP3    H135724   4.193   1.905  18.375 -0.1937  0.3428  0.4813
 3843TIP3    H235725   4.328   1.923  18.310  0.0941 -0.8015  0.7298
 3844TIP3   OH235726   4.186   3.565  16.443  0.0051 -0.2105  0.4498
 3844TIP3    H135727   4.225   3.504  16.380  2.5215  1.1894  0.5132
 3844TIP3    H235728   4.204   3.652  16.407  0.8985  0.6157  2.6640
 3845TIP3   OH235729   2.523   1.645  17.111 -0.5705 -0.3636  0.3139
 3845TIP3    H135730   2.493   1.652  17.021 -0.3061  3.2072  0.3615
 3845TIP3    H235731   2.612   1.609  17.105  0.1669  1.5321 -1.1056
 3846TIP3   OH235732   1.068   3.808  19.127 -0.2551  0.4751 -0.8025
 3846TIP3    H135733   1.142   3.795  19.067 -1.3759  0.3746 -2.2235
 3846TIP3    H235734   1.076   3.737  19.191  0.9823  0.5904 -0.8055
 3847TIP3   OH235735   1.626   6.165  17.724 -0.0783  0.0142 -0.0808
 3847TIP3    H135736   1.719   6.161  17.699  0.1677  0.8255  0.6484
 3847TIP3    H235737   1.619   6.244  17.778 -1.1467 -0.1761  0.0819
 3848TIP3   OH235738   1.744   4.240  19.379  0.5879 -0.0083 -0.2920
 3848TIP3    H135739   1.826   4.271  19.417  0.3437  0.4580 -0.1291
 3848TIP3    H235740   1.768   4.207  19.293  1.0024 -0.2154 -0.0970
 3849TIP3   OH235741   1.655   3.430  17.307 -0.1402 -0.6333  0.0934
 3849TIP3    H135742   1.658   3.391  17.394 -2.0420 -0.1063  0.4342
 3849TIP3    H235743   1.660   3.355  17.248  1.0079 -1.0042  0.6423
 3850TIP3   OH235744   5.346   7.301  16.678  0.3148  0.1845  0.0787
 3850TIP3    H135745   5.404   7.276  16.606  0.0275 -0.1089 -0.0510
 3850TIP3    H235746   5.406   7.328  16.748  0.5929  0.6090 -0.3143
 3851TIP3   OH235747   7.110   0.735  18.658 -0.4838 -0.2103 -0.0962
 3851TIP3    H135748   7.170   0.748  18.584 -0.8628 -1.6123 -0.6877
 3851TIP3    H235749   7.165   0.700  18.727 -0.6119 -1.5937 -0.6720
 3852TIP3   OH235750   2.531   7.422  18.546  0.3938 -0.0777  0.4265
 3852TIP3    H135751   2.587   7.408  18.470  0.9548  1.2310  0.5710
 3852TIP3    H235752   2.477   7.497  18.523  1.1474  0.8664  1.6075
 3853TIP3   OH235753   6.097   6.859  17.970  0.7134  0.5805  0.0678
 3853TIP3    H135754   6.058   6.801  18.036 -1.5372 -1.1780 -2.6040
 3853TIP3    H235755   6.069   6.947  17.996 -3.3945 -0.3810 -0.4397
 3854TIP3   OH235756   4.592   6.558  16.890  0.1923 -0.6155 -0.5946
 3854TIP3    H135757   4.544   6.608  16.956 -0.4322 -1.3670 -0.4555
 3854TIP3    H235758   4.677   6.601  16.884  1.2816 -2.0388  2.5921
 3855TIP3   OH235759   2.343   0.390  17.658 -0.3126  0.3895  0.5066
 3855TIP3    H135760   2.340   0.305  17.614 -0.7836  1.4562 -1.6687
 3855TIP3    H235761   2.433   0.399  17.688  0.1215 -0.2488 -0.5705
 3856TIP3   OH235762   2.957   3.677  19.219 -0.2423  0.2833 -0.7962
 3856TIP3    H135763   2.976   3.755  19.272  0.8068 -0.7915  0.4934
 3856TIP3    H235764   2.898   3.625  19.274 -0.5487 -0.0586 -1.4408
 3857TIP3   OH235765   3.821   7.376  19.493 -0.1333  0.2306  0.5769
 3857TIP3    H135766   3.812   7.454  19.439 -1.2133 -0.0051  0.3854
 3857TIP3    H235767   3.877   7.403  19.566  0.2669  0.9141  0.0232
 3858TIP3   OH235768   1.354   0.547  17.017  0.8702 -0.3934 -0.1949
 3858TIP3    H135769   1.283   0.552  17.081  0.0801  0.0188 -1.0795
 3858TIP3    H235770   1.310   0.531  16.934  1.9504 -2.0082 -0.4932
 3859TIP3   OH235771   3.702   5.750  19.012  0.4674  0.6936  0.1382
 3859TIP3    H135772   3.683   5.839  19.044 -1.1060  0.9150 -1.2771
 3859TIP3    H235773   3.686   5.755  18.917 -1.0226 -1.4347  0.2175
 3860TIP3   OH235774   6.505   0.905  18.766 -0.3046  0.0224 -0.4671
 3860TIP3    H135775   6.526   0.981  18.819 -0.2766 -0.1708 -0.2011
 3860TIP3    H235776   6.431   0.864  18.811 -0.2388 -0.1778 -0.5384
 3861TIP3   OH235777   6.172   7.077  18.154 -0.6482  0.0453 -0.0901
 3861TIP3    H135778   6.245   7.020  18.177 -0.7839 -0.3460 -0.6124
 3861TIP3    H235779   6.213   7.154  18.114 -0.4320  0.5840  1.1305
 3862TIP3   OH235780   7.509   0.957  17.424  0.4820  0.7034 -0.5535
 3862TIP3    H135781   7.444   0.981  17.358 -0.1428 -2.2242 -1.1481
 3862TIP3    H235782   7.572   1.029  17.423 -1.4137  2.4440 -1.7431
 3863TIP3   OH235783   1.006   6.073  16.004  0.3218  0.0681  0.4115
 3863TIP3    H135784   1.015   6.027  15.920 -1.6297  0.5990 -0.1435
 3863TIP3    H235785   1.090   6.118  16.015  1.5851 -2.0626  0.0584
 3864TIP3   OH235786   6.918   7.142  18.567 -0.4109 -0.3484  0.2510
 3864TIP3    H135787   6.914   7.222  18.515  0.2187 -0.5420 -0.1017
 3864TIP3    H235788   6.873   7.165  18.649 -0.8694  0.1382 -0.1287
 3865TIP3   OH235789   6.482   1.445  17.547  0.0687 -0.5488 -0.3228
 3865TIP3    H135790   6.481   1.459  17.642 -0.0393 -0.5611 -0.3231
 3865TIP3    H235791   6.456   1.354  17.536  2.6971 -1.4085 -0.2030
 3866TIP3   OH235792   5.326   0.316  19.220 -0.1308  0.0680 -0.0165
 3866TIP3    H135793   5.378   0.298  19.141 -0.2301 -1.0111  0.1410
 3866TIP3    H235794   5.237   0.290  19.196 -0.1194 -0.4676  0.5154
 3867TIP3   OH235795   0.534   0.094  17.546  0.0954  0.3341 -0.1902
 3867TIP3    H135796   0.625   0.104  17.577  0.0124  0.8709 -0.1099
 3867TIP3    H235797   0.527   0.155  17.473  0.0818 -0.4212 -0.8311
 3868TIP3   OH235798   1.482   5.426  18.505  0.4804 -0.0657 -0.1500
 3868TIP3    H135799   1.565   5.456  18.544 -0.0754 -0.7988  1.6917
 3868TIP3    H235800   1.415   5.458  18.565 -0.4714 -0.8544 -0.7743
 3869TIP3   OH235801   6.880   7.185  19.343 -0.2133 -0.1271 -0.0015
 3869TIP3    H135802   6.792   7.156  19.316  0.5044 -1.1897 -1.3070
 3869TIP3    H235803   6.883   7.167  19.437 -0.9991 -1.1422 -0.1478
 3870TIP3   OH235804   3.081   4.994  17.922  0.8866 -0.4135 -0.2835
 3870TIP3    H135805   3.028   5.019  17.846 -0.8856 -1.8486  0.3972
 3870TIP3    H235806   3.049   4.907  17.946  2.3469 -0.5677  1.2987
 3871TIP3   OH235807   6.165   0.579  19.006 -0.1258  0.0767 -0.4361
 3871TIP3    H135808   6.194   0.566  19.096 -3.2881 -0.8166  0.5771
 3871TIP3    H235809   6.118   0.499  18.984  0.3759  0.3749 -2.8559
 3872TIP3   OH235810   4.888   6.458  18.612 -0.6764  0.0642  0.3216
 3872TIP3    H135811   4.820   6.420  18.667 -2.1282 -1.6419 -2.3794
 3872TIP3    H235812   4.964   6.401  18.623 -0.4039  0.6691  1.6814
 3873TIP3   OH235813   4.843   0.954  18.319  0.1168 -0.3754 -0.2572
 3873TIP3    H135814   4.797   0.953  18.235 -1.3695  1.5906  0.4485
 3873TIP3    H235815   4.928   0.994  18.300 -0.4779  0.6976 -0.7275
 3874TIP3   OH235816   1.372   5.701  16.899 -0.3313  0.9188 -0.2653
 3874TIP3    H135817   1.284   5.730  16.921 -1.8342 -2.0791 -1.6818
 3874TIP3    H235818   1.405   5.765  16.837 -3.9427 -0.6138 -4.3048
 3875TIP3   OH235819   2.958   4.448  18.870  0.1905  0.2145 -0.2466
 3875TIP3    H135820   3.006   4.530  18.881  0.6276  0.3440 -2.5668
 3875TIP3    H235821   2.932   4.423  18.959  0.7966  2.3918  0.6074
 3876TIP3   OH235822   1.663   2.785  19.176 -0.4593  0.0136  0.2038
 3876TIP3    H135823   1.616   2.743  19.104  1.2707  0.6147 -1.3571
 3876TIP3    H235824   1.638   2.877  19.171 -1.0527 -0.0827  1.0172
 3877TIP3   OH235825   5.699   2.884  17.576  0.6824  0.0572  0.3858
 3877TIP3    H135826   5.761   2.862  17.646  1.5420  0.9228 -0.0857
 3877TIP3    H235827   5.754   2.907  17.502 -0.2213 -0.2789 -0.4067
 3878TIP3   OH235828   5.773   1.664  17.693  0.0873  0.1830 -0.2184
 3878TIP3    H135829   5.827   1.651  17.771 -0.7301  1.3862  0.5868
 3878TIP3    H235830   5.827   1.632  17.620  1.6686  0.8740  0.6046
 3879TIP3   OH235831   4.381   6.320  18.370 -0.0265  0.2314  0.4161
 3879TIP3    H135832   4.360   6.330  18.277 -1.2728  0.5519  0.7079
 3879TIP3    H235833   4.475   6.305  18.372  0.9032  4.4493 -0.6745
 3880TIP3   OH235834   0.850   2.436  16.878 -0.0849  0.0064  0.4326
 3880TIP3    H135835   0.849   2.341  16.880  0.1554  0.0039  0.4169
 3880TIP3    H235836   0.867   2.458  16.786 -0.1203  0.0643  0.4395
 3881TIP3   OH235837   0.725   7.087  17.960  0.1543 -0.2284 -0.2111
 3881TIP3    H135838   0.668   7.046  18.024  0.4592 -1.8280 -0.9196
 3881TIP3    H235839   0.670   7.100  17.883  0.6238 -1.4589 -0.7752
 3882TIP3   OH235840   2.456   1.196  18.103  0.0096  0.0701  0.7011
 3882TIP3    H135841   2.463   1.282  18.145 -0.6421  1.3553 -1.6523
 3882TIP3    H235842   2.436   1.136  18.175  0.4428  1.8658  2.4168
 3883TIP3   OH235843   4.220   5.402  17.156 -0.4346  0.1791  0.2368
 3883TIP3    H135844   4.137   5.445  17.175 -0.1116  0.3950  1.2580
 3883TIP3    H235845   4.241   5.427  17.066 -0.2340  2.2557  0.7994
 3884TIP3   OH235846   2.746   3.041  18.061  0.2052  0.3122  1.0931
 3884TIP3    H135847   2.676   3.010  18.118 -1.5354 -2.7030 -2.2810
 3884TIP3    H235848   2.815   2.975  18.071  1.0739  1.2787  1.6795
 3885TIP3   OH235849   5.864   4.876  16.955 -0.4510 -0.0208  0.8666
 3885TIP3    H135850   5.928   4.822  16.909 -0.1859 -0.3682  1.6221
 3885TIP3    H235851   5.788   4.819  16.966 -0.9442  0.4335 -0.1418
 3886TIP3   OH235852   5.620   2.644  19.290 -0.1563  0.3246  0.0449
 3886TIP3    H135853   5.607   2.692  19.208 -0.5255  1.1775  0.5842
 3886TIP3    H235854   5.637   2.554  19.263  0.2946  0.7046 -0.9900
 3887TIP3   OH235855   2.967   7.251  16.990 -1.0161  0.1266  0.1907
 3887TIP3    H135856   3.020   7.311  17.042 -0.6063 -0.9480  1.0404
 3887TIP3    H235857   2.943   7.302  16.913 -1.2254  1.5889  1.1824
 3888TIP3   OH235858   1.673   2.167  18.499  0.4623 -0.0975  0.0245
 3888TIP3    H135859   1.760   2.143  18.530  0.5553  0.2944  0.0684
 3888TIP3    H235860   1.619   2.166  18.578  0.1796 -1.3885 -0.1513
 3889TIP3   OH235861   4.048   1.265  17.925  0.3663  0.1032  0.5228
 3889TIP3    H135862   4.063   1.353  17.959 -0.8843 -0.0897  1.6855
 3889TIP3    H235863   4.118   1.212  17.965  0.1538  0.2724  1.1296
 3890TIP3   OH235864   7.680   1.555  17.014  0.2299  0.1159 -0.3679
 3890TIP3    H135865   7.682   1.626  16.950  1.3574 -0.8910 -1.5002
 3890TIP3    H235866   7.602   1.573  17.066 -0.2548  1.4392 -1.4676
 3891TIP3   OH235867   6.776   4.575  18.980  0.3406 -0.4075  0.1564
 3891TIP3    H135868   6.685   4.565  18.952  0.6667 -3.5015 -0.1046
 3891TIP3    H235869   6.828   4.556  18.901  1.2149 -0.5661  0.7507
 3892TIP3   OH235870   0.550   2.833  17.704 -0.3785  0.0463 -0.2607
 3892TIP3    H135871   0.627   2.858  17.754 -1.5342  0.1505  1.5579
 3892TIP3    H235872   0.480   2.890  17.736 -0.9310  1.1273 -3.0285
 3893TIP3   OH235873   4.481   0.108  19.332  0.0449  0.3115  0.1280
 3893TIP3    H135874   4.497   0.129  19.424 -0.2947 -0.0964  0.2821
 3893TIP3    H235875   4.549   0.045  19.309 -1.1573 -1.2633  0.7216
 3894TIP3   OH235876   2.242   4.262  18.902 -0.2648  0.0768 -0.0635
 3894TIP3    H135877   2.295   4.288  18.827  0.2632 -0.7732 -0.0005
 3894TIP3    H235878   2.209   4.344  18.938  1.1257  0.6537 -0.0272
 3895TIP3   OH235879   2.344   6.791  16.707 -0.0814 -0.2097  0.0406
 3895TIP3    H135880   2.341   6.735  16.630 -0.5628  0.0783 -0.1600
 3895TIP3    H235881   2.435   6.789  16.736  0.1757 -0.0209 -0.7560
 3896TIP3   OH235882   2.913   6.421  16.881 -0.3469 -0.2519  0.5652
 3896TIP3    H135883   2.922   6.327  16.867  0.6103 -0.0828 -0.0018
 3896TIP3    H235884   3.003   6.453  16.890 -0.6186  0.7497 -0.1731
 3897TIP3   OH235885   3.834   4.165  18.269  0.1186  0.3100  0.2139
 3897TIP3    H135886   3.785   4.208  18.338 -0.3409  0.0995  0.0201
 3897TIP3    H235887   3.907   4.122  18.314  0.0912  0.5714  0.5078
 3898TIP3   OH235888   1.631   4.258  18.314 -0.6086  0.2041 -0.4419
 3898TIP3    H135889   1.626   4.285  18.405  0.0641 -2.0151  0.3133
 3898TIP3    H235890   1.562   4.194  18.304  0.9402 -1.5018 -0.7274
 3899TIP3   OH235891   3.299   4.239  17.111 -0.6381  0.5789  0.0210
 3899TIP3    H135892   3.389   4.266  17.094 -1.1359  2.8330  0.6052
 3899TIP3    H235893   3.274   4.190  17.033  1.5270 -1.4821  0.4833
 3900TIP3   OH235894   4.933   4.551  18.030  0.4033 -0.5368  0.0324
 3900TIP3    H135895   4.867   4.535  17.963 -1.1883 -2.6677  1.9636
 3900TIP3    H235896   5.012   4.509  17.996 -0.5298 -2.0900 -0.3073
 3901TIP3   OH235897   1.574   4.406  16.350  0.0277 -0.2462 -0.3092
 3901TIP3    H135898   1.641   4.458  16.305 -0.0653  0.3037  0.1652
 3901TIP3    H235899   1.612   4.319  16.358  0.2624 -0.2061 -0.9646
 3902TIP3   OH235900   4.084   5.821  17.308 -0.2776  0.5415 -0.1851
 3902TIP3    H135901   4.067   5.790  17.397  0.4797 -1.8070 -0.8134
 3902TIP3    H235902   4.166   5.870  17.314 -0.0942  0.1689  0.3456
 3903TIP3   OH235903   7.059   5.827  18.578  0.2036  0.1679  0.1079
 3903TIP3    H135904   7.043   5.750  18.632  0.1731  1.9735  2.8998
 3903TIP3    H235905   6.972   5.860  18.556  0.1975  0.2683  0.2789
 3904TIP3   OH235906   6.502   6.338  17.882 -0.4419  0.0055 -0.3297
 3904TIP3    H135907   6.556   6.261  17.866 -0.1767  0.5105 -2.0117
 3904TIP3    H235908   6.493   6.380  17.797 -0.2906  2.0332  0.5808
 3905TIP3   OH235909   5.145   4.646  18.757  0.3484 -0.2173  0.8783
 3905TIP3    H135910   5.083   4.675  18.824 -0.0343  1.0034  0.0356
 3905TIP3    H235911   5.156   4.722  18.700 -0.0486 -1.4896 -0.9775
 3906TIP3   OH235912   1.116   3.131  19.384  0.3478  0.3013  0.2481
 3906TIP3    H135913   1.176   3.200  19.411 -0.3894  1.9918 -2.0666
 3906TIP3    H235914   1.031   3.159  19.419  0.2059  0.0544  0.1025
 3907TIP3   OH235915   2.039   0.046  17.553 -0.9030 -0.2625 -0.1387
 3907TIP3    H135916   2.030   0.128  17.602  2.2931 -1.1815  2.3384
 3907TIP3    H235917   2.100   0.066  17.483 -1.3308 -0.1765 -0.4876
 3908TIP3   OH235918   3.728   7.412  18.631 -0.3603 -0.1278  0.4229
 3908TIP3    H135919   3.817   7.412  18.667  0.3997 -2.5600 -1.1963
 3908TIP3    H235920   3.703   7.320  18.627 -1.7927  0.2772 -1.8442
 3909TIP3   OH235921   4.166   7.012  18.786  0.1535  0.6029  0.2981
 3909TIP3    H135922   4.206   7.060  18.858  2.7223 -0.9935  0.0623
 3909TIP3    H235923   4.192   6.921  18.801 -2.1780 -0.3302 -0.7871
 3910TIP3   OH235924   0.969   6.523  19.318 -1.0626  0.3280  0.1864
 3910TIP3    H135925   1.064   6.524  19.304 -1.2554 -0.5147 -1.4110
 3910TIP3    H235926   0.959   6.513  19.413  0.4394  0.3348  0.3722
 3911TIP3   OH235927   0.441   7.581  17.922  0.0590 -0.4577  0.1470
 3911TIP3    H135928   0.529   7.600  17.889 -0.6255 -0.4914 -1.7937
 3911TIP3    H235929   0.456   7.537  18.006  1.8707 -0.0143  0.0913
 3912TIP3   OH235930   2.092   6.131  16.317  0.7089  0.3924 -0.1924
 3912TIP3    H135931   2.008   6.176  16.332 -1.2474 -2.6988 -0.8652
 3912TIP3    H235932   2.109   6.143  16.224  1.1011  1.0787 -0.0415
 3913TIP3   OH235933   3.249   1.611  18.333  0.1439  0.0751 -0.1875
 3913TIP3    H135934   3.259   1.601  18.428 -1.0874  1.3601  0.1064
 3913TIP3    H235935   3.197   1.691  18.322  0.7185  0.2564 -1.9702
 3914TIP3   OH235936   6.705   0.501  18.752 -0.4293 -0.1289 -0.0799
 3914TIP3    H135937   6.611   0.510  18.741 -0.5560 -0.4382  0.7001
 3914TIP3    H235938   6.728   0.566  18.819  0.4488  2.2973 -2.5623
 3915TIP3   OH235939   3.005   0.238  18.747 -0.3757 -0.4053  0.7241
 3915TIP3    H135940   2.966   0.154  18.773 -0.4278  0.1757  2.6417
 3915TIP3    H235941   3.099   0.221  18.745 -0.3372 -0.3631  1.7518
 3916TIP3   OH235942   1.862   2.405  16.629 -0.2657 -0.1089  0.1825
 3916TIP3    H135943   1.839   2.434  16.541 -0.0802 -1.7226 -0.4439
 3916TIP3    H235944   1.953   2.375  16.621 -0.7588 -1.8115  0.4729
 3917TIP3   OH235945   3.801   0.573  18.060  0.2939 -0.0004  0.1525
 3917TIP3    H135946   3.748   0.543  18.134  0.8690 -0.7356  0.2771
 3917TIP3    H235947   3.850   0.495  18.033  0.9823  0.5674 -0.2389
 3918TIP3   OH235948   2.510   7.148  18.354  0.4106  0.2284 -0.3596
 3918TIP3    H135949   2.486   7.207  18.282 -0.2646  2.4959  1.5764
 3918TIP3    H235950   2.599   7.175  18.377 -0.0618  0.8310  0.8223
 3919TIP3   OH235951   1.709   4.726  18.819  0.3613 -0.3428  0.5446
 3919TIP3    H135952   1.750   4.639  18.822  0.6250 -0.1968  2.0136
 3919TIP3    H235953   1.616   4.709  18.837  0.2133 -0.4289 -0.2942
 3920TIP3   OH235954   3.641   4.488  18.361 -0.1876  0.3528 -0.3163
 3920TIP3    H135955   3.627   4.566  18.414 -2.2361  0.5340 -1.0566
 3920TIP3    H235956   3.736   4.474  18.363  0.0201  1.7720  1.3354
 3921TIP3   OH235957   7.061   0.445  17.597  0.4400  0.0911 -0.0700
 3921TIP3    H135958   7.067   0.370  17.656  3.0612  0.3784  0.1404
 3921TIP3    H235959   6.995   0.501  17.636  3.0784  1.0035  3.5760
 3922TIP3   OH235960   3.970   7.205  18.051 -0.5852  0.0346 -0.5325
 3922TIP3    H135961   3.944   7.159  18.131 -2.0155  0.5320 -0.6732
 3922TIP3    H235962   3.965   7.138  17.982 -1.9197  0.1841 -0.6122
 3923TIP3   OH235963   6.122   0.475  17.926  0.0167  0.2071 -1.0781
 3923TIP3    H135964   6.183   0.406  17.900  0.6967  0.2177  0.4102
 3923TIP3    H235965   6.058   0.431  17.982  0.1600  0.6778 -0.5334
 3924TIP3   OH235966   4.216   4.239  18.805  0.3025 -0.4072  0.6962
 3924TIP3    H135967   4.262   4.159  18.782 -2.1881 -1.9940  0.8194
 3924TIP3    H235968   4.173   4.219  18.888 -0.9782  0.7721  0.3635
 3925TIP3   OH235969   0.599   0.305  17.360  0.3731  0.0357  0.5125
 3925TIP3    H135970   0.535   0.365  17.321 -0.6435 -0.6826  1.0158
 3925TIP3    H235971   0.681   0.325  17.315  0.2343  2.2486  1.1222
 3926TIP3   OH235972   5.427   2.694  17.780  0.7042 -0.1446 -0.4764
 3926TIP3    H135973   5.450   2.622  17.722  0.5663  0.0952 -0.8274
 3926TIP3    H235974   5.341   2.669  17.815  1.5022 -1.1005  0.9287
 3927TIP3   OH235975   4.107   4.438  17.865 -0.7787  0.2676  0.3717
 3927TIP3    H135976   4.048   4.440  17.790  0.4239  1.8105 -0.6157
 3927TIP3    H235977   4.086   4.517  17.914  1.5021  1.8309 -0.9499
 3928TIP3   OH235978   4.320   0.943  17.379 -0.4484 -0.0654  0.0843
 3928TIP3    H135979   4.241   0.974  17.336  0.0344  1.8359  0.4991
 3928TIP3    H235980   4.376   1.020  17.385  1.9262 -1.5669 -1.1973
 3929TIP3   OH235981   3.515   1.531  18.228  0.0288  0.0987 -0.5189
 3929TIP3    H135982   3.425   1.563  18.236 -0.5572 -1.5165 -0.3094
 3929TIP3    H235983   3.567   1.591  18.283 -1.3537 -0.5606  1.6424
 3930TIP3   OH235984   7.531   3.034  19.069  0.9389 -0.4733  0.0804
 3930TIP3    H135985   7.446   2.996  19.092  0.2774  1.1261  0.4161
 3930TIP3    H235986   7.565   3.069  19.151  1.9798 -1.1843 -0.0352
 3931TIP3   OH235987   3.236   4.844  19.148  0.5774  0.5646 -0.1530
 3931TIP3    H135988   3.217   4.763  19.195 -0.8795  0.8188 -0.2507
 3931TIP3    H235989   3.324   4.832  19.113  0.1821 -1.1772 -0.6098
 3932TIP3   OH235990   7.070   6.069  17.685 -0.3631 -0.1794 -0.1192
 3932TIP3    H135991   7.160   6.095  17.667 -0.1185 -1.4346 -0.9106
 3932TIP3    H235992   7.071   6.037  17.775 -0.2600  0.7820  0.2222
 3933TIP3   OH235993   5.194   3.373  16.714 -0.1189 -0.4885 -0.2879
 3933TIP3    H135994   5.118   3.346  16.661  0.9087 -0.1211 -2.0108
 3933TIP3    H235995   5.158   3.383  16.802 -1.9890 -0.7311 -0.9633
 3934TIP3   OH235996   0.781   2.424  17.230  0.0249 -0.2807  0.1914
 3934TIP3    H135997   0.696   2.411  17.189  0.8273 -1.0387 -1.3481
 3934TIP3    H235998   0.762   2.438  17.322 -1.9295  1.8517 -0.4345
 3935TIP3   OH235999   2.896   0.869  17.960  0.1783 -0.1886 -0.3659
 3935TIP3    H136000   2.976   0.851  17.911  0.8572 -0.2420  0.7379
 3935TIP3    H236001   2.913   0.837  18.049 -0.8554  0.3125  0.0380
 3936TIP3   OH236002   6.469   0.290  19.320  0.0240  0.1206 -0.0502
 3936TIP3    H136003   6.562   0.287  19.300 -0.4314  0.3128 -2.5222
 3936TIP3    H236004   6.442   0.199  19.325  0.2313  0.0663  0.0747
 3937TIP3   OH236005   0.622   6.602  17.510 -0.2114  0.0554  0.1107
 3937TIP3    H136006   0.709   6.637  17.492 -0.3192  0.3176  0.0897
 3937TIP3    H236007   0.633   6.507  17.506  0.8414 -0.1146  3.6153
 3938TIP3   OH236008   0.518   6.278  16.504  0.5835 -1.1065 -0.1718
 3938TIP3    H136009   0.457   6.295  16.576  0.7739  0.9764 -0.4198
 3938TIP3    H236010   0.462   6.255  16.430 -0.0765  1.3866 -0.5672
 3939TIP3   OH236011   0.830   5.379  19.091 -0.0455  0.1718  0.2988
 3939TIP3    H136012   0.748   5.329  19.088  0.1529 -0.1099 -0.6538
 3939TIP3    H236013   0.803   5.468  19.114 -0.7240  0.2832 -0.8472
 3940TIP3   OH236014   4.332   0.744  18.408 -0.3494 -0.0278  0.0372
 3940TIP3    H136015   4.263   0.748  18.341  0.4030  1.7324 -0.6956
 3940TIP3    H236016   4.385   0.668  18.383 -0.6043  0.0756 -0.8533
 3941TIP3   OH236017   2.890   0.666  17.109  0.2887  0.6192  0.3663
 3941TIP3    H136018   2.975   0.656  17.067  0.2373  1.3084  0.0852
 3941TIP3    H236019   2.831   0.608  17.060  0.2114  1.4697 -0.5799
 3942TIP3   OH236020   0.765   7.195  19.011 -0.2940 -0.4654  0.1667
 3942TIP3    H136021   0.670   7.183  19.017 -0.3132 -0.3762  0.0371
 3942TIP3    H236022   0.775   7.282  18.973 -0.1884 -1.7436 -2.9901
 3943TIP3   OH236023   1.716   2.807  17.246 -0.0998 -0.3288 -0.4666
 3943TIP3    H136024   1.782   2.857  17.295 -0.5663 -0.1404 -0.0253
 3943TIP3    H236025   1.766   2.736  17.206  0.5568  0.4175 -1.0159
 3944TIP3   OH236026   4.318   5.434  17.878  0.3772  0.2080  0.0348
 3944TIP3    H136027   4.394   5.488  17.898  0.0845  0.5342  0.2825
 3944TIP3    H236028   4.339   5.392  17.795  0.6260  0.6693 -0.1373
 3945TIP3   OH236029   1.450   2.082  17.491 -0.4662  0.1020 -0.1873
 3945TIP3    H136030   1.395   2.007  17.512 -0.6806  0.3728  0.2312
 3945TIP3    H236031   1.401   2.157  17.524 -0.2631  0.4305 -0.6142
 3946TIP3   OH236032   0.001   4.866  18.755 -0.1050  0.3942  0.7462
 3946TIP3    H136033  -0.014   4.827  18.669 -0.8013  0.5188  0.8066
 3946TIP3    H236034   0.074   4.815  18.792  0.4503  0.5929 -0.0644
 3947TIP3   OH236035   7.114   4.673  18.277  0.3028 -0.2239 -0.1604
 3947TIP3    H136036   7.022   4.686  18.256  0.3302  0.4504  0.1099
 3947TIP3    H236037   7.145   4.609  18.213 -0.2007  0.0104 -0.6424
 3948TIP3   OH236038   2.635   6.714  16.656 -0.0581  0.6438  0.2431
 3948TIP3    H136039   2.694   6.716  16.731  0.1265 -1.5078  0.2199
 3948TIP3    H236040   2.596   6.626  16.658 -2.6029  1.6704 -0.2632
 3949TIP3   OH236041   4.171   2.556  17.816  0.4831 -0.4969  0.1891
 3949TIP3    H136042   4.126   2.484  17.772  1.3164 -0.9646  0.0850
 3949TIP3    H236043   4.238   2.584  17.754 -0.6743  1.2841 -0.3453
 3950TIP3   OH236044   5.659   3.461  19.272  0.3218  0.7384 -0.0183
 3950TIP3    H136045   5.755   3.469  19.272  0.2106  2.6028 -0.7726
 3950TIP3    H236046   5.628   3.545  19.305 -1.0810  0.3500 -0.2824
 3951TIP3   OH236047   0.306   5.327  17.553  0.3402  0.2988 -0.1571
 3951TIP3    H136048   0.384   5.333  17.608  0.1381 -0.8032  0.2730
 3951TIP3    H236049   0.339   5.331  17.464  0.9127 -0.3185  0.0190
 3952TIP3   OH236050   1.248   5.203  17.480  0.5357 -0.0111 -0.3900
 3952TIP3    H136051   1.214   5.114  17.468 -0.1126  0.1809 -0.0479
 3952TIP3    H236052   1.339   5.191  17.505 -0.1219 -0.6916  1.9219
 3953TIP3   OH236053   3.925   5.133  18.361  0.3000 -0.2980 -0.8508
 3953TIP3    H136054   3.833   5.144  18.385 -0.0256 -0.4219 -2.0137
 3953TIP3    H236055   3.939   5.038  18.364  0.9068 -0.1952  1.1129
 3954TIP3   OH236056   4.728   0.036  18.248 -0.4097  0.0429 -0.6240
 3954TIP3    H136057   4.657   0.013  18.188 -1.5269 -0.1559  0.7308
 3954TIP3    H236058   4.789  -0.038  18.244 -1.6810 -1.0877  0.2572
 3955TIP3   OH236059   3.364   4.924  17.770  0.8276 -0.8006  0.7610
 3955TIP3    H136060   3.303   4.864  17.813  0.6087 -2.1420 -1.2844
 3955TIP3    H236061   3.369   5.000  17.828  0.6430 -2.5333  3.1623
 3956TIP3   OH236062   0.179   5.438  18.795  0.0794 -0.4683  0.0872
 3956TIP3    H136063   0.235   5.516  18.799  0.7212 -0.8629 -0.8175
 3956TIP3    H236064   0.093   5.469  18.823  1.0515 -0.1889  3.0609
 3957TIP3   OH236065   5.396   2.383  17.987 -0.1094 -0.1479 -0.1456
 3957TIP3    H136066   5.455   2.314  17.957  1.9935  1.7389 -0.6177
 3957TIP3    H236067   5.330   2.389  17.918  0.7623 -0.4240 -1.0300
 3958TIP3   OH236068   6.651   3.291  18.211 -0.0289  0.1344 -0.6144
 3958TIP3    H136069   6.652   3.299  18.115  2.1874 -0.3198 -0.6865
 3958TIP3    H236070   6.744   3.284  18.235 -0.4244  1.8272  1.7209
 3959TIP3   OH236071   1.586   6.738  17.140  0.1153  0.2678 -0.0658
 3959TIP3    H136072   1.674   6.771  17.123  0.4863 -0.4302  0.4421
 3959TIP3    H236073   1.550   6.718  17.053  1.1650 -1.1990 -0.2006
 3960TIP3   OH236074   2.805   7.087  17.413 -0.1607 -1.1812 -0.1119
 3960TIP3    H136075   2.740   7.033  17.367  0.5907 -1.8004 -0.4615
 3960TIP3    H236076   2.806   7.052  17.502 -0.9257 -0.6044  0.1319
 3961TIP3   OH236077   0.860   5.772  17.957  0.0335  1.0388 -0.5185
 3961TIP3    H136078   0.911   5.816  17.889  2.8210  3.8676  2.9844
 3961TIP3    H236079   0.817   5.843  18.005  0.1837 -0.4815  2.0827
 3962TIP3   OH236080   1.866   2.544  18.386  0.2852 -0.7744 -0.1250
 3962TIP3    H136081   1.793   2.506  18.337 -0.4481  1.5085 -0.9287
 3962TIP3    H236082   1.825   2.602  18.450  1.3572  0.6876 -0.7088
 3963TIP3   OH236083   4.641   5.045  18.930 -0.3146  0.5568 -0.6856
 3963TIP3    H136084   4.695   4.996  18.868 -0.7363 -0.7394 -0.0626
 3963TIP3    H236085   4.551   5.017  18.912 -0.3998 -0.3164  0.8678
 3964TIP3   OH236086   4.813   0.689  17.596  0.1500  0.4225 -0.1768
 3964TIP3    H136087   4.778   0.646  17.675  1.4682  0.6421  0.5631
 3964TIP3    H236088   4.902   0.654  17.588  0.4393  1.3062 -0.8888
 3965TIP3   OH236089   5.353   1.637  17.221 -0.0135  0.0444  0.3033
 3965TIP3    H136090   5.368   1.724  17.184 -2.5205 -0.2498 -1.7354
 3965TIP3    H236091   5.440   1.606  17.245  0.9710  3.0795  1.1375
 3966TIP3   OH236092   3.628   4.441  17.886 -0.0581  0.2979  0.1697
 3966TIP3    H136093   3.602   4.407  17.971  1.9979 -2.6865 -0.2705
 3966TIP3    H236094   3.634   4.536  17.899 -1.6408  0.1300  2.7535
 3967TIP3   OH236095   2.577   1.623  17.641 -0.2160  0.3910  0.0169
 3967TIP3    H136096   2.491   1.607  17.603 -1.8940  2.3741  2.6008
 3967TIP3    H236097   2.600   1.711  17.613 -0.1782  0.7800  1.1963
 3968TIP3   OH236098   5.004   0.575  16.331  0.2079 -0.2435 -0.1010
 3968TIP3    H136099   5.082   0.570  16.276 -0.6066  0.6043 -1.3908
 3968TIP3    H236100   4.954   0.649  16.296 -0.8377 -0.3094  1.1483
 3969TIP3   OH236101   5.287   4.679  17.061  0.4715 -0.5799 -0.2874
 3969TIP3    H136102   5.285   4.773  17.042 -2.4926 -0.5055 -0.0757
 3969TIP3    H236103   5.324   4.639  16.982 -0.2464  0.6414 -1.2833
 3970TIP3   OH236104   5.698   1.147  18.317 -0.5149  0.0154 -0.3971
 3970TIP3    H136105   5.681   1.224  18.372  2.0941 -1.2369  2.4506
 3970TIP3    H236106   5.622   1.090  18.332 -0.3626  0.1701  1.1950
 3971TIP3   OH236107   5.257   4.682  18.467 -0.5094 -0.3622  0.0261
 3971TIP3    H136108   5.240   4.769  18.502 -1.5693  0.1003 -1.5416
 3971TIP3    H236109   5.344   4.659  18.500 -0.5207  0.9826  1.0410
 3972TIP3   OH236110   3.001   1.747  19.261 -0.4531 -0.7532  0.5592
 3972TIP3    H136111   2.916   1.732  19.303 -1.1169  1.7817  0.2701
 3972TIP3    H236112   2.982   1.803  19.187  1.5009  0.0126  0.5765
 3973TIP3   OH236113   3.593   7.545  16.961 -0.0873 -0.3985 -0.1089
 3973TIP3    H136114   3.580   7.623  16.907 -2.9977 -1.6808 -1.4582
 3973TIP3    H236115   3.620   7.477  16.899 -2.6270 -1.6788  0.0899
 3974TIP3   OH236116   1.972   7.410  16.778  0.3555 -0.4052 -0.1026
 3974TIP3    H136117   1.924   7.487  16.807  2.7622  0.6119  1.4869
 3974TIP3    H236118   1.928   7.337  16.822 -1.3282  0.1125 -0.8406
 3975TIP3   OH236119   0.743   7.386  18.446  0.0759  0.6471  0.3531
 3975TIP3    H136120   0.681   7.452  18.477  0.0603  0.6745  0.2636
 3975TIP3    H236121   0.694   7.304  18.448 -0.0288  0.7014  0.0821
 3976TIP3   OH236122   0.916   2.677  18.285  0.1810 -0.0197 -0.0752
 3976TIP3    H136123   0.941   2.659  18.376  0.9935 -0.3186 -0.3491
 3976TIP3    H236124   0.995   2.716  18.246  0.5570 -1.7902 -1.2091
 3977TIP3   OH236125   0.423   0.947  17.828 -0.1483  0.9764  0.5072
 3977TIP3    H136126   0.399   0.855  17.816 -0.4330  0.9947  0.9395
 3977TIP3    H236127   0.510   0.953  17.789 -0.4871  0.7246 -0.3237
 3978TIP3   OH236128   1.554   1.866  18.612 -0.4891  0.0405  0.6057
 3978TIP3    H136129   1.648   1.883  18.610 -0.2347 -1.3273 -0.0954
 3978TIP3    H236130   1.547   1.773  18.634 -1.6641  0.0059  0.1422
 3979TIP3   OH236131   3.766   2.236  18.842  0.0814 -0.4033 -0.0449
 3979TIP3    H136132   3.796   2.152  18.876 -1.1082 -0.8134  0.0246
 3979TIP3    H236133   3.797   2.300  18.906 -1.2330 -1.0582  1.3085
 3980TIP3   OH236134   4.380   3.152  16.417 -0.0086 -0.3607 -0.8797
 3980TIP3    H136135   4.366   3.084  16.351  0.9447 -0.9262 -0.5351
 3980TIP3    H236136   4.332   3.121  16.493 -0.1244 -0.3212 -0.9375
 3981TIP3   OH236137   7.100   6.463  17.910  0.8324  0.3645 -0.2999
 3981TIP3    H136138   7.186   6.434  17.880 -0.2553 -1.4632 -1.8888
 3981TIP3    H236139   7.096   6.435  18.002  1.3494 -1.0136 -0.6667
 3982TIP3   OH236140   3.038   2.774  17.700 -0.1368  0.1943  0.1171
 3982TIP3    H136141   3.092   2.817  17.633 -0.0267 -0.6626 -0.3549
 3982TIP3    H236142   3.060   2.820  17.781  0.5589  0.5169 -0.2457
 3983TIP3   OH236143   5.106   1.109  17.259 -0.1633  0.0201 -0.1269
 3983TIP3    H136144   5.183   1.095  17.314  0.1000 -1.9492 -0.9030
 3983TIP3    H236145   5.055   1.028  17.268 -0.7584  0.1799 -1.7344
 3984TIP3   OH236146   1.735   7.004  16.178 -0.1544 -0.4627  0.4458
 3984TIP3    H136147   1.804   7.067  16.159 -0.7000  0.1182  0.3543
 3984TIP3    H236148   1.781   6.924  16.203  0.5571 -0.3742 -0.5255
 3985TIP3   OH236149   6.117   4.253  17.371 -0.0270  0.0395  0.0832
 3985TIP3    H136150   6.096   4.339  17.333 -0.3833 -0.6272 -1.2815
 3985TIP3    H236151   6.050   4.240  17.438 -2.0326 -0.5636 -1.9110
 3986TIP3   OH236152   2.874   3.934  19.791 -0.0501 -0.2686  0.3615
 3986TIP3    H136153   2.915   3.926  19.877  0.8462  0.2280 -0.0110
 3986TIP3    H236154   2.789   3.974  19.809  0.1008 -0.2325  1.0266
 3987TIP3   OH236155   2.653   1.099  17.234  0.1374 -0.4881  0.1963
 3987TIP3    H136156   2.672   1.050  17.314 -2.7608 -1.7020  0.2818
 3987TIP3    H236157   2.698   1.050  17.165 -0.5166 -1.7551  0.6325
 3988TIP3   OH236158   6.104   1.228  18.840  0.2689  0.0267 -0.3408
 3988TIP3    H136159   6.088   1.310  18.887 -1.5540 -0.5585  0.1461
 3988TIP3    H236160   6.157   1.177  18.900 -1.6138 -0.5133  0.9654
 3989TIP3   OH236161   1.030   5.641  16.180  0.7293  0.1536 -0.4021
 3989TIP3    H136162   1.102   5.701  16.162  0.0281  1.3814  0.7213
 3989TIP3    H236163   0.953   5.697  16.184 -0.0920 -0.9607 -0.2079
 3990TIP3   OH236164   5.328   0.004  19.089 -0.7125  0.2054 -0.4296
 3990TIP3    H136165   5.352  -0.066  19.028  0.3867 -0.1783  0.4165
 3990TIP3    H236166   5.369   0.082  19.053  1.5708 -0.3674  0.7780
 3991TIP3   OH236167   0.559   3.418  17.468 -0.2780 -0.1235  0.2415
 3991TIP3    H136168   0.598   3.409  17.381 -0.1898  0.9924  0.1440
 3991TIP3    H236169   0.486   3.356  17.468 -0.5565  0.1773 -0.8074
 3992TIP3   OH236170   4.948   4.612  17.166 -0.7456  0.0606  0.0638
 3992TIP3    H136171   5.020   4.584  17.223 -0.1917  1.4237  0.0755
 3992TIP3    H236172   4.978   4.590  17.077  0.0016  1.2120  0.0102
 3993TIP3   OH236173   0.214   4.217  18.361  0.1003 -0.2305 -0.3742
 3993TIP3    H136174   0.271   4.219  18.284 -0.8623  0.8993 -1.0847
 3993TIP3    H236175   0.229   4.301  18.405 -0.8511 -0.0045 -0.4561
 3994TIP3   OH236176   0.255   5.348  18.381 -0.1149 -0.7315 -0.3228
 3994TIP3    H136177   0.329   5.368  18.438 -0.9712  0.8803  0.2869
 3994TIP3    H236178   0.284   5.273  18.329  1.0314 -1.6707  1.5664
 3995TIP3   OH236179   0.445   1.424  18.474  0.0700 -0.4510 -0.0065
 3995TIP3    H136180   0.356   1.443  18.503  0.5460  0.5106  0.9212
 3995TIP3    H236181   0.482   1.371  18.545  0.4622 -0.2189 -0.0371
 3996TIP3   OH236182   2.357   3.185  18.560 -0.3113 -0.1990 -0.0765
 3996TIP3    H136183   2.278   3.149  18.600 -0.2808  0.7369  0.8848
 3996TIP3    H236184   2.429   3.144  18.607 -0.2276 -0.6825 -0.6195
 3997TIP3   OH236185   0.077   0.795  17.914  0.2392 -0.4148 -0.2619
 3997TIP3    H136186   0.140   0.793  17.986  1.8947 -0.8120 -1.6472
 3997TIP3    H236187   0.082   0.708  17.874 -0.0684  0.0281 -1.3123
 3998TIP3   OH236188   7.484   5.880  17.133 -0.6518  0.0841 -0.1751
 3998TIP3    H136189   7.416   5.946  17.124 -0.3518  0.6465  1.3286
 3998TIP3    H236190   7.443   5.811  17.185  0.1834  0.9228  1.7113
 3999TIP3   OH236191   6.664   6.992  17.788 -0.3477  0.7047 -0.0059
 3999TIP3    H136192   6.620   6.950  17.715 -1.0064 -0.9029  1.2599
 3999TIP3    H236193   6.750   6.950  17.792 -0.3925  0.6357  0.2603
 4000TIP3   OH236194   5.329   0.217  18.733  0.2366 -0.2899 -0.0201
 4000TIP3    H136195   5.336   0.263  18.649  0.0730 -0.1484  0.0450
 4000TIP3    H236196   5.380   0.137  18.720  1.7025  0.5406  0.3222
 4001TIP3   OH236197   6.215   3.928  18.213 -0.5859 -0.1377  0.5354
 4001TIP3    H136198   6.182   3.982  18.285  0.8059  0.6055  0.6483
 4001TIP3    H236199   6.306   3.911  18.236 -0.5728 -1.2456 -0.2793
 4002TIP3   OH236200   4.702   0.423  19.504  0.3784 -0.0225  0.3983
 4002TIP3    H136201   4.689   0.432  19.599  0.0768  0.5361  0.3062
 4002TIP3    H236202   4.618   0.449  19.466  0.9916  1.3114 -0.0894
 4003TIP3   OH236203   4.873   1.434  17.603  1.3011  0.0778 -0.8600
 4003TIP3    H136204   4.836   1.497  17.665  0.2573 -0.9327 -0.4145
 4003TIP3    H236205   4.881   1.483  17.521 -1.3558  0.3074 -1.0689
 4004TIP3   OH236206   0.518   5.048  18.531  0.7317 -0.8283  0.4496
 4004TIP3    H136207   0.477   5.088  18.607  2.3427  0.1694  0.8468
 4004TIP3    H236208   0.611   5.040  18.555  1.3601 -0.1155 -1.5205
 4005TIP3   OH236209   0.925   5.797  17.484 -0.1593 -0.3663 -0.6818
 4005TIP3    H136210   0.832   5.815  17.470 -0.2447 -1.1093 -1.1371
 4005TIP3    H236211   0.944   5.833  17.571 -1.0564 -0.8931 -0.2528
 4006TIP3   OH236212   6.110   1.655  19.322  0.4795  0.0398 -0.0029
 4006TIP3    H136213   6.018   1.651  19.296  0.7711  0.3687 -1.1141
 4006TIP3    H236214   6.108   1.693  19.410 -0.5168 -0.9700  0.4294
 4007TIP3   OH236215   1.520   1.614  17.323 -0.1940  0.3819 -0.5439
 4007TIP3    H136216   1.519   1.698  17.370  2.0905 -1.1724  2.6756
 4007TIP3    H236217   1.429   1.586  17.322 -0.7425  2.0187  0.0657
 4008TIP3   OH236218   2.453   5.723  16.941  0.4230 -0.6918  0.3486
 4008TIP3    H136219   2.409   5.640  16.922  1.2165 -1.2804  1.0125
 4008TIP3    H236220   2.440   5.776  16.862  0.9141 -1.8792 -0.5508
 4009TIP3   OH236221   3.643   5.002  17.356 -0.6714  0.4437 -0.0060
 4009TIP3    H136222   3.711   4.945  17.321  0.8979  2.1520  0.0934
 4009TIP3    H236223   3.648   4.990  17.451 -2.2825 -1.2895 -0.0835
 4010TIP3   OH236224   0.830   3.909  19.239  0.5050  0.0310  0.1236
 4010TIP3    H136225   0.845   4.002  19.219  1.3460 -0.2620 -0.7006
 4010TIP3    H236226   0.917   3.869  19.228 -0.3558 -1.3437 -2.3193
 4011TIP3   OH236227   2.623   2.329  19.190  0.3205  0.3599  0.0011
 4011TIP3    H136228   2.607   2.333  19.096 -0.4673 -0.7261  0.0729
 4011TIP3    H236229   2.628   2.235  19.209  0.7369  0.5775  0.9997
 4012TIP3   OH236230   7.075   5.141  18.737  0.3321 -0.2480  0.1262
 4012TIP3    H136231   7.077   5.173  18.827  0.1601  0.3904 -0.0939
 4012TIP3    H236232   7.148   5.078  18.733  0.9434  0.4202  0.4491
 4013TIP3   OH236233   1.160   5.119  17.121 -0.3196  0.0141 -0.0809
 4013TIP3    H136234   1.155   5.037  17.072 -0.5958  0.9584 -1.6857
 4013TIP3    H236235   1.251   5.149  17.109  0.0050 -0.4123  1.1435
 4014TIP3   OH236236   4.790   0.126  18.865  0.0554 -0.0533  0.2880
 4014TIP3    H136237   4.842   0.052  18.834 -0.6903 -0.1107 -0.8868
 4014TIP3    H236238   4.760   0.170  18.786 -0.7666  0.6251  0.9451
 4015TIP3   OH236239   4.630   0.674  16.850 -0.2088  0.4439 -0.4692
 4015TIP3    H136240   4.644   0.605  16.785  0.1181 -0.5520  0.6308
 4015TIP3    H236241   4.718   0.701  16.875 -0.3280  0.5111 -0.1218
 4016TIP3   OH236242   6.520   6.305  18.657 -0.1451 -0.2544  0.0777
 4016TIP3    H136243   6.589   6.320  18.592  1.7292  0.8620  2.1801
 4016TIP3    H236244   6.505   6.211  18.655  2.7610 -0.8170  0.7491
 4017TIP3   OH236245   7.231   5.777  18.837  0.4900 -0.3619  0.6820
 4017TIP3    H136246   7.201   5.823  18.916 -0.1213 -0.5962  0.5898
 4017TIP3    H236247   7.154   5.776  18.780  0.0813 -2.6144  1.1848
 4018TIP3   OH236248   3.364   7.197  19.393  0.2793 -1.0672 -0.0210
 4018TIP3    H136249   3.299   7.227  19.329 -0.4265 -1.3632  0.5428
 4018TIP3    H236250   3.313   7.146  19.456  0.7328  0.3338  1.5375
 4019TIP3   OH236251   0.349   3.962  16.138 -0.0204  0.1351 -0.2575
 4019TIP3    H136252   0.381   3.883  16.180  0.7465  2.1758  3.5011
 4019TIP3    H236253   0.260   3.973  16.172  0.7411  2.0287  1.3684
 4020TIP3   OH236254   3.251   4.897  16.922 -0.3278 -0.1965 -0.4929
 4020TIP3    H136255   3.256   4.807  16.952  0.4023  0.2064  0.6780
 4020TIP3    H236256   3.256   4.950  17.002  0.7592  0.9036 -1.2297
 4021TIP3   OH236257   0.435   4.263  18.181  0.0126 -0.2226 -0.0616
 4021TIP3    H136258   0.435   4.359  18.173  0.2174 -0.1484  0.7339
 4021TIP3    H236259   0.459   4.232  18.094 -1.5658  0.4003 -0.7667
 4022TIP3   OH236260   3.589   7.414  18.109  0.5385 -0.2654  0.2827
 4022TIP3    H136261   3.640   7.410  18.190  1.0912 -0.2155 -0.0605
 4022TIP3    H236262   3.525   7.343  18.118  0.5429 -0.2090  0.7982
 4023TIP3   OH236263   1.907   6.123  18.228 -0.2521  0.3517 -0.3611
 4023TIP3    H136264   1.823   6.153  18.195  0.5349  1.3613 -1.5357
 4023TIP3    H236265   1.939   6.062  18.162  0.0083  0.0679  0.0168
 4024TIP3   OH236266   5.306   2.531  16.892 -0.2137  0.3077 -0.4353
 4024TIP3    H136267   5.303   2.442  16.857  2.7185 -0.3237  0.5698
 4024TIP3    H236268   5.215   2.554  16.910 -1.0760 -2.3448 -1.0514
 4025TIP3   OH236269   4.482   6.097  17.018  0.1912  0.2068  0.6210
 4025TIP3    H136270   4.412   6.120  16.957 -0.3318  0.1631  1.1984
 4025TIP3    H236271   4.535   6.033  16.970 -0.7577 -0.5454  0.5367
 4026TIP3   OH236272   6.224   1.843  18.206 -0.2221  0.2820 -0.2867
 4026TIP3    H136273   6.152   1.888  18.161  1.0689  0.4976 -2.2780
 4026TIP3    H236274   6.268   1.913  18.256  0.0403  0.6762 -1.0447
 4027TIP3   OH236275   1.813   2.545  19.186 -0.2560  0.2699  0.0032
 4027TIP3    H136276   1.762   2.622  19.212 -0.6684 -0.6483  2.0664
 4027TIP3    H236277   1.747   2.478  19.166  0.0135 -0.9295  2.6830
 4028TIP3   OH236278   3.278   6.838  17.746  0.5651 -0.5208 -0.4117
 4028TIP3    H136279   3.353   6.874  17.698  0.7082 -2.6826 -1.9952
 4028TIP3    H236280   3.203   6.888  17.714  1.1742  0.9669  0.4092
 4029TIP3   OH236281   7.502   1.473  18.028  0.3055  0.2226  0.1690
 4029TIP3    H136282   7.447   1.463  17.951  0.2659 -0.4013  0.2783
 4029TIP3    H236283   7.461   1.544  18.078  0.4287  0.7470 -0.4625
 4030TIP3   OH236284   1.593   2.404  19.085  0.5343  0.2883 -0.1141
 4030TIP3    H136285   1.650   2.334  19.052 -1.0248 -0.8431 -0.5563
 4030TIP3    H236286   1.517   2.402  19.027  0.1702  1.9658  0.2545
 4031TIP3   OH236287   7.346   6.218  17.681 -0.2654  0.2767  0.2671
 4031TIP3    H136288   7.341   6.230  17.775  0.8659  0.7547  0.2847
 4031TIP3    H236289   7.315   6.301  17.644 -0.7500  0.0745  0.2096
 4032TIP3   OH236290   1.126   7.036  16.634  0.1527  0.5422  0.0971
 4032TIP3    H136291   1.050   7.036  16.577  1.1075 -1.3044 -1.2932
 4032TIP3    H236292   1.170   6.953  16.616 -0.0211 -0.7246  4.3119
 4033TIP3   OH236293   6.051   1.714  17.976 -0.2564 -0.0160  0.4404
 4033TIP3    H136294   6.124   1.660  18.006 -0.4518  0.8752  2.7399
 4033TIP3    H236295   5.973   1.673  18.013 -0.5060  1.1504  1.2866
 4034TIP3   OH236296   7.502   4.825  18.501 -0.2799  0.2352  0.5508
 4034TIP3    H136297   7.529   4.916  18.488  1.0364 -0.1677  0.2887
 4034TIP3    H236298   7.493   4.790  18.413 -0.5234  0.0380  0.6536
 4035TIP3   OH236299   0.624   4.672  17.497  0.4611 -0.5515 -0.0174
 4035TIP3    H136300   0.557   4.725  17.542  1.3461  0.0953  0.5754
 4035TIP3    H236301   0.617   4.697  17.405  1.1248  0.9311  0.3056
 4036TIP3   OH236302   5.887   6.595  18.724 -0.1048  0.5339 -0.0489
 4036TIP3    H136303   5.805   6.638  18.747 -0.9197 -1.1408  0.3222
 4036TIP3    H236304   5.905   6.624  18.635 -0.2279  2.1785  0.4230
 4037TIP3   OH236305   4.364   1.187  17.581  0.0609  0.7963 -0.3460
 4037TIP3    H136306   4.274   1.176  17.550  0.0162  1.0997 -0.3186
 4037TIP3    H236307   4.414   1.207  17.502 -0.0526  1.5639 -0.2287
 4038TIP3   OH236308   4.559   7.668  18.044  0.2084 -0.0281  0.6258
 4038TIP3    H136309   4.488   7.731  18.061  0.8313  1.3900 -1.6153
 4038TIP3    H236310   4.515   7.583  18.041 -1.0407  0.5603  1.3606
 4039TIP3   OH236311   1.719   1.454  18.621  0.2459 -0.0620 -0.0987
 4039TIP3    H136312   1.679   1.530  18.579  0.5134 -0.2717 -0.7485
 4039TIP3    H236313   1.669   1.379  18.589 -0.0594 -0.1583  0.5915
 4040TIP3   OH236314   1.049   2.030  18.534 -0.1080 -0.2491  0.0063
 4040TIP3    H136315   1.022   2.007  18.445  2.7256  0.3422 -1.1184
 4040TIP3    H236316   1.134   1.988  18.545  0.0138  0.4416  2.1046
 4041TIP3   OH236317   6.553   4.283  18.307 -0.1417  0.0590  0.5688
 4041TIP3    H136318   6.505   4.354  18.350 -0.2355 -0.7014  1.7695
 4041TIP3    H236319   6.632   4.273  18.360 -0.3857 -1.0722  0.7353
 4042TIP3   OH236320   4.673   2.570  19.491  0.4384  0.7380  0.7134
 4042TIP3    H136321   4.716   2.551  19.408  0.0900  0.8471  0.5055
 4042TIP3    H236322   4.722   2.519  19.556  0.7539  0.7051  0.4541
 4043TIP3   OH236323   3.783   1.223  18.007  0.2461 -0.2325 -0.4623
 4043TIP3    H136324   3.817   1.281  18.075 -0.2318 -2.9615  2.3828
 4043TIP3    H236325   3.859   1.199  17.955  0.6844  1.7168 -0.7904
 4044TIP3   OH236326   3.988   4.792  16.738  0.5429 -0.1050  0.2292
 4044TIP3    H136327   3.937   4.720  16.774  0.2928  0.7954  1.7670
 4044TIP3    H236328   4.036   4.754  16.664 -0.9744 -1.3899 -0.1414
 4045TIP3   OH236329   4.393   2.107  18.620 -0.0373  0.2395 -0.1791
 4045TIP3    H136330   4.451   2.145  18.687  1.2181 -0.5550 -0.7777
 4045TIP3    H236331   4.428   2.020  18.605 -1.9052 -0.5854  0.0076
 4046TIP3   OH236332   0.643   3.137  17.380  0.6383 -0.2417 -0.3422
 4046TIP3    H136333   0.623   3.049  17.349 -1.4848  1.0015 -2.8519
 4046TIP3    H236334   0.641   3.130  17.476  0.2402 -2.8345 -0.4836
 4047TIP3   OH236335   4.072   4.493  17.159 -0.3428 -0.2502  0.8431
 4047TIP3    H136336   3.988   4.516  17.199  0.1200  1.3287  0.9786
 4047TIP3    H236337   4.137   4.517  17.225  0.3427  0.9491 -0.2269
 4048TIP3   OH236338   3.606   6.499  16.569  0.3517  0.5733  0.0894
 4048TIP3    H136339   3.551   6.577  16.559  1.3363  1.1779 -0.7291
 4048TIP3    H236340   3.636   6.479  16.481 -1.9640 -2.3420 -0.2091
 4049TIP3   OH236341   1.914   6.496  17.732  0.3043  0.8348  0.2293
 4049TIP3    H136342   1.849   6.514  17.663  1.7234  1.3063 -1.0382
 4049TIP3    H236343   1.987   6.454  17.686  1.4372  1.4680  1.3792
 4050TIP3   OH236344   0.078   1.492  17.624 -0.0717  0.2582  0.6548
 4050TIP3    H136345   0.115   1.501  17.712  0.7788  1.7853  0.1759
 4050TIP3    H236346   0.107   1.406  17.594  0.5628  0.1883  1.4485
 4051TIP3   OH236347   6.785   1.525  17.400 -0.5576  0.3848  0.2649
 4051TIP3    H136348   6.835   1.607  17.398  0.3849 -0.1409  1.1015
 4051TIP3    H236349   6.695   1.551  17.380  0.1309  1.2665 -2.0917
 4052TIP3   OH236350   2.627   7.477  16.986 -0.1195 -0.5433 -0.4753
 4052TIP3    H136351   2.612   7.572  16.982 -0.1642 -0.5407 -0.2293
 4052TIP3    H236352   2.654   7.454  16.897  0.9092 -0.1241 -0.2850
 4053TIP3   OH236353   7.204   5.248  18.394  0.3669 -0.6488  0.2388
 4053TIP3    H136354   7.222   5.155  18.381 -1.6517 -1.2233  1.1521
 4053TIP3    H236355   7.119   5.262  18.352  0.5942  0.7608  0.2085
 4054TIP3   OH236356   5.235   4.392  18.855  0.0137  0.5429 -0.6965
 4054TIP3    H136357   5.241   4.421  18.946 -0.9018 -0.6577 -0.2272
 4054TIP3    H236358   5.232   4.474  18.805 -0.1866  1.2450  0.4014
 4055TIP3   OH236359   6.029   6.460  17.562  0.8571 -0.6430  0.4865
 4055TIP3    H136360   6.053   6.538  17.613 -1.4368  2.7129 -2.9781
 4055TIP3    H236361   6.065   6.477  17.475  0.6617 -3.7853 -0.3105
 4056TIP3   OH236362   0.576   4.255  17.955 -0.0888  0.3262 -0.4149
 4056TIP3    H136363   0.590   4.279  17.863  0.4724 -1.3427 -0.8045
 4056TIP3    H236364   0.645   4.300  18.002 -0.8329  1.8088 -0.6785
 4057TIP3   OH236365   3.603   2.071  19.480 -0.5151  0.4455 -0.5228
 4057TIP3    H136366   3.531   2.115  19.436 -0.9393 -0.2247 -0.5128
 4057TIP3    H236367   3.673   2.137  19.484 -0.8623  0.8649 -1.1937
 4058TIP3   OH236368   6.647   4.311  17.550 -0.0080  0.2039 -0.1418
 4058TIP3    H136369   6.726   4.362  17.531 -0.4605  1.1878  0.5575
 4058TIP3    H236370   6.578   4.351  17.497 -0.1161 -0.4926 -0.5543
 4059TIP3   OH236371   5.236   0.328  17.451 -0.6359 -0.2082  0.0517
 4059TIP3    H136372   5.204   0.275  17.377 -0.1676  0.6903 -0.8241
 4059TIP3    H236373   5.164   0.326  17.514 -0.9096 -1.2871 -0.2732
 4060TIP3   OH236374   2.806   7.551  18.032  0.2527  0.6081  0.1368
 4060TIP3    H136375   2.851   7.489  17.975 -0.4186  0.3900 -0.1645
 4060TIP3    H236376   2.713   7.527  18.026  0.2719 -0.1856  2.2608
 4061TIP3   OH236377   1.766   2.899  17.984 -0.0172  0.0236  0.2922
 4061TIP3    H136378   1.754   2.974  18.042  1.2307 -0.0403  0.6514
 4061TIP3    H236379   1.705   2.833  18.018  2.3749 -0.9258  3.1471
 4062TIP3   OH236380   1.496   0.648  17.791  0.2508  0.4564 -0.0945
 4062TIP3    H136381   1.436   0.603  17.851 -1.6852  1.0839 -1.4487
 4062TIP3    H236382   1.482   0.741  17.810  0.5817  0.6204 -0.6394
 4063TIP3   OH236383   4.902   6.260  17.317  0.4399 -0.4490  0.4255
 4063TIP3    H136384   4.940   6.329  17.263 -1.3699  0.2165 -0.0689
 4063TIP3    H236385   4.932   6.281  17.406  0.5462  0.5355  0.1730
 4064TIP3   OH236386   3.712   6.678  19.049  0.5304 -0.1916 -0.4437
 4064TIP3    H136387   3.645   6.738  19.082  0.7654 -0.2985  0.2561
 4064TIP3    H236388   3.666   6.621  18.987  0.2262  0.4659 -0.8291
 4065TIP3   OH236389   3.236   4.655  18.674 -0.5119 -0.7348  0.3824
 4065TIP3    H136390   3.318   4.636  18.719 -0.2180  2.0765  1.2584
 4065TIP3    H236391   3.180   4.694  18.740 -0.3352  2.8638 -1.3407
 4066TIP3   OH236392   6.015   7.648  19.443 -0.2221 -0.9964  0.1074
 4066TIP3    H136393   5.979   7.730  19.409 -1.5159 -1.5912 -0.0210
 4066TIP3    H236394   6.051   7.671  19.528  2.3808  0.3690 -1.2472
 4067TIP3   OH236395   3.501   4.047  18.159 -0.2499 -0.0664 -0.1155
 4067TIP3    H136396   3.491   4.091  18.075 -2.5220 -0.1105  0.0622
 4067TIP3    H236397   3.572   3.984  18.145  0.2531  0.7810 -1.5986
 4068TIP3   OH236398   5.260   3.730  17.578 -0.0598  0.4431 -0.4991
 4068TIP3    H136399   5.344   3.748  17.535 -0.2220  0.1690 -0.9350
 4068TIP3    H236400   5.209   3.682  17.513 -0.7079  0.9544 -0.3891
 4069TIP3   OH236401   4.040   4.973  17.939 -0.1295  0.1272 -0.2093
 4069TIP3    H136402   4.051   5.034  18.012  0.0757 -1.2328  0.9377
 4069TIP3    H236403   3.962   5.005  17.892 -2.1985 -0.7023  2.4227
 4070TIP3   OH236404   7.537   4.705  18.246  0.2251  0.0735 -0.2854
 4070TIP3    H136405   7.493   4.723  18.163  1.1852  1.6626 -0.4969
 4070TIP3    H236406   7.563   4.613  18.239 -2.3983 -0.7436 -0.4005
 4071TIP3   OH236407   7.478   1.546  19.252  0.0032 -0.0643  0.0362
 4071TIP3    H136408   7.389   1.567  19.222  0.0302 -0.3574 -0.2498
 4071TIP3    H236409   7.502   1.620  19.308  0.5219  1.2786 -1.8281
 4072TIP3   OH236410   5.788   4.952  17.799  0.1644 -0.2044 -0.3795
 4072TIP3    H136411   5.820   4.894  17.730  1.9655  0.5797 -0.2626
 4072TIP3    H236412   5.816   5.040  17.771  0.0947  0.2388  0.8820
 4073TIP3   OH236413   6.861   6.391  18.786 -0.4580  0.2577 -0.2500
 4073TIP3    H136414   6.774   6.364  18.758 -0.6498  1.2463 -0.6306
 4073TIP3    H236415   6.890   6.454  18.719 -0.1566  1.2266  0.7557
 4074TIP3   OH236416   7.225   4.894  19.004  0.2764  0.4034  0.4656
 4074TIP3    H136417   7.144   4.848  19.024  1.2238 -0.9951  1.2683
 4074TIP3    H236418   7.252   4.858  18.919  0.4153  0.3280  0.5401
 4075TIP3   OH236419   6.293   0.054  18.972 -0.2918  0.0501  0.8259
 4075TIP3    H136420   6.300   0.145  18.943  1.4051 -0.5644 -1.0112
 4075TIP3    H236421   6.211   0.023  18.934  0.1103  0.2986 -0.2977
 4076TIP3   OH236422   1.185   0.851  18.402 -0.2581 -0.0348  0.1195
 4076TIP3    H136423   1.107   0.833  18.350  0.1511  1.4162 -1.0827
 4076TIP3    H236424   1.208   0.941  18.379  0.2527  0.4807  2.4590
 4077TIP3   OH236425   0.750   5.226  16.724  0.2545 -0.1124 -0.6596
 4077TIP3    H136426   0.677   5.261  16.776 -0.6076  0.6986 -2.3612
 4077TIP3    H236427   0.710   5.159  16.669  1.4042 -1.9081  0.5675
 4078TIP3   OH236428   3.864   2.612  18.884  0.3529  0.0199  0.1511
 4078TIP3    H136429   3.842   2.672  18.813  0.8836 -1.8164 -1.6459
 4078TIP3    H236430   3.959   2.600  18.877  0.2818 -0.8825  0.6009
 4079TIP3   OH236431   6.048   0.133  19.094 -0.0302 -0.1779 -0.2323
 4079TIP3    H136432   6.053   0.039  19.080  0.0123 -0.2976  0.5166
 4079TIP3    H236433   5.973   0.144  19.153 -1.7734  0.5275 -2.4410
 4080TIP3   OH236434   1.489   5.497  18.103  0.3881 -0.0663 -0.2061
 4080TIP3    H136435   1.536   5.575  18.133 -0.3356  0.2593  0.0999
 4080TIP3    H236436   1.412   5.492  18.159  0.4012 -0.9843 -0.2480
 4081TIP3   OH236437   4.016   4.395  18.960  0.9255 -0.1045 -0.2957
 4081TIP3    H136438   4.021   4.454  19.035 -1.2469  0.3168 -0.4276
 4081TIP3    H236439   4.008   4.308  18.998 -0.1741  0.1094 -0.0197
 4082TIP3   OH236440   0.302   4.737  17.658  0.2713  0.2726  0.0876
 4082TIP3    H136441   0.237   4.790  17.706  1.2768  0.6411  1.0869
 4082TIP3    H236442   0.386   4.761  17.697  0.7769 -2.0002  0.5327
 4083TIP3   OH236443   1.756   4.029  17.779 -0.1911 -0.0524  0.2654
 4083TIP3    H136444   1.724   4.071  17.859 -0.4049  0.8340 -0.2731
 4083TIP3    H236445   1.851   4.026  17.789 -0.2771 -0.7889  0.9513
 4084TIP3   OH236446   3.734   6.117  17.746  0.4001 -0.2270  0.3942
 4084TIP3    H136447   3.789   6.077  17.679  0.3289  1.5845 -0.8257
 4084TIP3    H236448   3.741   6.211  17.729  1.5798  0.4432  3.9068
 4085TIP3   OH236449   2.451   4.485  17.417 -0.3451 -0.0411 -0.4118
 4085TIP3    H136450   2.509   4.410  17.398  0.4476  0.7214 -1.1163
 4085TIP3    H236451   2.504   4.542  17.473 -1.1666 -0.2819  0.6247
 4086TIP3   OH236452   3.779   6.363  17.663  0.3561  0.5347 -0.0240
 4086TIP3    H136453   3.819   6.442  17.627 -0.0913  0.2925 -1.0584
 4086TIP3    H236454   3.718   6.396  17.730  0.4995  1.0356 -0.1325
 4087TIP3   OH236455   7.372   5.511  18.775 -0.1204 -0.1156  0.7033
 4087TIP3    H136456   7.324   5.573  18.830 -0.6642 -1.1066  1.3671
 4087TIP3    H236457   7.335   5.523  18.688 -1.1593 -0.4344  1.0897
 4088TIP3   OH236458   2.118   7.594  18.566  0.3581  0.1494 -0.0676
 4088TIP3    H136459   2.128   7.545  18.648 -0.7305  1.5113  0.9258
 4088TIP3    H236460   2.025   7.587  18.546  0.6886 -0.5240 -1.4499
 4089TIP3   OH236461   5.073   4.337  18.627  0.2672 -0.5333 -0.0492
 4089TIP3    H136462   5.158   4.338  18.671 -0.5384  0.7620  1.6076
 4089TIP3    H236463   5.015   4.290  18.688 -1.1004  2.1074  0.8563
 4090TIP3   OH236464   2.285   4.739  19.363  0.1601 -0.3450  0.1359
 4090TIP3    H136465   2.275   4.646  19.345  1.3663 -0.2740 -1.0752
 4090TIP3    H236466   2.198   4.769  19.386 -0.3734 -1.6338 -0.1409
 4091TIP3   OH236467   5.001   4.104  18.491  0.1675 -0.4244  0.2637
 4091TIP3    H136468   5.009   4.160  18.568 -0.4047  2.1204 -1.4069
 4091TIP3    H236469   4.909   4.113  18.464  0.3387 -1.2868 -0.6810
 4092TIP3   OH236470   5.358   1.292  17.488  0.2334 -0.0090 -0.0858
 4092TIP3    H136471   5.286   1.303  17.550 -0.2359  0.2216 -0.6668
 4092TIP3    H236472   5.435   1.322  17.536 -0.0831 -0.0672  0.4694
 4093TIP3   OH236473   4.966   1.349  17.296  0.1765 -0.2015 -0.8050
 4093TIP3    H136474   5.039   1.400  17.331 -0.8558  0.6526  0.1546
 4093TIP3    H236475   5.006   1.266  17.269  1.6352  0.5565 -1.0559
 4094TIP3   OH236476   0.327   4.131  17.816 -0.0342  0.0324 -0.2479
 4094TIP3    H136477   0.403   4.184  17.791 -0.9849  1.6801  0.1770
 4094TIP3    H236478   0.269   4.134  17.740  0.7084 -2.0433 -0.9448
 4095TIP3   OH236479   3.244   7.140  17.881 -0.2831  0.2039 -0.0663
 4095TIP3    H136480   3.149   7.135  17.873 -0.3153 -0.6011  0.6787
 4095TIP3    H236481   3.261   7.231  17.904 -0.9133  0.2385  0.2962
 4096TIP3   OH236482   6.958   0.488  17.968  0.3944  0.2971 -0.0848
 4096TIP3    H136483   7.037   0.533  17.996  0.5724 -0.5151  0.7330
 4096TIP3    H236484   6.988   0.402  17.939  0.0809  0.7343 -1.8233
 4097TIP3   OH236485   0.337   3.517  18.481 -0.1802 -0.0897 -0.3668
 4097TIP3    H136486   0.316   3.605  18.452  1.8555 -0.0028 -1.8008
 4097TIP3    H236487   0.322   3.519  18.576 -0.6118  1.6413 -0.4404
 4098TIP3   OH236488   7.538   6.118  19.252 -0.3681 -0.1779  0.4162
 4098TIP3    H136489   7.473   6.161  19.197 -0.6170 -2.9012 -1.6586
 4098TIP3    H236490   7.622   6.146  19.217 -0.5260 -1.0917 -0.7712
 4099TIP3   OH236491   1.651   4.169  18.012  0.1246  0.2724 -0.8479
 4099TIP3    H136492   1.655   4.264  18.014  0.7341  0.2660  1.7630
 4099TIP3    H236493   1.558   4.149  18.003 -0.2709  1.1649  0.9055
 4100TIP3   OH236494   3.405   7.616  18.001 -0.1669 -0.5030 -0.1943
 4100TIP3    H136495   3.467   7.558  18.046 -1.0764  0.1182  2.0007
 4100TIP3    H236496   3.458   7.690  17.971  0.2624 -0.0952  1.4404
 4101TIP3   OH236497   0.985   3.842  17.785 -0.5986 -0.3476  0.0156
 4101TIP3    H136498   1.021   3.785  17.852 -1.2258  1.5011  2.0562
 4101TIP3    H236499   0.890   3.832  17.793 -0.6738 -1.0423 -1.4907
 4102TIP3   OH236500   5.796   2.066  17.821 -0.3366  0.1354  0.1321
 4102TIP3    H136501   5.813   2.036  17.732 -1.2083 -0.5571  0.1842
 4102TIP3    H236502   5.850   2.145  17.831  2.3420 -1.5538  0.0977
 4103TIP3   OH236503   5.460   5.771  17.432  0.2388 -0.2223  0.4316
 4103TIP3    H136504   5.547   5.740  17.407 -0.4024 -0.7883 -1.2072
 4103TIP3    H236505   5.465   5.866  17.421 -0.5384 -0.4703 -4.1466
 4104TIP3   OH236506   4.338   5.208  18.057 -0.7274  0.6171  0.3050
 4104TIP3    H136507   4.312   5.261  17.982  1.1525  0.1900 -0.7111
 4104TIP3    H236508   4.339   5.270  18.130 -1.7799  1.2222 -0.1610
 4105TIP3   OH236509   4.144   3.475  17.575 -0.3953 -0.3562 -0.0129
 4105TIP3    H136510   4.119   3.390  17.612  1.2086 -1.0612 -0.4844
 4105TIP3    H236511   4.196   3.517  17.644  0.1296 -0.4331 -0.3538
 4106TIP3   OH236512   4.691   2.885  18.544  0.2916  0.2795 -0.0034
 4106TIP3    H136513   4.678   2.979  18.535  1.0977  0.4826  0.7819
 4106TIP3    H236514   4.785   2.872  18.529  0.1683 -0.4202 -0.2356
 4107TIP3   OH236515   1.736   0.560  17.690 -0.0524  0.2988 -0.2464
 4107TIP3    H136516   1.651   0.601  17.705 -0.3627 -0.5702  0.4861
 4107TIP3    H236517   1.789   0.585  17.766  0.2037  0.4805 -0.4842
 4108TIP3   OH236518   6.974   1.797  19.167 -0.2849  0.4634  0.5040
 4108TIP3    H136519   7.003   1.718  19.213 -1.4356  0.8788  2.0255
 4108TIP3    H236520   6.883   1.807  19.193 -0.4585  1.7306 -0.5028
 4109TIP3   OH236521   6.799   2.965  18.175  0.3476 -0.0287  0.0164
 4109TIP3    H136522   6.716   2.941  18.135  1.0157 -0.5271 -1.1231
 4109TIP3    H236523   6.775   3.001  18.261 -0.9334 -1.4376  0.2944
 4110TIP3   OH236524   2.789   4.053  18.920 -0.1512 -0.1204 -0.6017
 4110TIP3    H136525   2.723   4.065  18.851  0.8403  2.5543 -1.2325
 4110TIP3    H236526   2.746   4.085  19.000  0.2745  1.5967 -1.0078
 4111TIP3   OH236527   1.274   2.892  17.334  0.1591  0.0366 -0.0166
 4111TIP3    H136528   1.294   2.977  17.295 -0.2904 -0.5290 -1.5496
 4111TIP3    H236529   1.344   2.877  17.397  0.7390  1.1305 -0.3778
 4112TIP3   OH236530   3.652   7.654  18.707 -0.0021  0.2704 -0.1709
 4112TIP3    H136531   3.559   7.638  18.723  0.0449 -1.7544 -1.6205
 4112TIP3    H236532   3.685   7.573  18.670  2.3452  0.9913  0.1568
 4113TIP3   OH236533   5.512   7.519  18.355  0.1223  0.2189  0.4801
 4113TIP3    H136534   5.429   7.502  18.309  1.0503 -1.7162 -0.6341
 4113TIP3    H236535   5.524   7.443  18.412  0.5235  1.1126  1.6335
 4114TIP3   OH236536   0.960   1.883  18.242  0.3058  0.1676 -0.1961
 4114TIP3    H136537   0.922   1.822  18.179 -1.4836  1.0727 -0.0518
 4114TIP3    H236538   1.049   1.898  18.210 -0.4074  0.2640 -2.2849
 4115TIP3   OH236539   0.865   1.185  18.399  0.1061 -0.3808 -0.1086
 4115TIP3    H136540   0.799   1.119  18.379 -0.9426  0.4446  0.4365
 4115TIP3    H236541   0.883   1.228  18.316 -0.7150 -0.0443 -0.1204
 4116TIP3   OH236542   3.096   2.872  17.425 -0.4842 -0.3197  0.1997
 4116TIP3    H136543   3.075   2.909  17.339 -0.8846 -0.5948  0.1745
 4116TIP3    H236544   3.172   2.816  17.409  0.3621  0.7736  0.3106
 4117TIP3   OH236545   4.983   2.893  18.734 -0.2525 -0.1967 -0.3587
 4117TIP3    H136546   5.074   2.878  18.761 -0.4928  1.0398  1.3164
 4117TIP3    H236547   4.971   2.838  18.657  1.1464 -2.3756  0.8845
 4118TIP3   OH236548   5.959   0.666  19.222  0.0824  0.0148  0.2400
 4118TIP3    H136549   5.940   0.731  19.288 -0.6055 -0.5371  0.6003
 4118TIP3    H236550   6.048   0.685  19.194 -0.5551  1.9582 -0.6505
 4119TIP3   OH236551   7.151   1.036  18.532 -0.0748 -0.0769 -0.3269
 4119TIP3    H136552   7.082   1.081  18.484  1.1407  1.2507 -0.8996
 4119TIP3    H236553   7.180   0.966  18.474 -1.2446 -0.9756  0.1264
 4120TIP3   OH236554   3.771   2.784  18.141 -0.6764 -0.0078 -0.9146
 4120TIP3    H136555   3.824   2.829  18.206 -0.8935 -0.2073 -0.5951
 4120TIP3    H236556   3.817   2.702  18.126 -0.5619  0.0908 -1.1031
 4121TIP3   OH236557   1.615   4.486  19.089  0.4883  0.4360 -0.7152
 4121TIP3    H136558   1.633   4.577  19.114 -1.2582  0.6272 -0.0339
 4121TIP3    H236559   1.605   4.439  19.172 -0.0826 -0.0591 -1.0532
 4122TIP3   OH236560   6.901   0.310  18.387 -0.5960  0.6632 -0.0887
 4122TIP3    H136561   6.917   0.243  18.454 -0.4835  0.3857 -0.3919
 4122TIP3    H236562   6.903   0.393  18.435  2.9792  0.8111 -0.2007
 4123TIP3   OH236563   1.533   3.540  18.085  0.5978 -0.1573  0.0884
 4123TIP3    H136564   1.550   3.495  18.002  1.7289 -0.0819  0.2562
 4123TIP3    H236565   1.464   3.488  18.127  0.0799 -0.2445 -0.8528
 4124TIP3   OH236566   1.092   2.541  17.176  0.0750 -0.4106  0.2041
 4124TIP3    H136567   1.097   2.461  17.122 -1.9030  0.0757 -0.8128
 4124TIP3    H236568   0.998   2.550  17.195  0.4983  0.6298  1.9583
 4125TIP3   OH236569   6.675   1.651  17.868  0.1187 -0.0366 -0.3925
 4125TIP3    H136570   6.613   1.580  17.852 -0.3737  0.7857 -2.4836
 4125TIP3    H236571   6.621   1.724  17.899  0.4145 -0.1097  0.3120
 4126TIP3   OH236572   6.053   2.039  16.915  0.2019 -0.0390  0.0187
 4126TIP3    H136573   6.128   2.063  16.860 -0.5415  0.4002 -0.8318
 4126TIP3    H236574   6.078   1.956  16.955  2.3818  1.4820  2.1387
 4127TIP3   OH236575   0.018   6.930  19.133  0.0181  0.1771  0.0475
 4127TIP3    H136576   0.010   6.940  19.038  0.1033  0.4695  0.0691
 4127TIP3    H236577   0.003   7.018  19.167  5.0672  1.3959 -0.0216
 4128TIP3   OH236578   0.126   5.125  19.428  0.2396 -0.0181  0.1307
 4128TIP3    H136579   0.127   5.067  19.504  0.1683 -0.9912 -0.5926
 4128TIP3    H236580   0.218   5.141  19.409  0.3020  2.2329  1.8651
 4129TIP3   OH236581   1.129   0.838  16.824  0.1159  0.4753  0.0661
 4129TIP3    H136582   1.089   0.756  16.794  2.9572 -0.8273 -0.5929
 4129TIP3    H236583   1.126   0.896  16.748 -2.1685  1.1464  0.6203
 4130TIP3   OH236584   7.449   6.836  17.016 -0.1657 -0.3058 -0.5778
 4130TIP3    H136585   7.376   6.842  16.954 -0.2122  0.8616 -0.4353
 4130TIP3    H236586   7.413   6.792  17.092 -1.5397  2.5669  0.5746
 4131TIP3   OH236587   4.005   6.965  17.907 -0.2069  0.0390  0.2905
 4131TIP3    H136588   4.065   6.891  17.918  0.7649  0.9796  1.5344
 4131TIP3    H236589   3.918   6.927  17.925  0.1008 -1.0940 -0.4930
 4132TIP3   OH236590   3.776   1.340  19.165  0.2997  0.4923 -0.6536
 4132TIP3    H136591   3.723   1.373  19.238 -0.2438 -0.3160 -0.6680
 4132TIP3    H236592   3.726   1.266  19.131  1.4603 -0.3186 -0.6507
 4133TIP3   OH236593   0.807   2.751  17.417  0.1767  0.0956  0.1388
 4133TIP3    H136594   0.808   2.775  17.324 -0.0035  0.9605  0.3501
 4133TIP3    H236595   0.877   2.803  17.456  0.3400 -0.3654  0.4641
 4134TIP3   OH236596   2.508   2.250  16.642  0.4018  0.1561  0.6335
 4134TIP3    H136597   2.592   2.291  16.662 -0.8204  2.3647  1.7421
 4134TIP3    H236598   2.454   2.322  16.607 -0.0919 -1.8842 -3.2999
 4135TIP3   OH236599   2.069   0.699  17.521  0.4689  0.2061  0.0668
 4135TIP3    H136600   1.997   0.762  17.520  0.1998 -0.0733  1.2286
 4135TIP3    H236601   2.061   0.653  17.604  1.2177 -0.7332 -0.3524
 4136TIP3   OH236602   4.486   1.438  18.314  0.0397  0.1988 -0.4643
 4136TIP3    H136603   4.390   1.442  18.315  0.0605  0.8043  0.6891
 4136TIP3    H236604   4.513   1.529  18.326  0.7577 -0.0246 -0.3927
 4137TIP3   OH236605   5.451   0.519  18.902 -0.3569 -0.1099  0.0501
 4137TIP3    H136606   5.443   0.598  18.955 -0.5017 -0.0726 -0.0284
 4137TIP3    H236607   5.480   0.452  18.964 -1.5836 -0.3302  0.4135
 4138TIP3   OH236608   1.280   3.133  18.625 -0.0023  0.1173  0.6018
 4138TIP3    H136609   1.259   3.048  18.662  0.9863 -1.5755 -2.3395
 4138TIP3    H236610   1.195   3.171  18.602 -0.4075 -1.1923 -0.2006
 4139TIP3   OH236611   4.699   7.298  16.844 -0.0780  0.4791 -0.2604
 4139TIP3    H136612   4.677   7.300  16.751 -0.3713 -2.6165 -0.3589
 4139TIP3    H236613   4.792   7.320  16.846 -0.1224  0.8276 -1.2526
 4140TIP3   OH236614   7.315   4.405  16.677  0.1761  0.1637  0.0312
 4140TIP3    H136615   7.292   4.451  16.596  1.2627  3.1297  1.2324
 4140TIP3    H236616   7.404   4.437  16.697 -0.1793 -0.2350  2.5025
 4141TIP3   OH236617   1.358   7.140  17.451 -0.6457 -0.0727  0.1530
 4141TIP3    H136618   1.292   7.090  17.500 -1.1356 -0.6726 -1.0620
 4141TIP3    H236619   1.399   7.075  17.394  0.7279  0.3773  0.5782
 4142TIP3   OH236620   2.259   6.353  17.096  0.0775 -0.2786 -0.2434
 4142TIP3    H136621   2.311   6.417  17.046 -1.3434  0.5355 -0.7472
 4142TIP3    H236622   2.324   6.304  17.147  1.3900  0.2581 -1.3216
 4143TIP3   OH236623   2.522   5.732  19.123  0.5353 -0.0785 -0.1279
 4143TIP3    H136624   2.601   5.768  19.085 -0.0353  1.4345  0.0583
 4143TIP3    H236625   2.452   5.761  19.065  0.0759 -1.2168 -0.1738
 4144TIP3   OH236626   2.564   2.076  18.779 -0.0055 -0.2913 -0.5986
 4144TIP3    H136627   2.598   2.163  18.759  1.3813 -1.0573 -1.7710
 4144TIP3    H236628   2.576   2.026  18.698 -1.5008 -1.3704 -0.2015
 4145TIP3   OH236629   1.023   4.324  18.397 -0.6273 -0.0478 -0.3969
 4145TIP3    H136630   1.046   4.255  18.334  1.0294  1.4964 -1.6151
 4145TIP3    H236631   0.934   4.349  18.373 -0.7729 -0.8940 -0.7790
 4146TIP3   OH236632   3.056   6.549  19.021  0.3425  0.3609 -1.1648
 4146TIP3    H136633   3.092   6.500  19.095 -1.1626  1.9082  0.7294
 4146TIP3    H236634   3.133   6.579  18.972  1.4289 -0.2470  0.0989
 4147TIP3   OH236635   4.621   2.343  18.283  0.4044  0.3581  0.0889
 4147TIP3    H136636   4.678   2.368  18.211  2.6001 -0.8913  1.2797
 4147TIP3    H236637   4.677   2.347  18.361 -1.0801 -1.1176  1.3119
 4148TIP3   OH236638   1.669   6.332  16.085  0.0810  0.1388  0.3527
 4148TIP3    H136639   1.711   6.394  16.144  1.9695 -0.6734 -0.0471
 4148TIP3    H236640   1.701   6.356  15.998  1.1879 -1.5977  0.2393
 4149TIP3   OH236641   5.772   1.100  18.727  0.3032  0.5881  0.0953
 4149TIP3    H136642   5.816   1.036  18.671 -2.8179 -0.9805 -0.8520
 4149TIP3    H236643   5.769   1.058  18.813 -0.5429  0.0086 -0.1990
 4150TIP3   OH236644   4.943   2.775  18.481 -0.5207 -0.8662  0.2303
 4150TIP3    H136645   4.887   2.742  18.410 -1.7701 -2.4589  1.8373
 4150TIP3    H236646   5.024   2.724  18.474 -0.7300 -1.1770  0.0714
 4151TIP3   OH236647   6.457   4.402  18.063  0.3103  0.2056 -0.5375
 4151TIP3    H136648   6.505   4.363  17.990 -0.1683  2.3154 -2.0809
 4151TIP3    H236649   6.505   4.373  18.141  2.4487  0.0271 -1.8243
 4152TIP3   OH236650   0.454   4.490  17.019  0.5922 -0.1927 -0.6373
 4152TIP3    H136651   0.470   4.574  17.062 -0.0611 -0.6934  0.6532
 4152TIP3    H236652   0.366   4.465  17.048  0.0811 -0.5248 -2.3826
 4153TIP3   OH236653   3.626   3.252  19.180  0.0840 -0.6935 -0.0855
 4153TIP3    H136654   3.667   3.339  19.187  1.5464 -1.2589 -1.1535
 4153TIP3    H236655   3.557   3.264  19.115  0.8917 -0.5281 -0.9289
 4154TIP3   OH236656   3.069   5.983  17.643  0.0103  0.5373 -1.0888
 4154TIP3    H136657   3.130   5.996  17.716 -1.5094  1.3803  0.0848
 4154TIP3    H236658   3.117   5.926  17.582  1.4708  0.1278  0.3610
 4155TIP3   OH236659   5.018   2.887  17.573 -0.0508  0.2925 -0.2330
 4155TIP3    H136660   5.108   2.861  17.555  0.4357  1.6862  0.0318
 4155TIP3    H236661   4.990   2.830  17.644  1.2160  0.9604  0.8361
 4156TIP3   OH236662   1.236   5.169  16.094  0.2095  0.1339  0.1302
 4156TIP3    H136663   1.231   5.074  16.090 -0.6978  0.2180 -2.8110
 4156TIP3    H236664   1.152   5.199  16.060  1.0575  1.9803 -0.4540
 4157TIP3   OH236665   5.057   5.899  18.239 -0.2349  0.1160 -0.0532
 4157TIP3    H136666   5.011   5.819  18.213 -0.6531  0.2168  0.3440
 4157TIP3    H236667   5.013   5.968  18.190 -0.9634  0.2943  0.8207
 4158TIP3   OH236668   2.249   3.675  17.275  0.0823  0.0303 -0.0160
 4158TIP3    H136669   2.335   3.672  17.233 -1.5332 -0.8784 -3.6488
 4158TIP3    H236670   2.221   3.584  17.280 -0.9362  0.3545  0.5132
 4159TIP3   OH236671   1.170   4.793  18.354 -0.4044  0.1235 -0.3710
 4159TIP3    H136672   1.145   4.793  18.446  0.3781 -1.2950 -0.1241
 4159TIP3    H236673   1.164   4.701  18.327 -1.3746  0.5988 -1.9657
 4160TIP3   OH236674   3.560   0.590  17.452 -0.4227  0.6496  0.1297
 4160TIP3    H136675   3.644   0.593  17.407 -1.4462 -0.6599 -2.0497
 4160TIP3    H236676   3.495   0.586  17.382 -2.2884  1.0542  1.7400
 4161TIP3   OH236677   0.668   1.689  18.539  0.4354  0.2085  0.1524
 4161TIP3    H136678   0.606   1.616  18.530  1.0649 -0.4250  0.8703
 4161TIP3    H236679   0.752   1.653  18.512  0.5636  0.9899 -0.5475
 4162TIP3   OH236680   2.523   3.746  18.290  0.0003  0.5252  0.3518
 4162TIP3    H136681   2.514   3.657  18.322  0.4141 -0.2115 -1.4493
 4162TIP3    H236682   2.586   3.740  18.218 -0.2122  2.2156 -0.0302
 4163TIP3   OH236683   1.318   1.568  17.956 -0.1389 -0.1212 -0.0900
 4163TIP3    H136684   1.376   1.498  17.986  1.1805  0.3012 -1.5179
 4163TIP3    H236685   1.350   1.647  18.000 -0.4314 -0.0898  0.0705
 4164TIP3   OH236686   1.247   5.833  18.379  0.1505  0.2185 -0.0917
 4164TIP3    H136687   1.167   5.796  18.415  1.1293 -1.5932  0.3572
 4164TIP3    H236688   1.218   5.890  18.307 -1.5201 -0.4021  0.0596
 4165TIP3   OH236689   2.408   4.380  18.687 -0.0135 -0.3833 -0.3231
 4165TIP3    H136690   2.423   4.470  18.718 -0.9096 -0.3121 -0.0591
 4165TIP3    H236691   2.353   4.391  18.609  1.7064 -0.5970 -1.6069
 4166TIP3   OH236692   7.166   3.564  18.486  0.5909 -0.1045  0.0929
 4166TIP3    H136693   7.085   3.614  18.498  1.1679  0.6540  1.0684
 4166TIP3    H236694   7.227   3.627  18.448  0.1702 -1.2267 -2.6447
 4167TIP3   OH236695   4.924   3.346  17.490  0.3083 -0.2742  0.2333
 4167TIP3    H136696   4.913   3.252  17.480 -2.5602 -0.3455  2.5222
 4167TIP3    H236697   4.944   3.378  17.402  1.2206 -2.9676 -0.6254
 4168TIP3   OH236698   5.461   1.034  18.388  0.0217 -0.0839  0.5105
 4168TIP3    H136699   5.370   1.064  18.377 -0.3071 -0.7618  1.2661
 4168TIP3    H236700   5.485   1.064  18.476  0.4403 -0.1430  0.4174
 4169TIP3   OH236701   1.416   5.785  19.242 -0.3403 -0.4778 -0.1774
 4169TIP3    H136702   1.491   5.790  19.300 -0.3520 -1.0291 -0.1031
 4169TIP3    H236703   1.445   5.728  19.170 -0.8052 -1.0172  0.0521
 4170TIP3   OH236704   5.915   5.299  17.995 -0.4382  0.0712 -0.1033
 4170TIP3    H136705   5.984   5.288  18.059  0.3067 -1.5823 -1.1152
 4170TIP3    H236706   5.892   5.210  17.968  0.4422  0.6753 -3.3061
 4171TIP3   OH236707   7.367   4.182  19.129 -0.1847  1.0524 -0.6313
 4171TIP3    H136708   7.458   4.207  19.116  0.7322 -1.4770  0.1544
 4171TIP3    H236709   7.342   4.224  19.211  0.9576  0.2272  0.1717
 4172TIP3   OH236710   0.708   0.722  16.902 -0.2087  0.1211 -0.2141
 4172TIP3    H136711   0.614   0.706  16.893 -0.2273 -0.3482  0.7423
 4172TIP3    H236712   0.747   0.635  16.905  0.4232  0.2961 -1.9587
 4173TIP3   OH236713   5.004   4.986  18.275  0.4861 -0.2180  0.2468
 4173TIP3    H136714   5.079   4.937  18.241  1.2443 -0.4513  2.1292
 4173TIP3    H236715   5.043   5.063  18.316 -0.4060  0.1936  0.3352
 4174TIP3   OH236716   0.069   2.083  18.294  0.8338 -1.2242  0.4264
 4174TIP3    H136717  -0.003   2.111  18.237  2.5915  1.7221 -0.5752
 4174TIP3    H236718   0.140   2.144  18.274  2.5933 -2.0291  3.6005
 4175TIP3   OH236719   4.365   3.251  17.922 -0.0798  0.9540  0.5251
 4175TIP3    H136720   4.361   3.159  17.951 -1.0350  0.6306 -0.5637
 4175TIP3    H236721   4.301   3.296  17.976  0.9170  1.1600  1.5851
 4176TIP3   OH236722   3.601   0.061  17.652 -0.2887  0.2944  0.0922
 4176TIP3    H136723   3.529   0.086  17.710 -2.2365  1.1608 -2.4795
 4176TIP3    H236724   3.625   0.143  17.607  1.0720 -0.3466 -0.4105
 4177TIP3   OH236725   2.351   5.836  16.423 -0.1803  0.9038 -0.0521
 4177TIP3    H136726   2.427   5.891  16.441  1.3028 -0.5924 -1.3583
 4177TIP3    H236727   2.337   5.846  16.329 -0.9944  0.3836  0.0045
 4178TIP3   OH236728   0.732   2.697  18.057  0.5986 -0.2857 -0.3352
 4178TIP3    H136729   0.808   2.700  18.115  0.1507  0.3047  0.2531
 4178TIP3    H236730   0.657   2.696  18.117  0.0797  1.4381 -0.8715
 4179TIP3   OH236731   1.751   0.539  16.943  0.5950 -0.0938 -0.1446
 4179TIP3    H136732   1.826   0.523  16.885 -0.2806  1.0225 -1.6557
 4179TIP3    H236733   1.676   0.545  16.884 -0.7253 -1.1475  1.3222
 4180TIP3   OH236734   0.587   5.239  19.066 -1.0207 -0.1425 -0.3237
 4180TIP3    H136735   0.551   5.164  19.113 -3.2237 -0.6921 -2.6314
 4180TIP3    H236736   0.530   5.312  19.091  0.2892  0.5228  0.8696
 4181TIP3   OH236737   7.351   5.784  19.478  0.2376  0.6912  0.3004
 4181TIP3    H136738   7.347   5.689  19.482 -1.6689  0.7562  1.0591
 4181TIP3    H236739   7.444   5.805  19.484  0.6291 -1.0958  1.0102
 4182TIP3   OH236740   3.882   4.847  17.308  0.2412 -0.1988  0.0218
 4182TIP3    H136741   3.849   4.760  17.288  0.9881 -0.5723  0.3619
 4182TIP3    H236742   3.977   4.835  17.319  0.4084  0.7201 -0.2979
 4183TIP3   OH236743   4.295   2.328  18.419  0.5912 -0.1991  0.1550
 4183TIP3    H136744   4.304   2.253  18.478 -0.8908 -1.0588 -0.6615
 4183TIP3    H236745   4.381   2.337  18.379  1.7919  0.6773  2.6919
 4184TIP3   OH236746   6.314   4.335  18.629 -0.4147 -0.0438  0.2000
 4184TIP3    H136747   6.292   4.394  18.701  0.3098  1.2109 -0.5709
 4184TIP3    H236748   6.343   4.393  18.559 -0.0034 -1.3109 -0.7094
 4185TIP3   OH236749   3.054   5.158  18.201 -0.8347 -0.5191 -0.0551
 4185TIP3    H136750   2.994   5.084  18.216  1.1221 -1.6042  3.3852
 4185TIP3    H236751   3.126   5.120  18.151 -2.1950  0.4794 -3.0096
 4186TIP3   OH236752   6.599   7.398  17.620 -0.3596 -0.4617 -0.0549
 4186TIP3    H136753   6.642   7.335  17.562 -1.9397 -0.0994 -1.6937
 4186TIP3    H236754   6.602   7.481  17.572 -0.4594  0.1726  1.0150
 4187TIP3   OH236755   4.804   2.528  17.716  0.1778 -0.3966  0.0555
 4187TIP3    H136756   4.801   2.586  17.639  0.4440 -0.8439 -0.2960
 4187TIP3    H236757   4.767   2.446  17.685  0.9713 -0.8177  0.1981
 4188TIP3   OH236758   6.744   2.400  16.885 -0.5176  0.0722  0.3734
 4188TIP3    H136759   6.712   2.350  16.960 -1.4007  2.0638  1.3877
 4188TIP3    H236760   6.831   2.431  16.912 -0.0096 -0.7975 -0.2164
 4189TIP3   OH236761   2.352   1.697  16.876  0.1238 -0.0405  0.0986
 4189TIP3    H136762   2.281   1.633  16.865 -1.2738  1.4023  0.4405
 4189TIP3    H236763   2.347   1.752  16.798  0.2079  0.7056  0.6151
 4190TIP3   OH236764   2.336   0.787  19.175  0.0967  0.3943 -0.0685
 4190TIP3    H136765   2.253   0.832  19.157  0.2023  0.4452 -0.4193
 4190TIP3    H236766   2.322   0.748  19.262 -0.2449  0.5200 -0.0626
 4191TIP3   OH236767   4.216   2.178  17.873 -0.1560  0.8383 -0.4065
 4191TIP3    H136768   4.211   2.199  17.966  0.4591  0.0248 -0.1840
 4191TIP3    H236769   4.301   2.136  17.862 -0.4362  0.4656 -1.2434
 4192TIP3   OH236770   7.109   2.418  17.460 -0.0749 -0.5498  0.0338
 4192TIP3    H136771   7.162   2.440  17.383 -0.8130  1.4380  0.0382
 4192TIP3    H236772   7.038   2.365  17.425  0.8679 -1.6850 -0.2495
 4193TIP3   OH236773   0.428   5.657  19.327 -0.2566 -0.4637  0.2763
 4193TIP3    H136774   0.338   5.689  19.334  0.7599  2.8801 -0.1863
 4193TIP3    H236775   0.476   5.730  19.288  2.1986 -3.0812 -1.9732
 4194TIP3   OH236776   0.262   3.014  17.462  0.6358  0.1329 -0.1456
 4194TIP3    H136777   0.198   3.001  17.532 -1.3708  2.1637 -1.4964
 4194TIP3    H236778   0.234   2.955  17.392  1.1683 -0.0701 -0.1970
 4195TIP3   OH236779   5.908   3.177  17.671 -0.4645 -0.5873 -0.2549
 4195TIP3    H136780   5.917   3.089  17.634 -0.0653 -0.9674  0.6977
 4195TIP3    H236781   5.929   3.166  17.764 -1.4744  0.3181  0.1007
 4196TIP3   OH236782   5.156   2.518  17.659  0.3264 -0.1098  0.1632
 4196TIP3    H136783   5.131   2.565  17.579  1.3832  0.2873  0.0425
 4196TIP3    H236784   5.125   2.574  17.730  0.9367  0.4263  0.0182
 4197TIP3   OH236785   6.084   4.773  17.204 -0.0038 -0.4059  0.0863
 4197TIP3    H136786   6.094   4.806  17.115  2.2659 -2.3952 -0.4943
 4197TIP3    H236787   6.047   4.686  17.193 -1.5860  0.0697  1.2823
 4198TIP3   OH236788   1.587   2.053  17.063 -0.0141 -0.3420  0.6536
 4198TIP3    H136789   1.636   2.047  17.145  0.6189 -0.1810  0.2850
 4198TIP3    H236790   1.531   2.130  17.074 -0.1359 -0.4820  1.0383
 4199TIP3   OH236791   0.888   6.099  17.356  0.2616  0.5954 -0.3289
 4199TIP3    H136792   0.949   6.157  17.311  2.3735 -1.6499 -0.6174
 4199TIP3    H236793   0.944   6.034  17.398 -1.8560  0.0466  1.8533
 4200TIP3   OH236794   4.359   2.973  17.579  0.4701 -0.6310 -0.2876
 4200TIP3    H136795   4.444   2.952  17.540  0.6282 -0.1583 -0.2095
 4200TIP3    H236796   4.373   2.971  17.673  0.0465 -1.9296 -0.2362
 4201TIP3   OH236797   7.289   0.602  19.157 -0.0383 -0.0892  0.2144
 4201TIP3    H136798   7.195   0.605  19.173 -0.2107 -0.4655 -0.6952
 4201TIP3    H236799   7.320   0.527  19.208 -0.0061  0.7646  1.5185
 4202TIP3   OH236800   1.581   2.883  18.436  0.1761  0.3900 -0.5903
 4202TIP3    H136801   1.671   2.857  18.455  0.2943  0.6335 -0.8258
 4202TIP3    H236802   1.551   2.822  18.369 -0.6647 -1.3105  1.2081
 4203TIP3   OH236803   2.748   7.161  18.991 -0.1192  0.1103  0.1783
 4203TIP3    H136804   2.679   7.097  19.009  1.2754 -1.2875  0.7828
 4203TIP3    H236805   2.727   7.195  18.904 -0.9570 -1.0958 -0.1189
 4204TIP3   OH236806   7.089   1.165  17.395 -0.6175  0.3285 -0.6284
 4204TIP3    H136807   7.027   1.140  17.463 -0.0350 -0.7720 -0.4787
 4204TIP3    H236808   7.066   1.255  17.373 -1.9116  0.1154 -0.2008
 4205TIP3   OH236809   2.348   6.439  18.841  0.0393 -0.0245 -0.7186
 4205TIP3    H136810   2.327   6.528  18.813  0.4667  0.2989 -0.0403
 4205TIP3    H236811   2.289   6.383  18.791  0.7983  0.5173 -2.2802
 4206TIP3   OH236812   0.751   1.963  19.117 -0.5015 -0.0314 -0.1899
 4206TIP3    H136813   0.678   1.951  19.055  0.0804  0.2371 -0.9439
 4206TIP3    H236814   0.785   2.050  19.096  0.2250 -0.2770 -0.0449
 4207TIP3   OH236815   1.250   4.562  17.174 -0.8590  0.5386 -0.0597
 4207TIP3    H136816   1.307   4.636  17.152 -0.9823  0.8826  0.7712
 4207TIP3    H236817   1.275   4.537  17.262 -0.8060 -0.4362 -0.3394
 4208TIP3   OH236818   4.046   4.468  19.573 -0.0504  0.0895 -0.0799
 4208TIP3    H136819   4.135   4.475  19.537  0.1583 -0.1974  0.3708
 4208TIP3    H236820   4.043   4.533  19.642 -0.1022 -0.0874  0.0843
 4209TIP3   OH236821   1.049   3.629  18.750  0.6956 -0.3978 -0.0833
 4209TIP3    H136822   1.053   3.581  18.668 -0.2959  2.4756 -1.9945
 4209TIP3    H236823   1.131   3.678  18.754  1.2886 -1.4342  1.3412
 4210TIP3   OH236824   2.208   7.022  18.410 -0.0343 -0.3060  0.3834
 4210TIP3    H136825   2.137   6.990  18.466 -2.5529  2.1526 -1.1249
 4210TIP3    H236826   2.167   7.035  18.325  2.7967 -0.6325 -1.1435
 4211TIP3   OH236827   5.313   3.412  17.246 -0.2861 -0.0306  0.3336
 4211TIP3    H136828   5.324   3.367  17.162 -0.5137 -0.6725  0.6375
 4211TIP3    H236829   5.273   3.346  17.303 -0.2497  0.4384  0.9083
 4212TIP3   OH236830   6.203   1.250  18.580  0.1294  0.0179 -0.2998
 4212TIP3    H136831   6.166   1.219  18.663  1.3197 -0.9881 -0.1112
 4212TIP3    H236832   6.200   1.173  18.523 -0.1082  0.5339 -1.0014
 4213TIP3   OH236833   5.864   4.532  17.660 -0.1529  0.4077 -0.3032
 4213TIP3    H136834   5.790   4.506  17.715  0.9096  0.0870  1.0147
 4213TIP3    H236835   5.849   4.625  17.642  0.1329  0.8850  1.6666
 4214TIP3   OH236836   6.405   1.787  17.726  0.1005  0.2041 -0.6796
 4214TIP3    H136837   6.441   1.852  17.786  0.6897 -1.7473  1.2087
 4214TIP3    H236838   6.312   1.807  17.720  0.4205  1.7222 -0.8630
 4215TIP3   OH236839   3.081   2.214  19.084  0.3089  0.5340  0.0374
 4215TIP3    H136840   3.020   2.197  19.012 -0.0085  1.2027  0.1372
 4215TIP3    H236841   3.103   2.128  19.118 -0.1688  0.2574 -0.3445
 4216TIP3   OH236842   5.212   4.542  17.278 -0.8964 -0.0620  0.2880
 4216TIP3    H136843   5.238   4.587  17.197 -0.7384 -0.1823  0.2727
 4216TIP3    H236844   5.228   4.449  17.260 -1.3473 -0.1372  0.2751
 4217TIP3   OH236845   1.980   6.782  17.640 -0.4214  0.4722  0.8250
 4217TIP3    H136846   1.897   6.797  17.685  0.8687  2.9958  2.6268
 4217TIP3    H236847   1.994   6.860  17.588 -0.4106 -1.1292 -1.7453
 4218TIP3   OH236848   5.221   6.580  18.177 -0.6883 -0.2113  0.1498
 4218TIP3    H136849   5.240   6.567  18.085  0.4899 -1.3158  0.5237
 4218TIP3    H236850   5.148   6.520  18.195 -1.8641  1.0199 -0.3494
 4219TIP3   OH236851   4.752   2.658  17.481  0.2812 -0.2713  0.0385
 4219TIP3    H136852   4.668   2.698  17.503  0.7557  0.3091  0.8399
 4219TIP3    H236853   4.746   2.640  17.387  0.4537  2.7440 -0.6462
 4220TIP3   OH236854   3.930   3.232  18.324  0.3859  0.4944  0.0062
 4220TIP3    H136855   3.897   3.311  18.280  2.7839  0.4616 -2.1306
 4220TIP3    H236856   3.852   3.190  18.360 -1.3670  2.2523 -1.4699
 4221TIP3   OH236857   1.619   4.117  18.819 -0.8650  0.0394  0.4275
 4221TIP3    H136858   1.712   4.128  18.837 -1.2224 -0.4580  2.8830
 4221TIP3    H236859   1.583   4.206  18.825 -0.7603  0.0522  0.9333
 4222TIP3   OH236860   6.945   2.222  19.124  0.2802 -0.1421 -0.0674
 4222TIP3    H136861   7.024   2.205  19.176 -0.1617  0.6344  0.8948
 4222TIP3    H236862   6.875   2.231  19.189 -0.7584 -1.5361 -0.9415
 4223TIP3   OH236863   4.258   1.860  17.016 -0.4729 -0.0467 -0.2592
 4223TIP3    H136864   4.169   1.836  17.042 -0.4892  0.5960  0.3071
 4223TIP3    H236865   4.247   1.904  16.932 -0.7090  0.1798 -0.1118
 4224TIP3   OH236866   5.579   3.171  17.865 -0.1291  0.4224 -0.2465
 4224TIP3    H136867   5.554   3.247  17.917  1.1463  0.5322  0.2494
 4224TIP3    H236868   5.658   3.138  17.908  0.3018 -0.1634 -1.4572
 4225TIP3   OH236869   2.762   1.351  18.908 -0.0020 -0.7130 -0.2517
 4225TIP3    H136870   2.678   1.386  18.938 -0.1335  0.3588 -1.7765
 4225TIP3    H236871   2.747   1.257  18.899 -0.3973 -0.8541  1.4555
 4226TIP3   OH236872   5.645   5.775  17.662  0.1998 -0.3323  0.0549
 4226TIP3    H136873   5.607   5.718  17.729 -2.0694  0.2649 -0.6276
 4226TIP3    H236874   5.578   5.779  17.594  0.9107  1.9405 -0.6055
 4227TIP3   OH236875   5.274   3.898  19.288 -0.6532 -0.7085  0.3439
 4227TIP3    H136876   5.186   3.872  19.313 -0.3869 -0.6928  1.3339
 4227TIP3    H236877   5.301   3.960  19.356 -0.8039  1.2424 -1.2669
 4228TIP3   OH236878   0.274   2.798  17.301  0.6552  0.4151 -0.0017
 4228TIP3    H136879   0.304   2.764  17.217  0.7659  2.5286 -0.8984
 4228TIP3    H236880   0.332   2.757  17.365  1.2211 -0.4931 -1.0550
 4229TIP3   OH236881   5.893   0.887  18.605  0.3760 -0.3099  0.2237
 4229TIP3    H136882   5.849   0.801  18.610 -0.2037 -0.0156  0.2808
 4229TIP3    H236883   5.957   0.876  18.535  0.6239 -0.9330  0.5400
 4230TIP3   OH236884   4.606   4.837  16.944  0.1503  0.5363 -0.3959
 4230TIP3    H136885   4.601   4.932  16.944 -0.4576  0.5363 -2.3323
 4230TIP3    H236886   4.562   4.810  16.864 -0.0559 -1.4095  0.3066
 4231TIP3   OH236887   2.615   2.574  17.362  0.3474  0.4814  0.0900
 4231TIP3    H136888   2.635   2.483  17.384 -0.4799  0.3130  0.1609
 4231TIP3    H236889   2.656   2.587  17.276  0.6673  0.1179  0.1834
 4232TIP3   OH236890   5.525   1.289  19.006 -0.2740  0.0059  0.4336
 4232TIP3    H136891   5.512   1.201  18.969 -1.8574  0.3260  0.1342
 4232TIP3    H236892   5.619   1.305  18.998  0.2820 -2.1374  1.5971
 4233TIP3   OH236893   0.515   7.275  17.917  0.6167  1.0416  0.0310
 4233TIP3    H136894   0.580   7.331  17.959 -0.1060  1.3159  0.8114
 4233TIP3    H236895   0.541   7.274  17.825  2.7846 -0.3745  0.5994
 4234TIP3   OH236896   2.035   4.806  17.912 -0.3581  0.7283  0.5593
 4234TIP3    H136897   2.033   4.744  17.986  1.8188  1.2572  1.1329
 4234TIP3    H236898   1.944   4.834  17.902 -1.4781 -2.5092  0.2743
 4235TIP3   OH236899   5.188   3.643  17.028 -0.1590  0.7032  0.1093
 4235TIP3    H136900   5.171   3.650  16.934  0.4273  2.7943  0.0954
 4235TIP3    H236901   5.257   3.707  17.044 -0.6425  0.7920  2.0605
 4236TIP3   OH236902   3.597   1.257  16.793 -0.2461 -0.0942 -0.5886
 4236TIP3    H136903   3.658   1.327  16.819  0.2557 -0.0674 -1.7689
 4236TIP3    H236904   3.648   1.177  16.802 -0.0652 -0.0861 -1.4323
 4237TIP3   OH236905   3.535   6.280  18.689 -0.0439  0.7497 -0.3771
 4237TIP3    H136906   3.597   6.277  18.616  1.6628 -0.0175  1.0485
 4237TIP3    H236907   3.582   6.242  18.762 -1.1745  2.8156  1.5464
 4238TIP3   OH236908   2.611   2.285  16.966  0.1636 -0.1220  0.6238
 4238TIP3    H136909   2.628   2.240  16.883  1.0348 -1.4471  1.4891
 4238TIP3    H236910   2.527   2.252  16.995 -0.6172  1.0763 -0.1705
 4239TIP3   OH236911   5.894   5.015  18.049  0.2115 -0.1353  0.1429
 4239TIP3    H136912   5.969   4.966  18.084  0.4438  0.2708  0.2270
 4239TIP3    H236913   5.880   4.979  17.962  1.5255  0.8608 -0.5065
 4240TIP3   OH236914   5.232   5.270  17.759  0.2345  0.5000 -0.0786
 4240TIP3    H136915   5.245   5.195  17.701 -0.0843 -0.4951  1.0965
 4240TIP3    H236916   5.319   5.288  17.795  0.4876  1.2965 -1.0393
 4241TIP3   OH236917   6.254   6.070  19.423  0.8762 -0.2550 -0.6402
 4241TIP3    H136918   6.276   6.162  19.408 -0.0753  0.0568 -0.1605
 4241TIP3    H236919   6.229   6.037  19.337 -0.6526  0.4601 -0.4973
 4242TIP3   OH236920   7.216   2.599  16.547  0.5861  0.4018 -0.4496
 4242TIP3    H136921   7.164   2.522  16.522  0.7617 -0.2182  1.0014
 4242TIP3    H236922   7.152   2.664  16.576  0.4444  0.7852 -1.5771
 4243TIP3   OH236923   0.194   5.452  19.359 -0.3461 -0.0525  0.0380
 4243TIP3    H136924   0.134   5.408  19.298 -0.1362 -0.1246 -0.1155
 4243TIP3    H236925   0.182   5.545  19.341  0.0385 -0.0915 -0.4184
 4244TIP3   OH236926   4.848   7.594  18.642 -0.1496  0.1526  0.1642
 4244TIP3    H136927   4.843   7.683  18.607  1.1124  0.5091  0.8632
 4244TIP3    H236928   4.756   7.569  18.656 -0.5506  1.0288 -0.7716
 4245TIP3   OH236929   1.324   2.204  17.782  0.3904  0.2301  0.3241
 4245TIP3    H136930   1.275   2.164  17.711  0.5962 -0.2128  0.4311
 4245TIP3    H236931   1.260   2.259  17.827  0.2476  0.4683 -0.1656
 4246TIP3   OH236932   0.071   5.614  17.885  0.1766 -0.7301  0.1056
 4246TIP3    H136933   0.043   5.556  17.957 -0.5578  1.6542  1.8624
 4246TIP3    H236934   0.166   5.617  17.893  0.2909 -2.1017 -0.3960
 4247TIP3   OH236935   5.405   4.891  19.213  0.0077 -0.8267  0.2045
 4247TIP3    H136936   5.437   4.973  19.251  2.5867 -1.4478 -0.4019
 4247TIP3    H236937   5.354   4.918  19.137  1.2789  0.2574 -0.3107
 4248TIP3   OH236938   4.454   0.970  17.001 -0.4622  0.1619  0.2738
 4248TIP3    H136939   4.469   1.050  17.052  0.1132 -1.6027  3.0757
 4248TIP3    H236940   4.536   0.957  16.953  0.3490  0.0091  1.6642
 4249TIP3   OH236941   3.175   4.520  18.442  0.1753 -0.6124 -0.0907
 4249TIP3    H136942   3.189   4.557  18.529 -2.1801  1.0207 -0.3368
 4249TIP3    H236943   3.121   4.584  18.396  0.8872 -1.6810 -2.6050
 4250TIP3   OH236944   4.630   6.560  18.333 -0.6687 -0.0925  0.2144
 4250TIP3    H136945   4.569   6.575  18.261  0.9926  1.8437 -0.8949
 4250TIP3    H236946   4.634   6.643  18.379  0.0829 -0.6050  1.1117
 4251TIP3   OH236947   6.763   3.656  18.293  0.5608 -0.1547  0.0395
 4251TIP3    H136948   6.699   3.644  18.363  0.7262 -1.0451  0.0521
 4251TIP3    H236949   6.788   3.749  18.299 -1.3103  0.4199 -0.5021
 4252TIP3   OH236950   3.873   2.212  17.151 -0.3437 -0.0828 -0.1829
 4252TIP3    H136951   3.834   2.267  17.082 -0.6242 -0.1698 -0.0972
 4252TIP3    H236952   3.924   2.273  17.204  0.0163 -0.0419 -0.5662
 4253TIP3   OH236953   6.469   4.685  17.972  0.5552 -0.3582 -0.3938
 4253TIP3    H136954   6.532   4.667  17.903  1.9387 -1.6201  1.1186
 4253TIP3    H236955   6.458   4.601  18.017 -0.3023  0.4135  0.9070
 4254TIP3   OH236956   7.298   2.518  18.636  0.1582  0.4752  0.0143
 4254TIP3    H136957   7.245   2.537  18.714  0.1623  0.5733 -0.0068
 4254TIP3    H236958   7.383   2.558  18.654  0.7522 -1.0396  0.7352
 4255TIP3   OH236959   2.642   0.042  17.684 -0.1755  0.4851 -0.5558
 4255TIP3    H136960   2.614   0.106  17.618 -0.0258 -0.1035 -1.1996
 4255TIP3    H236961   2.594   0.066  17.763 -1.6630  0.1706 -1.3352
 4256TIP3   OH236962   1.949   7.018  18.541 -0.1650  0.3905  0.1551
 4256TIP3    H136963   1.879   6.985  18.483  0.6039 -0.9680 -0.0520
 4256TIP3    H236964   1.946   7.113  18.531 -2.2722  0.4139  0.4950
 4257TIP3   OH236965   7.277   4.432  17.008 -0.2580 -0.6107  0.1978
 4257TIP3    H136966   7.355   4.441  16.954 -2.0152 -2.2711 -2.8309
 4257TIP3    H236967   7.300   4.365  17.072  0.8007 -1.0664 -0.6298
 4258TIP3   OH236968   4.099   4.073  17.095 -0.1659  0.7795  0.4541
 4258TIP3    H136969   4.144   4.003  17.141 -0.6116 -1.6529 -2.4929
 4258TIP3    H236970   4.169   4.119  17.048 -0.2437 -0.5617 -1.0666
 4259TIP3   OH236971   5.099   5.519  18.470 -0.1094  0.0003  0.6697
 4259TIP3    H136972   5.017   5.522  18.423 -0.0730 -1.0820  0.4944
 4259TIP3    H236973   5.077   5.545  18.560 -1.1486 -2.4549  1.2251
 4260TIP3   OH236974   4.225   4.517  18.771 -0.7781  0.3296  0.0435
 4260TIP3    H136975   4.215   4.423  18.756  0.5353  0.0236  0.9405
 4260TIP3    H236976   4.179   4.533  18.853  0.3430  0.1456  0.7318
 4261TIP3   OH236977   4.460   4.792  18.225  0.6073  0.1332  0.5366
 4261TIP3    H136978   4.547   4.820  18.256  0.2647  0.7177  0.9782
 4261TIP3    H236979   4.398   4.834  18.285  0.0565 -1.5132  1.1769
 4262TIP3   OH236980   0.968   7.030  19.089 -0.3573  0.2133  0.1220
 4262TIP3    H136981   0.894   7.087  19.067  0.1455  1.3866  1.3306
 4262TIP3    H236982   0.929   6.958  19.138 -0.8089  0.3808  0.0204
 4263TIP3   OH236983   0.941   3.946  18.580  0.2714 -0.2179 -0.2090
 4263TIP3    H136984   0.958   3.926  18.672  1.3641  2.1961  0.1986
 4263TIP3    H236985   0.873   4.013  18.583  0.0512 -0.3853 -1.2034
 4264TIP3   OH236986   3.102   4.692  18.918  0.5932  0.0259 -0.1552
 4264TIP3    H136987   3.162   4.739  18.976  1.3170  1.1723 -1.7751
 4264TIP3    H236988   3.022   4.744  18.918  0.6963  0.1873 -0.3967
 4265TIP3   OH236989   0.987   3.203  18.586  0.1411 -0.2511  0.2732
 4265TIP3    H136990   0.907   3.255  18.576 -0.4054 -1.0322  0.4806
 4265TIP3    H236991   0.962   3.115  18.561  1.5669 -0.0928 -2.0011
 4266TIP3   OH236992   7.441   6.629  18.137 -0.2021  0.0668  0.0116
 4266TIP3    H136993   7.532   6.600  18.148 -0.0697  0.6941  0.6457
 4266TIP3    H236994   7.394   6.588  18.209 -0.3017  0.2527  0.0517
 4267TIP3   OH236995   2.087   3.230  18.898 -0.4757  0.1122 -0.0066
 4267TIP3    H136996   2.162   3.280  18.929 -0.6801  0.4724 -0.0838
 4267TIP3    H236997   2.061   3.273  18.816 -0.4560 -0.3173 -0.2418
 4268TIP3   OH236998   7.140   2.463  19.220  0.0333 -0.5393 -0.2823
 4268TIP3    H136999   7.166   2.530  19.158  0.6858 -1.1240 -0.6500
 4268TIP3    H237000   7.158   2.501  19.306  0.7878 -0.4043 -0.4978
 4269TIP3   OH237001   6.346   4.936  18.611 -0.0230  0.4161 -0.1981
 4269TIP3    H137002   6.417   4.993  18.582  0.9250 -0.1600  0.9087
 4269TIP3    H237003   6.355   4.857  18.558  0.5268  0.1295  0.2988
 4270TIP3   OH237004   6.554   3.619  18.443  0.1414  0.5043  0.1055
 4270TIP3    H137005   6.492   3.660  18.504  0.5925 -1.0302  1.6835
 4270TIP3    H237006   6.601   3.555  18.496  0.5237 -0.9738 -1.8902
 4271TIP3   OH237007   1.772   2.220  19.012 -0.2722  0.0124  0.3577
 4271TIP3    H137008   1.785   2.151  18.947  0.2790  0.6060 -0.1761
 4271TIP3    H237009   1.845   2.210  19.073  0.3597  0.7042 -0.2608
 4272TIP3   OH237010   2.024   4.815  19.350  0.0926 -0.1375 -0.4027
 4272TIP3    H137011   1.947   4.784  19.303 -0.2162 -1.4944  0.9498
 4272TIP3    H237012   2.015   4.911  19.350 -2.3541 -0.3008  0.9416
 4273TIP3   OH237013   4.556   7.430  18.775 -0.4152  0.2586  0.1056
 4273TIP3    H137014   4.465   7.401  18.770 -0.2441 -0.1781 -0.5428
 4273TIP3    H237015   4.551   7.512  18.824 -0.7462 -1.4693  3.2656
 4274TIP3   OH237016   1.231   1.177  16.636 -0.3699 -0.1804 -0.5544
 4274TIP3    H137017   1.154   1.121  16.630  0.3351 -1.2510  0.0783
 4274TIP3    H237018   1.293   1.140  16.573 -0.3767  0.7034 -1.0958
 4275TIP3   OH237019   2.023   0.959  17.718 -0.5851  0.1444  0.1007
 4275TIP3    H137020   2.024   1.016  17.795 -0.8571 -1.2427  1.1825
 4275TIP3    H237021   2.060   0.877  17.750  0.3649 -0.1137 -1.5678
 4276TIP3   OH237022   6.846   7.474  17.228  0.1639  0.6489 -0.1463
 4276TIP3    H137023   6.937   7.504  17.220 -0.0063  0.6623 -4.4921
 4276TIP3    H237024   6.852   7.379  17.223 -0.0141  0.6816 -1.6064
 4277TIP3   OH237025   7.419   6.599  18.512 -0.0162 -0.7999  0.0759
 4277TIP3    H137026   7.455   6.685  18.494  1.0180 -1.2630 -0.1209
 4277TIP3    H237027   7.342   6.616  18.566  0.0717  0.2527 -0.1210
 4278TIP3   OH237028   6.550   0.343  17.052 -0.4713 -0.0131 -0.0353
 4278TIP3    H137029   6.481   0.276  17.047  0.1980 -1.0148  2.5142
 4278TIP3    H237030   6.511   0.414  17.103 -0.4772  0.6427 -0.9297
 4279TIP3   OH237031   2.114   1.531  16.854  0.1756 -0.1823 -0.0443
 4279TIP3    H137032   2.095   1.593  16.784  1.3546  0.2605 -0.0058
 4279TIP3    H237033   2.034   1.526  16.906 -1.5562 -2.2757 -2.6774
 4280TIP3   OH237034   7.188   0.648  17.962  0.1950  0.8215 -0.6405
 4280TIP3    H137035   7.219   0.688  17.882  3.6807  1.6819  0.9508
 4280TIP3    H237036   7.119   0.706  17.994 -0.4628  1.0436 -2.3789
 4281TIP3   OH237037   0.284   3.748  18.297  0.3067 -0.1967  0.4652
 4281TIP3    H137038   0.240   3.742  18.212 -0.4780 -1.1604  0.9194
 4281TIP3    H237039   0.355   3.684  18.292 -0.2279 -0.8266  0.8042
 4282TIP3   OH237040   1.040   4.197  17.117 -0.0949 -0.1647  0.0233
 4282TIP3    H137041   1.039   4.118  17.063 -0.3110  0.0523 -0.2936
 4282TIP3    H237042   1.126   4.196  17.159 -0.4601 -1.0714  0.7849
 4283TIP3   OH237043   2.670   7.405  16.290 -0.4700 -0.3742 -0.5010
 4283TIP3    H137044   2.743   7.398  16.352 -1.1632  1.4835  0.5838
 4283TIP3    H237045   2.602   7.349  16.327 -0.3167 -0.5284 -0.4496
 4284TIP3   OH237046   1.906   5.129  18.963  0.8134  0.1416  0.3175
 4284TIP3    H137047   1.866   5.147  18.878 -0.4526  0.7673  1.0164
 4284TIP3    H237048   1.844   5.071  19.008  0.4375  1.4545  1.5845
 4285TIP3   OH237049   3.859   5.140  17.791 -0.5603  0.3163 -0.2321
 4285TIP3    H137050   3.873   5.212  17.852 -0.5472  0.3711 -0.2995
 4285TIP3    H237051   3.870   5.179  17.705  1.2031 -0.1457 -0.2450
 4286TIP3   OH237052   5.233   0.556  18.700 -0.0226  0.0992 -0.0467
 4286TIP3    H137053   5.268   0.502  18.628  0.1937 -0.6174  0.5848
 4286TIP3    H237054   5.300   0.551  18.768 -0.7948 -0.2893  0.7087
 4287TIP3   OH237055   5.544   4.484  19.155 -0.0479  0.0033  0.4342
 4287TIP3    H137056   5.588   4.462  19.073  0.4711 -0.3395  0.8013
 4287TIP3    H237057   5.546   4.580  19.158  1.0919 -0.0118  0.6622
 4288TIP3   OH237058   0.379   3.925  19.278  0.4501  0.2249 -0.1368
 4288TIP3    H137059   0.474   3.909  19.280  0.0741 -2.4579  0.8888
 4288TIP3    H237060   0.340   3.839  19.296 -2.2154  1.1254 -1.0904
 4289TIP3   OH237061   5.812   1.212  17.164 -0.1092 -0.3162 -0.4189
 4289TIP3    H137062   5.903   1.185  17.172  0.2462  0.1779 -2.3731
 4289TIP3    H237063   5.814   1.292  17.112 -1.7728 -1.3702 -2.2423
 4290TIP3   OH237064   5.794   3.346  18.487 -0.5895 -0.1735 -0.5879
 4290TIP3    H137065   5.749   3.429  18.475  0.0989  0.3853  0.5135
 4290TIP3    H237066   5.886   3.365  18.470 -0.6996 -1.2916 -2.7748
 4291TIP3   OH237067   3.237   6.984  19.528 -0.0833  0.4370  0.2398
 4291TIP3    H137068   3.229   6.948  19.440  1.0507 -0.2407  0.3982
 4291TIP3    H237069   3.161   6.950  19.575 -0.1703  0.0127 -0.1980
 4292TIP3   OH237070   2.511   2.324  17.872 -0.4121  0.1325 -0.1060
 4292TIP3    H137071   2.459   2.404  17.881 -1.3329 -0.5384  0.8498
 4292TIP3    H237072   2.565   2.321  17.951 -1.2213 -0.7500  0.4388
 4293TIP3   OH237073   1.211   0.617  17.269 -0.7070 -0.0536 -0.1945
 4293TIP3    H137074   1.273   0.568  17.322 -0.5690 -0.0070 -0.3122
 4293TIP3    H237075   1.241   0.708  17.274 -1.1126  0.0574  0.2303
 4294TIP3   OH237076   3.468   4.295  16.617 -0.4507 -0.5822 -0.3659
 4294TIP3    H137077   3.385   4.264  16.581 -1.0302 -0.9619  1.2201
 4294TIP3    H237078   3.525   4.218  16.614 -0.3691 -0.5031 -0.8444
 4295TIP3   OH237079   5.047   0.962  18.036  0.0082  0.0205 -0.3218
 4295TIP3    H137080   5.114   0.996  18.096 -1.8671  3.1235  0.2387
 4295TIP3    H237081   5.078   0.986  17.949  1.3166 -1.8776 -0.4405
 4296TIP3   OH237082   5.267   3.916  18.954  0.3886 -0.2447  0.5232
 4296TIP3    H137083   5.179   3.883  18.934  0.3884  0.9533 -1.7819
 4296TIP3    H237084   5.292   3.871  19.034 -1.4568 -2.2508  0.0614
 4297TIP3   OH237085   1.448   3.530  18.869  0.0137  0.0760  0.0550
 4297TIP3    H137086   1.448   3.440  18.903 -0.4792  0.1944  0.3903
 4297TIP3    H237087   1.459   3.521  18.775 -1.5673 -0.4282 -0.1040
 4298TIP3   OH237088   2.713   1.423  17.107 -0.0286  0.4739 -0.0424
 4298TIP3    H137089   2.748   1.342  17.070  0.5663  0.4473  0.5692
 4298TIP3    H237090   2.778   1.450  17.171 -0.0031  1.6784 -0.5574
 4299TIP3   OH237091   7.002   4.767  18.595  1.0535 -0.1806 -0.5307
 4299TIP3    H137092   7.004   4.859  18.621 -0.3342  0.4388 -2.3907
 4299TIP3    H237093   7.093   4.745  18.577  1.2197  1.5154 -2.0979
 4300TIP3   OH237094   2.831   6.045  18.962  0.4902 -0.3507 -0.3328
 4300TIP3    H137095   2.751   6.095  18.980  0.2221 -1.3271  1.3508
 4300TIP3    H237096   2.901   6.110  18.966 -0.2108  0.6012 -2.2761
 4301TIP3   OH237097   1.726   2.461  18.658  0.3835  0.1234 -0.2879
 4301TIP3    H137098   1.795   2.411  18.700  0.1657  0.2152  0.1788
 4301TIP3    H237099   1.648   2.406  18.664  0.0036  0.7355  0.7357
 4302TIP3   OH237100   0.719   4.798  19.257 -0.1689  0.0920  0.0610
 4302TIP3    H137101   0.814   4.798  19.245 -0.1888 -1.1707 -0.3373
 4302TIP3    H237102   0.693   4.890  19.256  1.0358  0.4364  0.0528
 4303TIP3   OH237103   1.577   5.207  18.373 -0.7673 -0.0284 -0.0991
 4303TIP3    H137104   1.653   5.264  18.371 -0.0772 -0.7943  1.8168
 4303TIP3    H237105   1.514   5.251  18.430 -0.1365 -1.2287  1.5869
 4304TIP3   OH237106   6.980   5.180  19.047  0.3673 -0.8170  0.2941
 4304TIP3    H137107   7.050   5.240  19.020 -0.2174 -0.2089  0.1038
 4304TIP3    H237108   6.935   5.226  19.118 -2.2461  0.6256 -2.0404
 4305TIP3   OH237109   2.849   3.589  18.316 -0.3709 -0.0007 -0.1069
 4305TIP3    H137110   2.765   3.545  18.326  0.2993 -1.5527 -0.9962
 4305TIP3    H237111   2.895   3.572  18.398  0.5627 -2.5820 -1.0721
 4306TIP3   OH237112   7.490   0.678  17.340 -0.5422  0.4029 -0.0875
 4306TIP3    H137113   7.452   0.641  17.420 -0.9713 -0.5750 -0.7213
 4306TIP3    H237114   7.464   0.770  17.342 -2.1366 -0.0139 -0.0014
 4307TIP3   OH237115   0.411   6.868  16.985 -0.2462  0.1716 -0.0442
 4307TIP3    H137116   0.476   6.825  16.929  0.6294  1.8480 -0.3934
 4307TIP3    H237117   0.397   6.953  16.943 -2.0382  0.1754  0.5150
 4308TIP3   OH237118   4.275   6.768  18.846 -0.3507 -0.1550 -0.0897
 4308TIP3    H137119   4.224   6.692  18.874 -0.2232  0.0494  0.7260
 4308TIP3    H237120   4.332   6.734  18.777  0.8052 -1.1943  1.3116
 4309TIP3   OH237121   6.537   1.123  18.934  0.5604 -0.5952 -0.1092
 4309TIP3    H137122   6.599   1.190  18.962  0.7821 -0.4273 -0.9713
 4309TIP3    H237123   6.498   1.090  19.016  0.8787  0.1627  0.3560
 4310TIP3   OH237124   4.263   2.167  19.210 -0.0134  0.6472 -0.3027
 4310TIP3    H137125   4.213   2.086  19.214 -0.0976  0.5925 -1.9868
 4310TIP3    H237126   4.241   2.213  19.291 -0.5976 -0.6295  0.2815
 4311TIP3   OH237127   3.778   6.811  17.961  0.1931  0.5096  0.6002
 4311TIP3    H137128   3.785   6.732  18.015  1.9105  0.3843  0.2659
 4311TIP3    H237129   3.691   6.807  17.922 -0.3035 -0.4352  1.7687
 4312TIP3   OH237130   4.771   0.488  16.696 -0.0870  0.1997 -0.5524
 4312TIP3    H137131   4.723   0.450  16.622  0.5293  0.5238 -1.1225
 4312TIP3    H237132   4.863   0.483  16.671  0.0556  1.3935 -0.3252
 4313TIP3   OH237133   1.652   5.392  19.235 -0.1317  0.4446 -0.0974
 4313TIP3    H137134   1.663   5.298  19.242 -1.6340  0.3062  1.0717
 4313TIP3    H237135   1.557   5.405  19.237  0.0343  1.9516 -0.7212
 4314TIP3   OH237136   3.892   6.877  19.110 -0.4349  0.0601 -0.0212
 4314TIP3    H137137   3.834   6.802  19.097  0.1435 -0.7485  1.7248
 4314TIP3    H237138   3.951   6.875  19.034 -2.2053  0.5107 -1.4703
 4315TIP3   OH237139   0.247   7.014  17.619 -0.1643  0.5184  0.0923
 4315TIP3    H137140   0.162   7.011  17.576 -0.3550  1.1413  0.4047
 4315TIP3    H237141   0.284   7.099  17.593  1.0518 -0.3816 -1.3055
 4316TIP3   OH237142   5.004   2.100  19.135 -0.0162 -0.2377 -0.4877
 4316TIP3    H137143   5.002   2.054  19.219  0.3027  0.7818  0.0948
 4316TIP3    H237144   5.093   2.137  19.130 -0.3982  0.6807 -0.7255
 4317TIP3   OH237145   1.165   2.847  18.579  0.4093 -0.3125 -0.2037
 4317TIP3    H137146   1.169   2.781  18.510  1.4492  0.9021 -1.3586
 4317TIP3    H237147   1.072   2.872  18.583 -0.4718 -3.3458  1.8238
 4318TIP3   OH237148   4.416   6.013  18.023 -0.6326  0.1539  0.1052
 4318TIP3    H137149   4.390   6.021  17.931 -1.5223 -1.8886  0.1161
 4318TIP3    H237150   4.333   6.004  18.070 -0.1388 -0.1134  0.9389
 4319TIP3   OH237151   1.591   3.434  19.340  0.2985 -0.1824  0.0416
 4319TIP3    H137152   1.582   3.494  19.414 -2.1830 -2.0398  1.4178
 4319TIP3    H237153   1.682   3.443  19.313  0.5962  2.5263  1.5729
 4320TIP3   OH237154   2.577   6.768  16.396 -0.0111 -0.1871  0.4571
 4320TIP3    H137155   2.586   6.673  16.389  1.3553 -0.0994  0.6920
 4320TIP3    H237156   2.589   6.787  16.489 -0.2709  0.2244  0.4113
 4321TIP3   OH237157   2.581   5.300  17.304 -0.4881 -0.0483  0.3683
 4321TIP3    H137158   2.563   5.230  17.242  2.3305  0.8506 -1.6704
 4321TIP3    H237159   2.583   5.256  17.389 -0.6784 -2.0844 -0.6180
 4322TIP3   OH237160   4.361   4.974  18.880 -0.1280 -0.4090 -0.1131
 4322TIP3    H137161   4.269   4.977  18.908  0.0587 -0.5889  0.5283
 4322TIP3    H237162   4.360   5.008  18.790 -0.8174 -0.3888 -0.0998
 4323TIP3   OH237163   1.188   5.952  17.544  0.6038 -0.4638  0.2793
 4323TIP3    H137164   1.227   6.038  17.531  2.5413 -0.8549  2.7607
 4323TIP3    H237165   1.230   5.896  17.478  1.1178 -0.0051  0.2118
 4324TIP3   OH237166   1.139   6.262  18.771 -0.4726  0.0280  0.3068
 4324TIP3    H137167   1.147   6.300  18.859  1.8619 -1.9392  1.0687
 4324TIP3    H237168   1.140   6.337  18.712  3.0149  1.3435  1.7582
 4325TIP3   OH237169   0.153   3.310  17.828  0.0315 -0.0100 -0.0552
 4325TIP3    H137170   0.192   3.346  17.748  0.5435  2.9750  1.3725
 4325TIP3    H237171   0.127   3.222  17.804 -0.8731  1.0811 -3.8566
 4326TIP3   OH237172   0.393   5.246  19.355 -0.7036 -0.0265  0.2026
 4326TIP3    H137173   0.355   5.267  19.270 -1.5291  0.7925  0.7516
 4326TIP3    H237174   0.357   5.313  19.414  0.3161 -0.2248  1.0721
 4327TIP3   OH237175   6.596   6.373  19.028  0.3795 -0.4515 -1.0853
 4327TIP3    H137176   6.554   6.384  18.943  2.6259 -0.9865 -2.3438
 4327TIP3    H237177   6.636   6.458  19.047  0.0967 -0.4078 -0.6564
 4328TIP3   OH237178   2.219   3.930  19.486  0.1589  0.0727 -0.3057
 4328TIP3    H137179   2.265   3.995  19.433 -0.2680  1.9471  1.4885
 4328TIP3    H237180   2.139   3.974  19.515 -0.7825 -1.7048 -0.0471
 4329TIP3   OH237181   6.371   2.818  16.687 -0.0212 -0.0292 -0.1276
 4329TIP3    H137182   6.297   2.846  16.632  1.2728  0.4431 -1.7265
 4329TIP3    H237183   6.422   2.761  16.629  1.4382  0.5370  0.5598
 4330TIP3   OH237184   6.824   6.084  18.265 -0.3096 -0.3801 -0.2540
 4330TIP3    H137185   6.766   6.143  18.313 -0.9634 -1.3262  0.1606
 4330TIP3    H237186   6.893   6.140  18.231 -0.6213  0.5370  0.5778
 4331TIP3   OH237187   4.002   3.682  17.243 -0.1081 -0.7753 -0.1314
 4331TIP3    H137188   4.081   3.726  17.211 -0.6758 -1.3501 -2.5245
 4331TIP3    H237189   3.930   3.725  17.196 -1.2764 -0.2862  1.9751
 4332TIP3   OH237190   6.855   1.039  18.996 -0.1594  0.3857 -0.4374
 4332TIP3    H137191   6.895   1.033  18.909  0.3442  1.9348 -0.3534
 4332TIP3    H237192   6.797   1.115  18.990 -2.1694 -1.0603 -0.1692
 4333TIP3   OH237193   3.050   5.023  19.076  0.3493  0.0374  0.4337
 4333TIP3    H137194   3.089   5.097  19.122  0.4230 -0.4123  1.1016
 4333TIP3    H237195   3.114   4.952  19.085  0.8041  0.1914 -1.1644
 4334TIP3   OH237196   5.009   5.826  18.521  0.3191 -0.7119  0.3717
 4334TIP3    H137197   4.922   5.854  18.491  0.2154 -1.2899  0.1188
 4334TIP3    H237198   5.055   5.802  18.441  0.3121 -1.5104  0.5936
 4335TIP3   OH237199   7.016   0.605  19.217 -0.4328  0.7141 -0.3563
 4335TIP3    H137200   7.025   0.700  19.230  0.7688  0.3507  1.9324
 4335TIP3    H237201   6.930   0.595  19.176 -1.0430  2.7194  0.2965
 4336TIP3   OH237202   0.969   5.052  16.128 -0.4517  0.1372  0.1245
 4336TIP3    H137203   0.902   4.997  16.169 -0.8975  0.1219 -0.6005
 4336TIP3    H237204   1.045   4.995  16.118 -0.6453 -0.1190  0.1035
 4337TIP3   OH237205   3.439   0.943  17.660  0.1588 -0.1819  0.1853
 4337TIP3    H137206   3.502   1.012  17.683 -0.7895  0.6585  0.3052
 4337TIP3    H237207   3.420   0.958  17.568 -1.8768  1.2921  0.7527
 4338TIP3   OH237208   1.724   6.769  17.817 -0.2659  0.0031  0.7926
 4338TIP3    H137209   1.715   6.852  17.863 -0.1509  0.0520  0.7265
 4338TIP3    H237210   1.787   6.719  17.868  0.7724  0.5088  0.0547
 4339TIP3   OH237211   6.788   5.646  17.660 -0.8197  0.7722 -0.7023
 4339TIP3    H137212   6.824   5.735  17.662  1.5385 -0.1201  0.1757
 4339TIP3    H237213   6.852   5.593  17.707 -2.4638 -1.3175 -0.6467
 4340TIP3   OH237214   2.839   5.240  17.995 -0.1227 -0.2221  0.3824
 4340TIP3    H137215   2.929   5.220  18.022 -0.1240 -1.3366 -0.3647
 4340TIP3    H237216   2.785   5.181  18.047 -0.4303  0.3690  0.7486
 4341TIP3   OH237217   1.816   1.626  17.396 -0.4338  0.3323  0.1093
 4341TIP3    H137218   1.781   1.669  17.317  0.3433  1.8967  0.5638
 4341TIP3    H237219   1.749   1.640  17.463 -1.4240 -1.6240 -0.3936
 4342TIP3   OH237220   2.177   0.138  16.470 -0.1999 -0.2626 -0.6654
 4342TIP3    H137221   2.171   0.112  16.562 -0.3981 -2.0526 -1.1542
 4342TIP3    H237222   2.260   0.100  16.440  0.8472  1.9105 -0.8005
 4343TIP3   OH237223   2.665   5.390  18.558  0.0808 -0.0907 -0.5385
 4343TIP3    H137224   2.670   5.372  18.651  0.4800 -1.8274 -0.8690
 4343TIP3    H237225   2.687   5.307  18.515 -0.8632  0.4488 -2.1770
 4344TIP3   OH237226   1.364   6.057  16.762 -0.4431 -0.4063  0.6421
 4344TIP3    H137227   1.420   5.984  16.739 -0.0964  0.1135 -0.2088
 4344TIP3    H237228   1.283   6.042  16.714 -1.0449 -1.1370  1.8392
 4345TIP3   OH237229   6.785   5.359  19.239 -0.0791 -0.4055  0.1338
 4345TIP3    H137230   6.870   5.346  19.282 -1.1280 -0.6013  2.2925
 4345TIP3    H237231   6.770   5.453  19.242  0.0781 -0.3607 -0.3293
 4346TIP3   OH237232   7.595   0.317  18.961 -0.1755  0.1366 -0.7074
 4346TIP3    H137233   7.591   0.411  18.944 -0.3974  0.6271  1.7158
 4346TIP3    H237234   7.664   0.285  18.903 -1.1489  1.4716 -2.7221
 4347TIP3   OH237235   0.096   1.877  17.314  0.0383  0.2388 -0.0096
 4347TIP3    H137236   0.173   1.934  17.326  0.1153 -0.0902  1.2123
 4347TIP3    H237237   0.025   1.924  17.359 -0.9892  1.4534 -2.6834
 4348TIP3   OH237238   6.814   3.523  17.584  0.4915  0.2550 -0.3714
 4348TIP3    H137239   6.758   3.566  17.519  1.8550  1.7009 -0.6398
 4348TIP3    H237240   6.903   3.546  17.558  1.1875 -1.2475  0.5726
 4349TIP3   OH237241   7.527   0.041  17.088 -0.7147 -0.2195  0.2769
 4349TIP3    H137242   7.528   0.135  17.067  0.7217 -0.4537 -0.8727
 4349TIP3    H237243   7.537  -0.002  17.003 -1.8608 -1.4485  0.7429
 4350TIP3   OH237244   4.166   1.026  18.013 -0.1615  0.3650 -0.1076
 4350TIP3    H137245   4.248   0.977  18.023  1.4804  2.4479 -2.1684
 4350TIP3    H237246   4.105   0.962  17.976  0.8381 -0.9547  0.4144
 4351TIP3   OH237247   5.647   6.821  18.382 -0.2117  0.5991  0.1579
 4351TIP3    H137248   5.578   6.808  18.316 -1.4686  1.0526  1.3469
 4351TIP3    H237249   5.690   6.902  18.356 -1.6532  1.5651  0.6696
 4352TIP3   OH237250   0.167   0.302  17.868 -0.1855  0.3279  1.0307
 4352TIP3    H137251   0.210   0.367  17.813 -0.2550  0.7781  1.4982
 4352TIP3    H237252   0.215   0.221  17.851 -1.5323 -0.0533 -1.2987
 4353TIP3   OH237253   1.509   0.903  18.518  0.0468 -0.1028 -0.3706
 4353TIP3    H137254   1.522   0.903  18.423 -3.4748 -0.6804 -0.9805
 4353TIP3    H237255   1.478   0.991  18.538 -1.4342 -0.6443 -0.1877
 4354TIP3   OH237256   1.237   2.273  17.500  0.0114 -0.8237  0.5183
 4354TIP3    H137257   1.269   2.354  17.540  0.9904 -0.2039 -1.3814
 4354TIP3    H237258   1.142   2.279  17.504 -0.0196  1.6273 -1.7395
 4355TIP3   OH237259   5.228   6.830  16.909 -0.1085  0.1524  0.5227
 4355TIP3    H137260   5.214   6.925  16.900  0.0736  0.0591 -1.1430
 4355TIP3    H237261   5.289   6.809  16.839 -0.0724 -1.1928  0.9449
 4356TIP3   OH237262   0.680   0.976  17.655  0.0285  0.3365 -0.7045
 4356TIP3    H137263   0.745   1.046  17.651 -1.3541  1.7268 -0.1525
 4356TIP3    H237264   0.607   1.009  17.602 -0.6792 -0.6562 -0.3786
 4357TIP3   OH237265   4.034   1.021  17.570  0.4597 -0.0194 -0.6319
 4357TIP3    H137266   3.988   1.010  17.487  0.5683 -0.7790 -0.6071
 4357TIP3    H237267   4.093   1.095  17.555  0.2971  0.0119 -1.1481
 4358TIP3   OH237268   6.054   0.050  18.227 -0.2466  0.4759  0.0716
 4358TIP3    H137269   5.975   0.088  18.266 -1.7914 -1.2117 -1.2230
 4358TIP3    H237270   6.061   0.091  18.141  1.5038  2.0743  0.8985
 4359TIP3   OH237271   1.798   5.671  17.216  0.1116  0.2950 -0.1009
 4359TIP3    H137272   1.716   5.698  17.175 -0.4104  0.6395  1.1238
 4359TIP3    H237273   1.866   5.701  17.155 -0.6259  0.9334 -0.6296
 4360TIP3   OH237274   7.266   0.965  17.280 -0.1884 -0.3044 -0.3243
 4360TIP3    H137275   7.206   1.024  17.325  0.5170 -0.5639  1.0053
 4360TIP3    H237276   7.210   0.897  17.243 -0.7447 -0.5217  0.8572
 4361TIP3   OH237277   1.618   4.647  18.233 -0.2233 -0.2281  0.2175
 4361TIP3    H137278   1.567   4.627  18.154 -0.3162  0.4133  0.1105
 4361TIP3    H237279   1.679   4.574  18.241  1.4339  0.8266 -1.8265
 4362TIP3   OH237280   5.417   5.487  16.972 -0.4582  0.5434 -0.0005
 4362TIP3    H137281   5.436   5.434  16.894  0.8983 -0.4286  0.9417
 4362TIP3    H237282   5.354   5.435  17.021  0.8860 -0.2374  0.9344
 4363TIP3   OH237283   6.945   7.585  17.625  0.0085 -0.0952  0.0466
 4363TIP3    H137284   7.025   7.598  17.574  0.0015 -0.1679  0.0173
 4363TIP3    H237285   6.953   7.646  17.698  0.6869 -1.0066  0.7528
 4364TIP3   OH237286   2.449   5.948  16.771  0.6827 -0.1259 -0.1703
 4364TIP3    H137287   2.511   5.940  16.698  0.5008  0.7646 -0.4399
 4364TIP3    H237288   2.501   5.984  16.842  0.3625  1.2119 -0.5856
 4365TIP3   OH237289   3.188   6.938  19.244 -0.2206  0.3411 -0.7041
 4365TIP3    H137290   3.250   7.010  19.232 -0.6866  1.0581  0.8840
 4365TIP3    H237291   3.115   6.958  19.185  0.5685  0.0351 -1.8167
 4366TIP3   OH237292   7.311   3.990  18.912 -0.0470 -0.1768  0.5677
 4366TIP3    H137293   7.390   4.032  18.879 -2.3777  2.0696 -2.6866
 4366TIP3    H237294   7.264   4.059  18.958 -0.4653 -1.3379  1.9708
 4367TIP3   OH237295   4.854   5.717  19.142 -0.7465  0.3708  0.4933
 4367TIP3    H137296   4.826   5.792  19.195 -1.1617  0.9492 -0.5067
 4367TIP3    H237297   4.945   5.736  19.120 -0.8629  0.6183  0.2074
 4368TIP3   OH237298   3.624   6.951  19.239  0.3923  0.0262  0.5288
 4368TIP3    H137299   3.609   7.038  19.276  0.5435 -0.5523  1.9969
 4368TIP3    H237300   3.719   6.944  19.232  0.3769  0.0048  0.3394
 4369TIP3   OH237301   5.993   4.501  18.778  0.0579  0.4055 -0.4174
 4369TIP3    H137302   5.953   4.414  18.785 -0.4944  0.4177 -2.6748
 4369TIP3    H237303   6.069   4.498  18.836 -0.5382 -1.2190  0.3340
 4370TIP3   OH237304   0.779   3.536  17.757 -0.7137 -0.1386 -0.2205
 4370TIP3    H137305   0.717   3.531  17.684 -0.1538  0.3128 -0.7399
 4370TIP3    H237306   0.753   3.614  17.806 -0.4191  0.1894 -0.5770
 4371TIP3   OH237307   2.178   7.570  16.685 -0.0911 -0.0430 -0.2075
 4371TIP3    H137308   2.212   7.532  16.604  0.1421  1.2320 -0.7320
 4371TIP3    H237309   2.108   7.510  16.712 -1.3371  0.3562 -2.2822
 4372TIP3   OH237310   4.384   3.550  18.234  0.0862 -0.5991  0.4041
 4372TIP3    H137311   4.479   3.543  18.229  0.0160 -0.8850 -0.5979
 4372TIP3    H237312   4.351   3.464  18.209 -0.4729 -0.0256 -0.9279
 4373TIP3   OH237313   1.174   6.715  18.473 -0.0364  0.5211 -0.3934
 4373TIP3    H137314   1.191   6.730  18.566 -0.7018 -0.6022 -0.0661
 4373TIP3    H237315   1.245   6.761  18.428  0.2898  1.0904  0.6621
 4374TIP3   OH237316   2.285   0.384  18.595  0.1716 -0.0179 -0.0969
 4374TIP3    H137317   2.285   0.302  18.546  0.7334  1.0858 -2.0703
 4374TIP3    H237318   2.209   0.432  18.562 -0.1547  0.2874  1.0401
 4375TIP3   OH237319   3.705   7.170  18.491  0.1549  0.2361  0.4216
 4375TIP3    H137320   3.755   7.095  18.523  1.5632  0.8118 -0.3456
 4375TIP3    H237321   3.700   7.157  18.396 -1.0771  0.2507  0.4673
 4376TIP3   OH237322   3.440   6.800  19.400  0.0210  0.3395  0.0910
 4376TIP3    H137323   3.483   6.797  19.486  2.1700  1.2160 -0.8592
 4376TIP3    H237324   3.506   6.840  19.342 -1.1701 -0.6417 -2.0698
 4377TIP3   OH237325   0.913   2.361  16.568  0.2799 -0.0345 -0.9131
 4377TIP3    H137326   0.988   2.304  16.551  0.0719 -0.1165 -1.5631
 4377TIP3    H237327   0.916   2.427  16.499  0.8306  1.0806  0.1388
 4378TIP3   OH237328   5.433   3.318  16.882 -0.2337  0.4014 -0.6949
 4378TIP3    H137329   5.387   3.313  16.799  0.3878 -0.6009 -0.9969
 4378TIP3    H237330   5.519   3.278  16.865  0.2060  0.9216  0.2138
 4379TIP3   OH237331   4.336   0.203  18.896  0.2966 -0.0174 -0.3979
 4379TIP3    H137332   4.314   0.261  18.823 -2.1448  0.0693  0.3242
 4379TIP3    H237333   4.361   0.262  18.967  0.1367  0.0363 -0.3846
 4380TIP3   OH237334   0.548   4.149  16.107 -0.0829  0.1228  0.1828
 4380TIP3    H137335   0.495   4.076  16.076 -0.0866  0.8684 -1.7220
 4380TIP3    H237336   0.607   4.111  16.172  0.1354 -1.6519 -0.9919
 4381TIP3   OH237337   0.382   3.704  17.880  0.1194  0.1574  0.2098
 4381TIP3    H137338   0.441   3.666  17.946  0.5163 -2.1023 -1.3358
 4381TIP3    H237339   0.408   3.663  17.798 -0.5928  2.6218 -1.3542
 4382TIP3   OH237340   7.391   2.238  18.652  0.4839  0.3748  0.1615
 4382TIP3    H137341   7.354   2.312  18.602  1.3960 -0.1251 -1.2954
 4382TIP3    H237342   7.314   2.195  18.689 -0.2042  0.9518 -0.5390
 4383TIP3   OH237343   2.237   4.427  16.569  0.4959 -0.1514  0.3333
 4383TIP3    H137344   2.144   4.429  16.546  0.0043 -0.2947  2.1477
 4383TIP3    H237345   2.277   4.372  16.502 -0.9855 -1.3114  0.3416
 4384TIP3   OH237346   3.999   5.456  18.654  0.0750  0.6791  0.7339
 4384TIP3    H137347   4.000   5.523  18.585 -1.1740  2.1810  2.0868
 4384TIP3    H237348   3.929   5.396  18.628 -0.4071  1.2504  0.6889
 4385TIP3   OH237349   4.827   4.935  16.701 -0.2202  1.0899  0.2588
 4385TIP3    H137350   4.766   4.871  16.666 -1.0100  2.0585 -0.1914
 4385TIP3    H237351   4.773   4.995  16.752  0.6144  0.9455  1.3556
 4386TIP3   OH237352   0.608   2.610  18.823 -0.2780  0.0129 -0.4310
 4386TIP3    H137353   0.544   2.653  18.879  1.5779  0.6149  1.3325
 4386TIP3    H237354   0.602   2.656  18.740 -2.2686 -0.1081 -0.3960
 4387TIP3   OH237355   0.525   4.747  17.120 -0.6265  0.0398 -0.0148
 4387TIP3    H137356   0.494   4.810  17.055  1.0883  1.1934  0.2366
 4387TIP3    H237357   0.613   4.776  17.143 -0.8637 -0.7876  2.2521
 4388TIP3   OH237358   3.233   6.634  18.826 -0.2814  0.2104  0.4032
 4388TIP3    H137359   3.198   6.619  18.739  2.4346 -2.0002 -0.4556
 4388TIP3    H237360   3.320   6.673  18.811  0.2477 -0.2154  2.0938
 4389TIP3   OH237361   4.424   1.652  17.085 -0.3066 -0.1809  0.0549
 4389TIP3    H137362   4.365   1.723  17.059 -0.0229 -0.0316 -0.1777
 4389TIP3    H237363   4.389   1.574  17.042  0.6653  0.2176 -1.4942
 4390TIP3   OH237364   5.178   6.539  17.901  0.1742  0.2497 -0.2780
 4390TIP3    H137365   5.131   6.456  17.909 -1.3285  0.9709 -1.1256
 4390TIP3    H237366   5.263   6.514  17.864 -0.6256 -0.8375 -1.5071
 4391TIP3   OH237367   0.333   5.698  17.667 -0.0526 -0.2336  0.2525
 4391TIP3    H137368   0.316   5.644  17.590  0.8545 -0.6997  0.3750
 4391TIP3    H237369   0.302   5.785  17.642  2.6294  0.2858 -1.6630
 4392TIP3   OH237370   5.885   1.529  18.373 -0.3061  0.0556  0.4797
 4392TIP3    H137371   5.839   1.451  18.403  0.4577 -0.9160 -0.7928
 4392TIP3    H237372   5.971   1.498  18.346 -0.5023  1.0499 -1.5208
 4393TIP3   OH237373   7.614   2.416  18.690 -0.6926  0.0611 -0.2925
 4393TIP3    H137374   7.534   2.371  18.661  0.2127 -0.7796 -1.6216
 4393TIP3    H237375   7.676   2.345  18.708  0.1423  0.7235 -0.5090
 4394TIP3   OH237376   5.879   0.996  19.073  0.4342 -0.1744  0.2929
 4394TIP3    H137377   5.934   0.975  18.998 -1.4469  0.5125 -1.3404
 4394TIP3    H237378   5.791   0.969  19.048 -0.1671 -0.5524  2.5370
 4395TIP3   OH237379   5.104   1.583  19.029  0.3386 -0.7001 -0.3621
 4395TIP3    H137380   5.040   1.515  19.006  1.7408 -1.3746 -2.5326
 4395TIP3    H237381   5.169   1.538  19.083 -0.7690 -0.0637  1.6484
 4396TIP3   OH237382   1.369   4.130  17.971  0.0974 -0.0023 -0.6129
 4396TIP3    H137383   1.322   4.118  17.889 -1.3741  3.2344 -0.3952
 4396TIP3    H237384   1.383   4.041  18.004 -2.3815 -1.2611 -2.6080
 4397TIP3   OH237385   5.600   1.458  16.900  0.0558 -0.0298 -0.3864
 4397TIP3    H137386   5.677   1.466  16.957  0.5399  0.6257 -1.1150
 4397TIP3    H237387   5.586   1.547  16.867  0.9914 -0.7184 -2.8167
 4398TIP3   OH237388   1.429   1.410  18.817  0.6918 -0.0558  0.3349
 4398TIP3    H137389   1.451   1.464  18.893  3.0061 -2.2853  1.3761
 4398TIP3    H237390   1.495   1.433  18.751 -0.6081  1.0288 -0.6607
 4399TIP3   OH237391   4.737   6.163  16.736 -0.3273  0.1070 -0.5345
 4399TIP3    H137392   4.668   6.173  16.670  1.1052 -0.7996 -2.2453
 4399TIP3    H237393   4.781   6.081  16.714  0.9825  0.3855  0.8274
 4400TIP3   OH237394   2.517   2.400  18.940 -0.8115  0.0579 -0.2560
 4400TIP3    H137395   2.463   2.353  18.877 -0.0971 -0.3183 -0.6057
 4400TIP3    H237396   2.465   2.477  18.964 -1.4329 -0.2166 -0.6890
 4401TIP3   OH237397   1.447   0.112  17.373 -0.0918 -0.1736  0.6032
 4401TIP3    H137398   1.496   0.034  17.348 -0.8624 -0.2758 -0.6721
 4401TIP3    H237399   1.515   0.176  17.397  0.7649 -0.1386 -1.6376
 4402TIP3   OH237400   6.379   2.392  18.037  0.5818 -0.9851 -0.5006
 4402TIP3    H137401   6.353   2.462  18.098  1.7226 -0.3836 -0.6649
 4402TIP3    H237402   6.309   2.389  17.972 -0.3232 -1.1813  0.4683
 4403TIP3   OH237403   5.446   0.206  18.974 -0.0312 -0.0603  0.4316
 4403TIP3    H137404   5.393   0.224  18.896  0.2216 -2.1232 -0.2963
 4403TIP3    H237405   5.535   0.229  18.948  0.1039 -1.0558 -0.0474
 4404TIP3   OH237406   0.611   1.405  17.292 -0.9313 -0.0753  0.0030
 4404TIP3    H137407   0.677   1.363  17.237 -0.9610  0.3676 -0.3774
 4404TIP3    H237408   0.633   1.498  17.289 -0.1471 -0.1628  1.8038
 4405TIP3   OH237409   7.078   2.198  18.464  0.0803 -0.2421 -0.5681
 4405TIP3    H137410   6.984   2.189  18.444  0.4105 -1.5505 -1.6207
 4405TIP3    H237411   7.094   2.292  18.455 -1.1079 -0.0006 -0.4383
 4406TIP3   OH237412   0.078   0.434  18.275  0.6091  0.4702 -0.2998
 4406TIP3    H137413   0.017   0.361  18.266  1.2879  0.0372 -1.7410
 4406TIP3    H237414   0.028   0.511  18.247  0.2618  0.3743  0.0431
 4407TIP3   OH237415   6.995   2.685  18.488  0.0047  0.4015 -0.3949
 4407TIP3    H137416   7.029   2.619  18.549  0.4735 -1.3164 -2.4057
 4407TIP3    H237417   7.072   2.735  18.461 -0.1524  0.9351  0.1079
 4408TIP3   OH237418   3.731   0.138  18.466  0.4575 -0.4364 -0.1357
 4408TIP3    H137419   3.686   0.221  18.478 -1.1903 -1.1234 -1.1873
 4408TIP3    H237420   3.707   0.086  18.543 -1.1105 -1.0022 -0.9601
 4409TIP3   OH237421   2.028   5.808  17.449  0.4487  0.3737  0.2405
 4409TIP3    H137422   2.068   5.738  17.499  0.8637  1.4693  1.4984
 4409TIP3    H237423   2.096   5.838  17.389  1.2711  1.5808  1.6990
 4410TIP3   OH237424   2.052   1.496  17.467 -0.2084  0.2887 -0.2154
 4410TIP3    H137425   1.975   1.534  17.425  0.9041  2.4756 -0.4372
 4410TIP3    H237426   2.045   1.402  17.451 -0.9201  0.8005 -3.4675
 4411TIP3   OH237427   4.149   5.973  17.625  0.1990 -0.3946 -0.3623
 4411TIP3    H137428   4.240   5.958  17.651  0.2104  0.9265  0.4654
 4411TIP3    H237429   4.136   6.067  17.637 -0.8380 -0.2884 -1.9387
 4412TIP3   OH237430   7.583   5.115  18.550 -0.5689  0.6347 -0.7513
 4412TIP3    H137431   7.597   5.207  18.529 -0.2537  0.0977 -3.1950
 4412TIP3    H237432   7.655   5.093  18.610 -1.3460  2.2090  0.8598
 4413TIP3   OH237433   2.441   5.634  19.492  0.1090  0.0485 -0.0025
 4413TIP3    H137434   2.425   5.722  19.456  0.3345  1.2539  2.6516
 4413TIP3    H237435   2.517   5.603  19.443  0.3339  1.5368 -0.6771
 4414TIP3   OH237436   3.836   1.573  17.766  0.7173 -0.2265 -0.6439
 4414TIP3    H137437   3.863   1.662  17.745 -0.6397 -0.0939 -1.9537
 4414TIP3    H237438   3.799   1.579  17.854  0.1158  0.6253 -0.9457
 4415TIP3   OH237439   5.280   0.824  18.636 -0.1176 -0.4108 -0.5994
 4415TIP3    H137440   5.374   0.805  18.632  0.4148  1.4169  1.2897
 4415TIP3    H237441   5.241   0.747  18.679  0.9331 -0.2012  0.8189
 4416TIP3   OH237442   6.817   5.652  18.037  0.0448  0.2071  0.1905
 4416TIP3    H137443   6.866   5.618  17.962 -0.9148  0.4351 -0.5592
 4416TIP3    H237444   6.762   5.579  18.064  1.4263 -0.3652  1.6344
 4417TIP3   OH237445   1.963   1.414  18.767 -0.2325  0.3719 -0.5346
 4417TIP3    H137446   1.878   1.374  18.749  0.4650 -0.7053 -1.6261
 4417TIP3    H237447   2.016   1.395  18.689  1.8511 -1.3555  1.1693
 4418TIP3   OH237448   6.456   6.050  19.083 -0.1210  0.0570  0.1175
 4418TIP3    H137449   6.368   6.089  19.084  0.6181  1.8497 -0.8594
 4418TIP3    H237450   6.515   6.124  19.098  1.2051 -1.3635  2.4443
 4419TIP3   OH237451   0.237   0.279  18.423 -0.3848  0.0226 -0.6453
 4419TIP3    H137452   0.292   0.234  18.359 -0.3836  0.0380 -0.6545
 4419TIP3    H237453   0.197   0.351  18.375 -0.9201 -0.3696 -0.7974
 4420TIP3   OH237454   1.289   3.484  17.562  0.1931 -0.3206  0.2675
 4420TIP3    H137455   1.329   3.400  17.541  0.0324  0.1116 -2.0751
 4420TIP3    H237456   1.195   3.470  17.551  0.2103  0.3030 -0.9614
 4421TIP3   OH237457   2.847   6.614  18.473  0.0897  0.6578 -0.0864
 4421TIP3    H137458   2.777   6.632  18.537  0.3705  1.5345 -0.0013
 4421TIP3    H237459   2.928   6.624  18.523  0.3026  0.9817 -0.4864
 4422TIP3   OH237460   7.101   2.798  17.171 -0.4503 -0.2552 -0.1660
 4422TIP3    H137461   7.011   2.827  17.156  0.0876  1.0750 -1.0284
 4422TIP3    H237462   7.113   2.723  17.113 -0.9021 -0.2436 -0.2767
 4423TIP3   OH237463   4.578   5.474  16.648 -0.5381 -0.2802  0.5139
 4423TIP3    H137464   4.557   5.391  16.691  1.1824 -0.2354  1.5480
 4423TIP3    H237465   4.673   5.479  16.651 -0.3248 -0.0164 -2.9802
 4424TIP3   OH237466   2.254   2.186  18.052  0.9821 -0.0462  0.0453
 4424TIP3    H137467   2.212   2.225  18.129 -0.3619  0.4948 -0.9241
 4424TIP3    H237468   2.288   2.260  18.003  3.0134 -0.4688  0.7233
 4425TIP3   OH237469   3.899   5.334  17.599  0.1614  0.1610 -0.2087
 4425TIP3    H137470   3.829   5.384  17.556 -0.1610 -0.3250 -0.2658
 4425TIP3    H237471   3.927   5.390  17.672  1.8141  1.7094 -1.9234
 4426TIP3   OH237472   4.981   3.907  19.282 -0.4125 -0.0892  0.5391
 4426TIP3    H137473   4.934   3.941  19.206  0.8639  2.4838  0.7603
 4426TIP3    H237474   4.917   3.907  19.353 -1.4098 -1.7725 -0.3289
 4427TIP3   OH237475   7.057   2.637  18.231 -0.1621 -0.1453  0.0699
 4427TIP3    H137476   7.005   2.648  18.310 -0.3797  0.1008 -0.1019
 4427TIP3    H237477   7.117   2.566  18.250  1.0483  1.1071  1.1188
 4428TIP3   OH237478   2.132   4.844  17.660  0.1482 -0.3073  0.7637
 4428TIP3    H137479   2.102   4.833  17.750  0.4113 -0.2628  0.8574
 4428TIP3    H237480   2.169   4.759  17.637  0.1688 -0.2885  0.7287
 4429TIP3   OH237481   3.191   0.975  17.215  0.0105  0.4886  0.2856
 4429TIP3    H137482   3.213   0.884  17.192 -0.3799  0.5327 -0.2914
 4429TIP3    H237483   3.111   0.993  17.165  0.3072  1.2809  0.0932
 4430TIP3   OH237484   4.180   5.973  16.607  0.0963 -0.2123  0.0506
 4430TIP3    H137485   4.227   6.057  16.608  0.4874 -0.4245 -0.4551
 4430TIP3    H237486   4.087   5.998  16.607  0.1889  0.2073  1.1512
 4431TIP3   OH237487   6.067   7.613  16.748  0.9946 -0.0895 -0.2579
 4431TIP3    H137488   6.024   7.698  16.759 -1.2853 -1.2740  0.5554
 4431TIP3    H237489   6.128   7.607  16.822 -1.0809 -0.3925  1.5199
 4432TIP3   OH237490   4.492   3.608  17.621 -0.3171  0.3190  0.3113
 4432TIP3    H137491   4.572   3.659  17.610  0.0850  0.2497  2.4487
 4432TIP3    H237492   4.431   3.668  17.665 -1.8747  0.7185 -2.1843
 4433TIP3   OH237493   2.745   5.815  18.663  0.1331  0.0190 -0.5110
 4433TIP3    H137494   2.738   5.735  18.714 -0.9487 -0.9622 -2.1251
 4433TIP3    H237495   2.767   5.785  18.574  0.1223  1.5326 -1.0554
 4434TIP3   OH237496   6.966   3.228  18.758  0.2453  0.3996  0.1596
 4434TIP3    H137497   6.907   3.208  18.685 -1.3578 -0.4529  1.6339
 4434TIP3    H237498   6.915   3.210  18.836  1.9803  1.1290  1.5275
 4435TIP3   OH237499   2.861   2.421  18.474 -0.1554  0.4573 -0.2327
 4435TIP3    H137500   2.939   2.437  18.422  0.6331  1.6732  1.2384
 4435TIP3    H237501   2.895   2.387  18.557 -1.2820 -0.1746 -0.0173
 4436TIP3   OH237502   2.157   5.082  18.257 -0.3145  0.8254  0.2480
 4436TIP3    H137503   2.217   5.008  18.255 -1.1439  0.1361  0.0931
 4436TIP3    H237504   2.204   5.151  18.304  0.0274 -0.2051  1.4614
 4437TIP3   OH237505   7.208   3.270  18.168 -0.2439 -0.1221  0.1314
 4437TIP3    H137506   7.215   3.179  18.138  1.5269  0.1875 -0.4657
 4437TIP3    H237507   7.252   3.321  18.101 -2.0925  1.3241 -0.0496
 4438TIP3   OH237508   5.367   2.903  18.220  0.1590 -0.6363  0.3380
 4438TIP3    H137509   5.383   2.952  18.140  0.3627  0.1326  0.8367
 4438TIP3    H237510   5.454   2.875  18.249  0.1192 -0.6419  0.4538
 4439TIP3   OH237511   4.195   1.225  19.320 -0.3564  0.7156  0.1188
 4439TIP3    H137512   4.185   1.236  19.414  3.1898  0.9213  0.6274
 4439TIP3    H237513   4.274   1.275  19.298 -0.1317 -0.6451 -2.6699
 4440TIP3   OH237514   5.861   4.939  18.665 -0.7717  0.6253  0.0732
 4440TIP3    H137515   5.817   4.862  18.700 -0.5265  1.0035  1.2744
 4440TIP3    H237516   5.822   4.953  18.579 -0.1822 -1.3496 -0.5626
 4441TIP3   OH237517   5.952   0.400  19.179  0.3458  0.0539  0.0257
 4441TIP3    H137518   5.951   0.496  19.185 -0.0221  0.0478  0.1524
 4441TIP3    H237519   5.921   0.381  19.090  0.6090  0.0562 -0.0680
 4442TIP3   OH237520   0.359   3.014  17.092  0.4371  0.1762  0.2244
 4442TIP3    H137521   0.281   2.958  17.085  1.5017 -1.3466 -0.0065
 4442TIP3    H237522   0.398   3.012  17.004  1.1685  0.2597  0.5370
 4443TIP3   OH237523   1.909   5.737  18.257  0.1453 -0.1042 -0.5824
 4443TIP3    H137524   1.941   5.793  18.187  0.9309 -0.0154 -0.1573
 4443TIP3    H237525   1.971   5.664  18.259  0.9584  0.5821  0.9207
 4444TIP3   OH237526   3.503   1.758  17.300 -0.5250  0.5313 -0.0675
 4444TIP3    H137527   3.596   1.780  17.298 -0.8133  1.8352  0.0510
 4444TIP3    H237528   3.460   1.827  17.249 -1.5840  0.8729  1.1982
 4445TIP3   OH237529   5.407   1.149  16.655 -0.1140 -0.3695 -0.0151
 4445TIP3    H137530   5.314   1.166  16.671 -0.2930 -1.0292 -0.2899
 4445TIP3    H237531   5.410   1.056  16.633  0.4999 -0.1722 -0.8176
 4446TIP3   OH237532   3.072   7.655  17.174  0.3914 -0.2157 -0.4855
 4446TIP3    H137533   2.990   7.657  17.224  1.5318  1.1972  1.4883
 4446TIP3    H237534   3.098   7.563  17.175 -1.4674 -0.8070 -1.7346
 4447TIP3   OH237535   2.234   1.397  18.045 -0.3062 -0.1198  0.1467
 4447TIP3    H137536   2.309   1.343  18.022  0.8735  1.3550  0.4246
 4447TIP3    H237537   2.158   1.342  18.024  0.8256 -1.8871  0.4791
 4448TIP3   OH237538   3.462   2.223  17.004  0.2134 -0.1620 -0.1588
 4448TIP3    H137539   3.536   2.276  16.974 -0.7875  0.4456 -1.6931
 4448TIP3    H237540   3.402   2.286  17.045 -0.4946 -0.2337 -1.0385
 4449TIP3   OH237541   3.564   4.179  18.383  0.0180 -0.6570  0.0077
 4449TIP3    H137542   3.520   4.138  18.309 -2.7968  0.9241  0.6789
 4449TIP3    H237543   3.524   4.265  18.392  1.8763  0.1242  1.9901
 4450TIP3   OH237544   4.817   5.105  18.003 -0.2439  0.0700  0.2730
 4450TIP3    H137545   4.875   5.156  18.061  2.3896 -2.1166 -0.2510
 4450TIP3    H237546   4.735   5.099  18.052  0.9396  0.7257  2.5044
 4451TIP3   OH237547   4.014   4.019  18.557  0.1616 -0.1507 -0.6714
 4451TIP3    H137548   3.968   4.025  18.641  0.0254  0.2513 -0.7733
 4451TIP3    H237549   4.018   3.925  18.539 -0.2158 -0.2162 -0.4382
 4452TIP3   OH237550   6.210   4.714  17.890  0.2333  0.0513 -0.3434
 4452TIP3    H137551   6.299   4.721  17.925  0.7789 -0.7051 -1.5059
 4452TIP3    H237552   6.178   4.630  17.921  0.0206  0.1950 -0.1643
 4453TIP3   OH237553   2.332   1.520  17.490  0.2014 -0.4091  0.1608
 4453TIP3    H137554   2.377   1.436  17.479  1.8288  0.4315  0.0954
 4453TIP3    H237555   2.240   1.496  17.499  0.5722 -2.1747 -0.2248
 4454TIP3   OH237556   1.594   0.515  18.457  0.5373 -0.1535 -0.2162
 4454TIP3    H137557   1.584   0.475  18.543  1.3422  0.4281  0.1575
 4454TIP3    H237558   1.508   0.551  18.437 -0.0667 -1.5935 -0.3364
 4455TIP3   OH237559   5.130   4.715  19.154 -0.1907  0.5525  0.1752
 4455TIP3    H137560   5.044   4.756  19.151 -0.1835  0.4796 -2.0662
 4455TIP3    H237561   5.184   4.777  19.204 -0.9481  1.7651 -0.4650
 4456TIP3   OH237562   3.913   2.933  19.034 -0.0479 -0.3589  0.2784
 4456TIP3    H137563   3.986   2.990  19.008  0.7292 -0.9028  1.2062
 4456TIP3    H237564   3.838   2.992  19.041  0.0976  0.0983 -1.4227
 4457TIP3   OH237565   2.407   4.044  16.802 -0.4245 -0.2212  0.1351
 4457TIP3    H137566   2.495   4.042  16.840 -0.4061  0.7522  0.1819
 4457TIP3    H237567   2.381   3.952  16.797 -0.0531 -0.4420  1.6285
 4458TIP3   OH237568   6.184   2.400  17.835 -0.2896  0.0186  0.2350
 4458TIP3    H137569   6.231   2.474  17.798 -0.5922 -0.5932 -1.4728
 4458TIP3    H237570   6.115   2.439  17.889 -0.0136  0.9542 -0.0715
 4459TIP3   OH237571   2.874   3.177  17.391 -0.0755  0.3432 -0.0668
 4459TIP3    H137572   2.862   3.110  17.458 -0.6403 -0.3550 -0.8494
 4459TIP3    H237573   2.834   3.256  17.429 -2.5949 -0.6222 -0.5039
 4460TIP3   OH237574   4.096   2.505  18.851 -0.5935 -0.3354  0.0822
 4460TIP3    H137575   4.067   2.457  18.774 -1.4699 -1.2953  0.9743
 4460TIP3    H237576   4.130   2.437  18.910 -0.9181  0.2497  0.9648
 4461TIP3   OH237577   1.468   2.370  16.947 -0.3389 -0.4209  0.0481
 4461TIP3    H137578   1.455   2.407  16.859  0.4828  1.4358  0.6419
 4461TIP3    H237579   1.550   2.321  16.941 -0.8843 -1.2890 -0.4916
 4462TIP3   OH237580   4.155   2.019  18.584  0.0731 -0.6568 -0.4665
 4462TIP3    H137581   4.234   2.070  18.604  0.5193 -1.0207 -1.2529
 4462TIP3    H237582   4.132   1.977  18.667  2.1117 -2.4538 -0.7339
 4463TIP3   OH237583   0.264   7.351  17.068 -0.8388  0.6797  0.1642
 4463TIP3    H137584   0.299   7.262  17.058 -1.9303  0.3148 -0.5845
 4463TIP3    H237585   0.205   7.362  16.994 -0.4260  2.1905  0.0225
 4464TIP3   OH237586   6.468   5.322  17.035 -0.5108 -0.1933 -0.1696
 4464TIP3    H137587   6.482   5.233  17.066  0.4171  0.2483  0.7515
 4464TIP3    H237588   6.398   5.314  16.970 -0.8250 -1.4982  0.2939
 4465TIP3   OH237589   3.506   2.746  17.479 -0.3802 -0.9185 -0.3290
 4465TIP3    H137590   3.452   2.713  17.407  0.0626 -0.5906 -0.8247
 4465TIP3    H237591   3.447   2.802  17.529 -1.1337 -2.4373  0.5247
 4466TIP3   OH237592   3.655   0.637  18.848  0.1919 -0.5602 -0.3973
 4466TIP3    H137593   3.706   0.607  18.924 -0.2492  1.5046  0.7913
 4466TIP3    H237594   3.705   0.712  18.815 -0.1599 -0.8219 -1.5478
 4467TIP3   OH237595   5.644   5.395  19.280  0.2045  0.3409  0.1755
 4467TIP3    H137596   5.712   5.392  19.213 -0.1616 -0.5672 -0.1742
 4467TIP3    H237597   5.621   5.303  19.295  0.8727  0.4566  2.1663
 4468TIP3   OH237598   0.314   6.951  19.300 -0.3698  0.3459  0.0363
 4468TIP3    H137599   0.357   6.866  19.291  0.6531  0.8560 -0.0821
 4468TIP3    H237600   0.223   6.930  19.324 -0.8644 -0.8700 -2.5535
 4469TIP3   OH237601   6.882   2.692  17.443 -0.2044 -0.1942 -0.3131
 4469TIP3    H137602   6.941   2.654  17.378  0.6944 -1.0850  0.9860
 4469TIP3    H237603   6.916   2.780  17.457  0.5483 -0.5404  0.0831
 4470TIP3   OH237604   3.635   2.548  19.398 -0.2427  0.0516  0.0617
 4470TIP3    H137605   3.672   2.632  19.371  0.6210  0.2381  1.6873
 4470TIP3    H237606   3.709   2.487  19.390 -0.6748 -0.4179 -0.4212
 4471TIP3   OH237607   7.617   5.635  18.701  0.0891  0.0385 -0.1218
 4471TIP3    H137608   7.535   5.600  18.737  0.1948  1.1093  1.2567
 4471TIP3    H237609   7.644   5.701  18.765  0.5896  1.6674 -1.9437
 4472TIP3   OH237610   5.033   6.292  17.862  0.5240  0.1183  0.3911
 4472TIP3    H137611   4.986   6.260  17.939  1.6511  1.4146  1.6600
 4472TIP3    H237612   5.100   6.225  17.845  0.6734  0.1335  0.9160
 4473TIP3   OH237613   2.247   5.485  17.822 -0.1846 -0.0121  0.2202
 4473TIP3    H137614   2.299   5.564  17.834  0.6314 -0.4059 -0.6097
 4473TIP3    H237615   2.196   5.478  17.903  0.5563  0.7417  0.7788
 4474TIP3   OH237616   4.642   3.287  19.390 -0.1416  0.1369  0.0182
 4474TIP3    H137617   4.730   3.322  19.377 -0.0116  0.1823  0.9316
 4474TIP3    H237618   4.585   3.363  19.382 -0.0912  0.1253 -0.4748
 4475TIP3   OH237619   4.749   1.988  18.732 -0.2857  0.3409 -0.0464
 4475TIP3    H137620   4.834   1.964  18.695 -0.1738  1.4546 -0.5479
 4475TIP3    H237621   4.754   1.961  18.824  0.0872 -0.8607 -0.4080
 4476TIP3   OH237622   6.017   4.478  17.265 -0.2124  0.1771 -0.0842
 4476TIP3    H137623   5.933   4.490  17.310 -0.3390  0.8215 -0.4718
 4476TIP3    H237624   5.998   4.501  17.174  0.0872 -0.9334 -0.4360
 4477TIP3   OH237625   3.615   3.605  19.211  0.3307 -0.0968 -0.1900
 4477TIP3    H137626   3.569   3.622  19.293  1.2337  1.7413 -0.0173
 4477TIP3    H237627   3.708   3.603  19.236  0.6386  0.8599 -1.2020
 4478TIP3   OH237628   1.003   2.240  18.270 -0.1416  0.1879 -0.3012
 4478TIP3    H137629   0.951   2.205  18.342  0.6711 -0.7476 -0.1528
 4478TIP3    H237630   0.939   2.263  18.203 -0.8945  0.8588  0.6069
 4479TIP3   OH237631   2.041   2.830  18.810 -0.1445  0.1720 -0.4243
 4479TIP3    H137632   1.960   2.789  18.841  0.5026  0.0127  1.1808
 4479TIP3    H237633   2.095   2.838  18.889 -0.0199  3.6737 -0.6823
 4480TIP3   OH237634   2.419   4.364  18.342  0.2693  0.0220 -0.1418
 4480TIP3    H137635   2.407   4.273  18.370  1.3009 -0.4749 -1.2497
 4480TIP3    H237636   2.495   4.394  18.392 -1.0138  0.8203  1.4135
 4481TIP3   OH237637   1.329   6.227  17.244 -0.5335  0.7495  0.5982
 4481TIP3    H137638   1.275   6.172  17.188  0.1305  0.9365 -0.2375
 4481TIP3    H237639   1.378   6.164  17.298 -2.2196  0.5848  2.0176
 4482TIP3   OH237640   1.530   6.978  17.315 -0.7379  0.1378  0.5765
 4482TIP3    H137641   1.607   6.969  17.259  0.0922 -1.0881  1.8330
 4482TIP3    H237642   1.515   6.890  17.350 -2.6993  0.3603  0.4046
 4483TIP3   OH237643   0.530   7.550  18.235  0.1904  0.1166 -0.6329
 4483TIP3    H137644   0.484   7.529  18.316 -0.0072 -0.2490 -0.8391
 4483TIP3    H237645   0.595   7.616  18.261 -1.1198  1.4293 -0.5317
 4484TIP3   OH237646   5.789   5.943  17.504 -0.4435  0.0191 -0.4711
 4484TIP3    H137647   5.795   5.872  17.441 -0.4610  0.4427 -0.9569
 4484TIP3    H237648   5.749   5.903  17.582 -2.6387 -0.0207 -1.5201
 4485TIP3   OH237649   3.981   5.709  18.516 -0.0451  0.5307 -0.0282
 4485TIP3    H137650   3.904   5.760  18.491 -0.5291 -0.8641 -1.5239
 4485TIP3    H237651   4.046   5.730  18.449  0.7619  1.3456  0.9694
 4486TIP3   OH237652   7.640   4.295  17.709 -0.3293  0.0063 -0.0601
 4486TIP3    H137653   7.668   4.235  17.778 -1.4060 -0.6700 -0.1957
 4486TIP3    H237654   7.640   4.242  17.630  0.6678  0.7188 -0.5697
 4487TIP3   OH237655   2.974   4.860  18.528 -0.1883 -0.3316 -0.1894
 4487TIP3    H137656   3.023   4.938  18.554  0.4093 -0.9371  0.5780
 4487TIP3    H237657   3.041   4.799  18.496 -0.8198  0.1177 -2.6047
 4488TIP3   OH237658   2.110   5.846  17.782  0.5239  0.1515  0.3780
 4488TIP3    H137659   2.075   5.758  17.798 -0.3859  0.3043 -0.6171
 4488TIP3    H237660   2.168   5.836  17.706 -0.9076  0.6657 -0.8405
 4489TIP3   OH237661   4.133   7.054  18.508 -0.5082  0.2627  0.0997
 4489TIP3    H137662   4.178   6.974  18.482 -2.3386 -1.2622  1.2839
 4489TIP3    H237663   4.134   7.052  18.604 -2.7885  0.2408  0.1849
 4490TIP3   OH237664   2.828   0.105  16.981 -0.2644  0.2549 -0.4645
 4490TIP3    H137665   2.887   0.174  17.013  1.2732 -0.0228 -2.4954
 4490TIP3    H237666   2.849   0.029  17.036 -2.1385  1.3330  1.9492
 4491TIP3   OH237667   4.025   3.024  18.645  0.0611  0.4616  0.0226
 4491TIP3    H137668   4.118   3.043  18.661  0.1515 -0.7295  1.1234
 4491TIP3    H237669   4.007   2.949  18.701 -1.1314 -0.4395 -1.5123
 4492TIP3   OH237670   4.908   0.536  17.994 -0.0554  1.3987 -0.0653
 4492TIP3    H137671   4.865   0.500  17.916  2.0453  0.7952 -1.0290
 4492TIP3    H237672   4.837   0.575  18.045 -1.6652  0.7402 -1.6891
 4493TIP3   OH237673   0.837   1.767  17.293  0.3159  0.0297  0.0915
 4493TIP3    H137674   0.906   1.828  17.319  0.5105 -0.0551 -0.2230
 4493TIP3    H237675   0.804   1.803  17.211 -0.0101  0.0637  0.2377
 4494TIP3   OH237676   2.120   0.944  16.515  0.0172  0.2103  0.4670
 4494TIP3    H137677   2.177   0.867  16.508  0.2730  0.3429  1.0751
 4494TIP3    H237678   2.044   0.922  16.460  1.0582  0.4160 -1.1300
 4495TIP3   OH237679   1.413   1.469  18.358  0.2517 -0.0845  0.1973
 4495TIP3    H137680   1.335   1.425  18.391  0.4033  0.3282  1.1379
 4495TIP3    H237681   1.426   1.433  18.270 -1.1010 -0.0244 -0.0476
 4496TIP3   OH237682   5.882   2.696  19.238 -0.4894 -0.0413  0.3405
 4496TIP3    H137683   5.788   2.690  19.222 -0.6984  0.6849  1.1954
 4496TIP3    H237684   5.894   2.783  19.278  0.6251  0.1180 -0.3056
 4497TIP3   OH237685   3.921   7.094  16.497 -0.1255 -0.4554  0.4500
 4497TIP3    H137686   3.998   7.121  16.548 -0.4606  1.4897  0.0079
 4497TIP3    H237687   3.892   7.175  16.454  0.1670 -1.9824 -2.9044
 4498TIP3   OH237688   1.004   0.447  18.632 -0.0832  0.7433 -0.0516
 4498TIP3    H137689   1.076   0.431  18.571 -0.3522  0.3995 -0.2778
 4498TIP3    H237690   1.047   0.452  18.718  0.3757  1.8063 -0.3147
 4499TIP3   OH237691   1.427   7.336  17.635  0.2377 -0.1152  0.2236
 4499TIP3    H137692   1.397   7.423  17.610  1.7904  0.7081  1.0787
 4499TIP3    H237693   1.385   7.277  17.573 -2.1620  1.0487  0.6282
 4500TIP3   OH237694   0.624   3.107  18.005 -0.1372  0.1665 -0.4626
 4500TIP3    H137695   0.656   3.036  17.949 -0.0539  0.8347 -1.2821
 4500TIP3    H237696   0.538   3.129  17.969 -0.4092  0.1202  0.1342
 4501TIP3   OH237697   0.997   0.021  17.717  0.1661 -0.4746 -0.3039
 4501TIP3    H137698   1.089   0.038  17.696  0.0871  0.2018 -0.1207
 4501TIP3    H237699   0.950   0.095  17.679 -0.5132 -1.6974 -1.9470
 4502TIP3   OH237700   3.102   0.176  17.698  0.4200 -0.3579  0.3924
 4502TIP3    H137701   3.056   0.255  17.670 -0.2309  0.9162  4.3235
 4502TIP3    H237702   3.032   0.116  17.725  0.9680 -1.4202 -0.4799
 4503TIP3   OH237703   2.439   1.987  17.764 -0.2639  0.3578  0.3149
 4503TIP3    H137704   2.393   1.920  17.815 -0.3028 -1.1346 -1.5678
 4503TIP3    H237705   2.408   1.974  17.675  1.6179  1.2494 -0.5220
 4504TIP3   OH237706   1.773   7.623  16.823  0.1574  0.3494 -0.1221
 4504TIP3    H137707   1.794   7.692  16.759  0.8787 -3.0780 -3.9927
 4504TIP3    H237708   1.687   7.591  16.797 -1.0138  0.8050  2.7747
 4505TIP3   OH237709   1.130   6.314  17.404 -0.0381  0.1369  0.2999
 4505TIP3    H137710   1.201   6.297  17.341 -1.0082  0.3676 -0.8894
 4505TIP3    H237711   1.083   6.389  17.367 -0.2554  0.6731  1.6416
 4506TIP3   OH237712   1.950   1.133  18.567 -0.1515 -0.6415  0.0088
 4506TIP3    H137713   1.959   1.046  18.528  0.6518 -0.4675 -0.2101
 4506TIP3    H237714   1.882   1.123  18.633  0.2123 -1.5424  0.2603
 4507TIP3   OH237715   2.235   1.911  18.590 -0.0690 -0.1799 -0.2462
 4507TIP3    H137716   2.308   1.959  18.551 -0.8749  1.8884  0.6669
 4507TIP3    H237717   2.207   1.965  18.664 -3.1293 -0.3885 -1.1050
 4508TIP3   OH237718   2.854   4.574  18.176 -0.0884  0.1140  0.0052
 4508TIP3    H137719   2.905   4.510  18.226  0.3939  0.0395 -0.5704
 4508TIP3    H237720   2.765   4.566  18.210  0.5591  1.3975  2.2036
 4509TIP3   OH237721   4.309   6.359  17.526  0.2363  0.5703  0.1182
 4509TIP3    H137722   4.241   6.318  17.474  0.8318  1.6418 -1.5745
 4509TIP3    H237723   4.272   6.364  17.615 -1.3552 -0.0298 -0.4805
 4510TIP3   OH237724   2.806   0.552  17.788 -0.0942 -0.4028 -0.2479
 4510TIP3    H137725   2.738   0.594  17.840 -1.9923 -2.0405 -1.2843
 4510TIP3    H237726   2.857   0.501  17.852 -0.4089  0.0854  0.4045
 4511TIP3   OH237727   1.697   0.258  17.465  0.0398  0.4056 -0.0098
 4511TIP3    H137728   1.728   0.348  17.477  0.6885  0.1587  0.2143
 4511TIP3    H237729   1.748   0.224  17.392 -0.0741  0.1643  0.0216
 4512TIP3   OH237730   4.796   0.426  17.756 -0.2522 -0.2762 -0.1777
 4512TIP3    H137731   4.876   0.390  17.716  0.3180 -0.5833  1.1796
 4512TIP3    H237732   4.731   0.356  17.747  0.6645 -1.4571  1.8631
 4513TIP3   OH237733   3.233   6.574  17.708  0.5808 -0.3221  0.7493
 4513TIP3    H137734   3.250   6.668  17.722 -1.3992  0.3280 -0.7650
 4513TIP3    H237735   3.247   6.560  17.615 -0.7750 -1.1322  0.6388
 4514TIP3   OH237736   7.095   2.697  17.977 -0.0033 -0.2251 -0.7355
 4514TIP3    H137737   7.128   2.787  17.974 -0.0290 -0.2139 -0.6717
 4514TIP3    H237738   7.100   2.672  18.069  1.6501 -0.8881 -0.9599
 4515TIP3   OH237739   5.981   0.195  17.705  0.1238 -0.0390  0.4731
 4515TIP3    H137740   5.902   0.246  17.688  1.3245  1.2057 -1.7687
 4515TIP3    H237741   5.954   0.104  17.694 -1.0738  0.3549  0.0459
 4516TIP3   OH237742   6.542   5.960  17.108  0.0163  0.4620 -0.2283
 4516TIP3    H137743   6.493   6.039  17.082  0.9283  1.5161  1.1251
 4516TIP3    H237744   6.583   5.984  17.191 -1.4352 -2.1922  1.3823
 4517TIP3   OH237745   0.368   6.698  17.599 -0.1592  0.9122 -0.2167
 4517TIP3    H137746   0.307   6.714  17.528 -0.5228  1.8635  0.2915
 4517TIP3    H237747   0.449   6.670  17.556 -0.3290  1.6071 -0.9997
 4518TIP3   OH237748   4.613   7.159  19.486 -0.3619 -0.2281 -0.0465
 4518TIP3    H137749   4.633   7.197  19.401 -0.0878  0.1076  0.1639
 4518TIP3    H237750   4.540   7.099  19.469 -1.1023  0.7151 -0.3062
 4519TIP3   OH237751   0.096   1.849  18.393 -0.8314 -0.1682 -0.1938
 4519TIP3    H137752   0.005   1.851  18.424 -1.7180 -2.2166 -2.3522
 4519TIP3    H237753   0.105   1.928  18.339 -2.1809 -1.1600 -1.9625
 4520TIP3   OH237754   1.122   2.797  18.060 -0.0660 -0.3775  0.3415
 4520TIP3    H137755   1.203   2.847  18.055  0.2563 -0.8184  1.0634
 4520TIP3    H237756   1.150   2.706  18.064 -0.4852 -0.4750  2.4847
 4521TIP3   OH237757   6.342   2.097  19.052 -0.3779 -0.2363  0.3298
 4521TIP3    H137758   6.323   2.154  19.126  0.0107 -0.3392  0.5085
 4521TIP3    H237759   6.273   2.030  19.055 -0.8755  0.2621  0.0728
 4522TIP3   OH237760   4.148   4.827  17.659  0.0381  0.1431  0.0101
 4522TIP3    H137761   4.138   4.740  17.620  1.7785  0.4609 -1.2448
 4522TIP3    H237762   4.123   4.888  17.589 -1.3799  0.6815  0.9466
 4523TIP3   OH237763   1.377   6.649  17.296 -0.5260 -0.6830  0.3273
 4523TIP3    H137764   1.438   6.704  17.246 -1.1230 -1.2650 -1.0909
 4523TIP3    H237765   1.432   6.577  17.329  0.3111  0.8345  2.4198
 4524TIP3   OH237766   6.043   4.200  17.841 -0.1475  0.2719 -0.4859
 4524TIP3    H137767   6.037   4.128  17.904  0.2356  0.7499  0.1181
 4524TIP3    H237768   6.116   4.253  17.873 -0.7634  1.2254 -0.6102
 4525TIP3   OH237769   0.374   0.146  17.786  0.4400 -0.4298  0.2599
 4525TIP3    H137770   0.437   0.131  17.716 -0.2645 -0.6874 -0.3390
 4525TIP3    H237771   0.364   0.061  17.829  0.9457 -0.2498  0.7505
 4526TIP3   OH237772   4.969   4.817  18.507  0.2224 -0.1937 -0.1175
 4526TIP3    H137773   4.938   4.880  18.442 -0.0959  0.6685  0.8438
 4526TIP3    H237774   5.063   4.833  18.514 -0.0074  0.8845  0.8317
 4527TIP3   OH237775   3.425   2.804  19.090  0.1511  0.2367 -0.9218
 4527TIP3    H137776   3.487   2.855  19.141 -0.6196 -0.4142  0.7469
 4527TIP3    H237777   3.339   2.837  19.118 -0.2994  0.0650 -2.0489
 4528TIP3   OH237778   2.977   4.315  19.115 -0.1528 -0.1641 -0.2383
 4528TIP3    H137779   3.012   4.287  19.200 -1.4716 -0.4549  0.2371
 4528TIP3    H237780   2.937   4.236  19.079  0.2957 -0.0091 -1.0903
 4529TIP3   OH237781   4.174   7.605  16.946 -0.0888  0.2532 -0.4641
 4529TIP3    H137782   4.173   7.654  16.864 -3.6966  1.4787  0.1387
 4529TIP3    H237783   4.095   7.551  16.944  1.6008 -2.4794  0.7345
 4530TIP3   OH237784   4.208   6.431  18.139  0.1061  0.3304  0.0473
 4530TIP3    H137785   4.219   6.525  18.150 -1.4109  0.7102 -1.3434
 4530TIP3    H237786   4.271   6.407  18.071 -0.0258  0.4764 -0.1261
 4531TIP3   OH237787   3.897   1.307  17.697 -0.0534 -0.2000 -0.2941
 4531TIP3    H137788   3.920   1.268  17.782 -0.3563 -0.9112 -0.5289
 4531TIP3    H237789   3.890   1.401  17.715  0.3863 -0.2792  0.3549
 4532TIP3   OH237790   4.415   2.905  17.246 -0.3141  0.0277  0.4138
 4532TIP3    H137791   4.419   2.813  17.272  0.4948 -0.2189 -0.5082
 4532TIP3    H237792   4.491   2.945  17.288 -0.0768  0.0394 -0.0175
 4533TIP3   OH237793   1.441   2.277  18.048 -0.4414  0.0264  0.7354
 4533TIP3    H137794   1.365   2.219  18.045  0.2627 -0.8742 -0.6998
 4533TIP3    H237795   1.509   2.226  18.091 -0.2007  0.2695  0.6471
 4534TIP3   OH237796   0.457   6.104  18.237 -0.8904 -0.5521 -0.4056
 4534TIP3    H137797   0.442   6.013  18.209 -2.0122 -0.3409 -0.5425
 4534TIP3    H237798   0.468   6.098  18.332 -0.9491 -0.8388 -0.4157
 4535TIP3   OH237799   2.053   4.640  17.227 -0.1166 -0.3061  0.1860
 4535TIP3    H137800   2.138   4.667  17.261 -0.2734  1.3275 -0.6269
 4535TIP3    H237801   2.072   4.561  17.175  0.7832 -0.3438  0.5476
 4536TIP3   OH237802   3.171   3.450  19.337 -0.3567  0.3347 -0.3711
 4536TIP3    H137803   3.098   3.388  19.330  0.5139 -0.7731 -0.0077
 4536TIP3    H237804   3.241   3.411  19.284  0.5316  0.5070  0.6366
 4537TIP3   OH237805   0.734   2.244  18.590 -0.0469  0.0327  0.0627
 4537TIP3    H137806   0.786   2.168  18.564  0.5800  0.2270  0.7306
 4537TIP3    H237807   0.749   2.253  18.684 -0.5868  0.6290  0.1009
 4538TIP3   OH237808   1.003   3.942  16.936 -0.2571  0.1746  0.0855
 4538TIP3    H137809   0.910   3.931  16.956 -0.2113 -1.4372 -0.4814
 4538TIP3    H237810   1.004   3.981  16.848 -0.3998 -0.6342 -0.2809
 4539TIP3   OH237811   4.407   7.202  18.546  0.3994  0.3249  0.2505
 4539TIP3    H137812   4.365   7.193  18.461  0.7981 -0.0987  0.0944
 4539TIP3    H237813   4.430   7.113  18.572  1.8175  0.5872  0.0125
 4540TIP3   OH237814   2.563   4.575  18.178 -0.5381  0.3420  0.1125
 4540TIP3    H137815   2.503   4.585  18.105  1.0166  1.8185 -1.0436
 4540TIP3    H237816   2.560   4.482  18.199 -0.8096 -0.1961 -2.0729
 4541TIP3   OH237817   5.543   6.873  19.397  0.1293  0.2393  0.3839
 4541TIP3    H137818   5.509   6.791  19.362  2.9732 -0.6222 -0.5849
 4541TIP3    H237819   5.488   6.941  19.357 -2.3865 -1.0950  1.3328
 4542TIP3   OH237820   3.366   7.074  18.928 -0.1737 -0.0435 -0.3489
 4542TIP3    H137821   3.436   7.113  18.980  0.8162 -0.1730 -1.5434
 4542TIP3    H237822   3.375   6.980  18.944 -1.4358  0.0444  1.1312
 4543TIP3   OH237823   3.230   5.592  17.986  0.7526  0.7770 -0.1353
 4543TIP3    H137824   3.159   5.593  18.051  1.9254  0.6371  1.2169
 4543TIP3    H237825   3.310   5.600  18.039  2.0045 -2.7204 -1.2102
 4544TIP3   OH237826   6.439   5.830  18.192  0.3753  0.2125  0.0706
 4544TIP3    H137827   6.500   5.898  18.164  0.4394  0.5804  1.0371
 4544TIP3    H237828   6.390   5.871  18.263  1.3629 -1.1701  1.6363
 4545TIP3   OH237829   1.597   3.768  18.811  0.2988  0.1708 -0.4121
 4545TIP3    H137830   1.520   3.724  18.848  1.4264  0.0242  1.8798
 4545TIP3    H237831   1.630   3.823  18.881  2.3797  0.1340 -1.2892
 4546TIP3   OH237832   0.298   2.349  18.665 -0.4239  0.1711 -0.0546
 4546TIP3    H137833   0.260   2.436  18.650  1.3059  0.6524 -2.0809
 4546TIP3    H237834   0.329   2.352  18.755 -1.0132  1.3935  0.1343
 4547TIP3   OH237835   1.095   4.532  18.233  0.2577  0.3590 -0.6185
 4547TIP3    H137836   1.153   4.494  18.168  0.8169 -0.1897  0.1855
 4547TIP3    H237837   1.069   4.458  18.288  0.5218  0.9526  0.3275
 4548TIP3   OH237838   4.667   2.870  17.025 -0.4388 -0.4143  0.6492
 4548TIP3    H137839   4.687   2.959  17.054 -0.4665 -0.0853 -0.3098
 4548TIP3    H237840   4.748   2.821  17.040 -0.2247 -0.0763  0.6009
 4549TIP3   OH237841   0.035   0.472  18.630 -0.2344 -0.4640 -0.4725
 4549TIP3    H137842  -0.017   0.396  18.605 -1.1366 -0.1421  0.3708
 4549TIP3    H237843   0.111   0.435  18.675  0.4027 -0.9415 -1.8769
 4550TIP3   OH237844   4.180   5.710  16.557  0.2045 -0.2969 -0.6757
 4550TIP3    H137845   4.258   5.687  16.507  1.0721  1.2349 -0.0848
 4550TIP3    H237846   4.186   5.805  16.568 -0.0497 -0.5339  2.1777
 4551TIP3   OH237847   0.309   0.446  17.664 -0.1715  0.1094  0.1972
 4551TIP3    H137848   0.404   0.438  17.659  0.0280  1.5288  1.1829
 4551TIP3    H237849   0.279   0.423  17.576  0.8816 -2.2848  0.3920
 4552TIP3   OH237850   1.992   0.359  16.554  0.3225 -0.1089 -0.3039
 4552TIP3    H137851   1.915   0.399  16.513 -0.0633 -1.1818 -0.6856
 4552TIP3    H237852   2.031   0.307  16.484 -0.8873 -2.7591  0.8592
 4553TIP3   OH237853   6.636   5.713  17.033 -0.2852 -0.7032 -0.1495
 4553TIP3    H137854   6.626   5.789  16.977 -2.1891 -1.3708 -0.7889
 4553TIP3    H237855   6.632   5.638  16.973 -0.2245 -1.3532  0.6386
 4554TIP3   OH237856   2.092   1.357  18.539 -0.4627  0.1010 -0.3167
 4554TIP3    H137857   2.064   1.269  18.515  1.0491  0.0815 -2.2942
 4554TIP3    H237858   2.061   1.412  18.467  0.8904  0.7306 -0.4405
 4555TIP3   OH237859   0.989   2.071  18.966  0.3617 -0.0943  0.1153
 4555TIP3    H137860   1.067   2.047  18.916  2.2496  2.3203  1.6480
 4555TIP3    H237861   0.989   2.167  18.964 -1.9776 -0.0232  1.0958
 4556TIP3   OH237862   1.159   0.254  17.443  0.2593 -0.1529  0.0447
 4556TIP3    H137863   1.146   0.292  17.529 -0.9136  1.4564 -0.8001
 4556TIP3    H237864   1.253   0.232  17.440  0.6724  1.3207  1.1181
 4557TIP3   OH237865   0.620   4.098  16.677  0.1620  0.4202  0.9094
 4557TIP3    H137866   0.554   4.080  16.611  1.1547  0.4658 -0.1181
 4557TIP3    H237867   0.587   4.175  16.724  0.4708  1.7605 -0.9845
 4558TIP3   OH237868   6.637   6.818  17.274  0.2256  0.2336 -0.1484
 4558TIP3    H137869   6.578   6.803  17.200  1.1170  1.0788 -1.0806
 4558TIP3    H237870   6.722   6.834  17.233  1.2935 -1.6821  1.1818
 4559TIP3   OH237871   5.570   6.456  18.064 -0.6777  0.1034  0.0608
 4559TIP3    H137872   5.554   6.387  18.128 -1.4552  1.2997  1.2058
 4559TIP3    H237873   5.660   6.484  18.081 -0.7051  0.0592  0.2833
 4560TIP3   OH237874   2.912   5.354  17.521 -0.2580  0.1560  0.0785
 4560TIP3    H137875   2.902   5.447  17.504  1.0331 -0.0851 -2.3592
 4560TIP3    H237876   2.823   5.319  17.518 -0.8885  1.4140  2.1891
 4561TIP3   OH237877   2.127   0.947  19.153 -0.6749 -0.0216  0.4782
 4561TIP3    H137878   2.058   0.936  19.087 -1.9251  0.4469  1.6567
 4561TIP3    H237879   2.087   1.003  19.220  0.7255 -0.0766  1.3962
 4562TIP3   OH237880   1.900   1.454  18.389  0.1838  0.0092 -0.2030
 4562TIP3    H137881   1.842   1.530  18.390  2.2914  1.6920  1.3857
 4562TIP3    H237882   1.863   1.395  18.455 -0.7485  0.2086 -0.5313
 4563TIP3   OH237883   2.832   5.914  18.261 -0.1962  0.0372  0.6978
 4563TIP3    H137884   2.903   5.850  18.263 -0.4967 -0.3289 -0.0320
 4563TIP3    H237885   2.814   5.933  18.353  1.4543  0.8233  0.8864
 4564TIP3   OH237886   1.059   1.586  18.086  0.0184 -0.5372 -0.6164
 4564TIP3    H137887   1.126   1.571  18.020 -0.0773 -0.9955 -0.6149
 4564TIP3    H237888   1.062   1.508  18.142 -0.8565 -0.8115 -0.9225
 4565TIP3   OH237889   6.810   6.341  17.973  0.2801  0.0169 -0.2259
 4565TIP3    H137890   6.884   6.345  18.034 -0.9646  0.3351  1.3516
 4565TIP3    H237891   6.849   6.349  17.887  2.2377 -1.4111  0.4417
 4566TIP3   OH237892   1.536   1.147  18.911 -0.0165  0.1207  0.1322
 4566TIP3    H137893   1.457   1.193  18.881 -0.9781 -0.1937  2.0596
 4566TIP3    H237894   1.523   1.056  18.883 -0.2988  0.0897  0.3625
 4567TIP3   OH237895   6.356   0.806  18.195 -0.8524  0.5409 -0.3162
 4567TIP3    H137896   6.337   0.717  18.166 -0.9781  0.3854  0.2205
 4567TIP3    H237897   6.446   0.801  18.230 -0.7074  0.7198 -0.6617
 4568TIP3   OH237898   5.799   1.289  17.984 -0.5300 -0.0352  0.0915
 4568TIP3    H137899   5.803   1.199  18.017  0.2635  0.6515  2.0074
 4568TIP3    H237900   5.706   1.311  17.983 -0.5971 -0.0155  2.2348
 4569TIP3   OH237901   6.047   6.040  17.960  1.1513  0.0101 -0.1068
 4569TIP3    H137902   6.024   6.107  18.024  0.8991 -0.1687 -0.0126
 4569TIP3    H237903   6.135   6.011  17.987  1.2847  0.3404 -0.1820
 4570TIP3   OH237904   4.727   4.170  17.551 -0.0618 -0.3681 -0.1357
 4570TIP3    H137905   4.657   4.111  17.580 -0.8323  1.1097  1.1462
 4570TIP3    H237906   4.683   4.233  17.494  0.1750  0.5799  0.6959
 4571TIP3   OH237907   5.869   5.173  17.653 -0.1055  0.5082 -0.6452
 4571TIP3    H137908   5.837   5.263  17.648 -0.1677  0.4941 -0.5233
 4571TIP3    H237909   5.874   5.144  17.562 -1.0722  0.2919 -0.6471
 4572TIP3   OH237910   4.430   4.310  17.436  0.5163  0.0384 -0.2714
 4572TIP3    H137911   4.383   4.382  17.392  0.2071  0.8077  1.2328
 4572TIP3    H237912   4.417   4.327  17.530 -0.1099 -2.3626  0.1305
 4573TIP3   OH237913   5.346   3.174  17.450 -0.1954  0.2227  0.0856
 4573TIP3    H137914   5.378   3.136  17.532  1.5279  1.9107  0.2717
 4573TIP3    H237915   5.408   3.145  17.383 -0.3919  0.5324 -0.2387
 4574TIP3   OH237916   0.612   4.701  18.604 -0.0574 -0.2108 -0.7261
 4574TIP3    H137917   0.660   4.735  18.529  0.8464 -0.8100 -0.4312
 4574TIP3    H237918   0.670   4.714  18.679  0.5171 -2.6515 -0.6525
 4575TIP3   OH237919   4.174   5.976  18.149 -0.1517  0.7682 -0.0695
 4575TIP3    H137920   4.135   5.994  18.235  0.1399  1.1810 -0.0202
 4575TIP3    H237921   4.104   5.994  18.087 -1.7902 -3.4812  0.2144
 4576TIP3   OH237922   5.198   4.376  17.702 -0.2356 -0.0788 -0.1770
 4576TIP3    H137923   5.242   4.438  17.644 -0.1276 -2.0174 -2.2831
 4576TIP3    H237924   5.191   4.423  17.785  2.5987  1.6264 -0.7433
 4577TIP3   OH237925   6.726   7.614  18.177 -0.3971 -0.2018  0.3105
 4577TIP3    H137926   6.652   7.593  18.234 -0.5436  0.4530  0.3677
 4577TIP3    H237927   6.695   7.591  18.089 -0.0454 -1.5414  0.5158
 4578TIP3   OH237928   3.457   3.680  17.618  0.0732  0.1587  0.1841
 4578TIP3    H137929   3.495   3.597  17.589 -0.0099  0.6461 -1.3780
 4578TIP3    H237930   3.445   3.669  17.712  0.6897 -1.3517  0.1064
 4579TIP3   OH237931   7.661   6.935  18.842  0.3738  0.4271 -0.1927
 4579TIP3    H137932   7.678   7.026  18.816  0.6220 -0.1182 -2.1249
 4579TIP3    H237933   7.576   6.915  18.804  0.2681 -0.1160  0.3242
 4580TIP3   OH237934   1.829   0.892  17.519  0.2878  0.7808  0.9117
 4580TIP3    H137935   1.891   0.939  17.575  2.1093  1.0141 -1.1880
 4580TIP3    H237936   1.769   0.959  17.488  0.2646  0.9431  1.3019
 4581TIP3   OH237937   0.980   3.891  18.295  0.0559 -0.5953  0.3056
 4581TIP3    H137938   1.049   3.943  18.254 -0.7122  0.4057  0.2569
 4581TIP3    H237939   0.969   3.930  18.382  0.2119 -1.3683  0.6835
 4582TIP3   OH237940   0.363   4.976  18.864  0.5399 -0.1673 -0.0646
 4582TIP3    H137941   0.336   4.887  18.838  0.5966 -0.1390 -0.2255
 4582TIP3    H237942   0.281   5.021  18.882  0.5545 -0.5517  1.0246
 4583TIP3   OH237943   6.676   4.143  18.699  0.1815 -0.1391  0.1953
 4583TIP3    H137944   6.626   4.118  18.777  0.0043 -0.5387 -0.0461
 4583TIP3    H237945   6.693   4.236  18.712 -1.5919  0.2874 -0.2332
 4584TIP3   OH237946   4.137   1.086  18.294 -0.1411  0.0114  0.3572
 4584TIP3    H137947   4.149   1.071  18.200 -1.5171 -0.2746  0.2096
 4584TIP3    H237948   4.163   1.177  18.307 -0.9150  0.3729 -0.4978
 4585TIP3   OH237949   6.616   4.764  16.964 -0.0025  0.1996  0.0761
 4585TIP3    H137950   6.542   4.707  16.986  1.2017 -1.9031 -0.9638
 4585TIP3    H237951   6.584   4.817  16.891 -0.3058 -1.1869 -0.8370
 4586TIP3   OH237952   3.553   7.594  17.222  0.3638  0.4201 -0.5023
 4586TIP3    H137953   3.581   7.683  17.200  0.9401  0.6770  1.0783
 4586TIP3    H237954   3.561   7.545  17.141 -0.3929  1.9056 -1.5322
 4587TIP3   OH237955   4.809   3.821  17.924 -0.2341 -0.0211  0.6124
 4587TIP3    H137956   4.883   3.811  17.863 -1.7452 -1.3609 -1.1074
 4587TIP3    H237957   4.821   3.909  17.961  0.2865  1.2950 -2.3559
 4588TIP3   OH237958   4.160   2.794  18.482 -0.2772  0.3866 -0.6820
 4588TIP3    H137959   4.148   2.836  18.567  1.1223 -0.6175  0.0474
 4588TIP3    H237960   4.254   2.796  18.466 -0.3020 -1.2511 -1.2327
 4589TIP3   OH237961   3.349   2.698  17.260 -0.4270  0.4016 -0.2317
 4589TIP3    H137962   3.369   2.789  17.235  1.4977  0.3838  0.9982
 4589TIP3    H237963   3.284   2.669  17.195 -0.6952  2.4680 -0.9763
 4590TIP3   OH237964   4.440   2.833  19.255 -0.6312  0.1635  0.2877
 4590TIP3    H137965   4.419   2.746  19.291  0.3576 -0.1169  0.2187
 4590TIP3    H237966   4.454   2.888  19.333 -1.0343  0.2161  0.3292
 4591TIP3   OH237967   5.350   5.753  16.998 -0.5410 -0.4597  0.2152
 4591TIP3    H137968   5.263   5.768  16.961  0.0253  1.7127 -0.4034
 4591TIP3    H237969   5.381   5.673  16.955 -1.6199 -0.3868 -0.7408
 4592TIP3   OH237970   1.370   0.806  17.969 -0.5185  0.1620  0.0017
 4592TIP3    H137971   1.331   0.890  17.946  0.0801  0.1481 -1.0932
 4592TIP3    H237972   1.296   0.751  17.995 -0.9615  0.8649  0.2419
 4593TIP3   OH237973   0.523   2.912  16.449 -0.4664  0.0972 -0.3511
 4593TIP3    H137974   0.492   2.954  16.369 -0.4377  0.2122 -0.3023
 4593TIP3    H237975   0.445   2.903  16.503 -0.4715  0.0921 -0.3595
 4594TIP3   OH237976   0.942   6.105  19.228  0.3631  0.7031 -0.0664
 4594TIP3    H137977   0.936   6.116  19.133 -0.2288  0.1750 -0.0986
 4594TIP3    H237978   0.858   6.067  19.253 -0.4774  2.9988  0.9722
 4595TIP3   OH237979   1.347   6.336  16.704 -0.2476  0.3913  0.0884
 4595TIP3    H137980   1.357   6.241  16.711 -0.7659  0.3260  0.0470
 4595TIP3    H237981   1.266   6.355  16.752 -0.3189  0.7668 -0.1739
 4596TIP3   OH237982   2.380   5.511  17.435  0.4314 -0.4895  0.0725
 4596TIP3    H137983   2.375   5.460  17.354  0.7033  0.5295 -0.6027
 4596TIP3    H237984   2.404   5.447  17.502 -0.6090 -1.4962 -0.4850
 4597TIP3   OH237985   0.345   3.852  17.595  0.0200  0.2986 -0.1159
 4597TIP3    H137986   0.325   3.936  17.636 -1.1569 -0.3806  0.7566
 4597TIP3    H237987   0.276   3.839  17.530  1.2088  0.8099 -1.5527
 4598TIP3   OH237988   5.817   2.435  17.188 -0.0320  0.3685  0.1293
 4598TIP3    H137989   5.748   2.404  17.247 -0.5936  0.9917 -0.1863
 4598TIP3    H237990   5.778   2.432  17.101  1.1262 -1.5293 -0.3918
 4599TIP3   OH237991   5.791   0.415  17.337 -0.5014 -0.5014  0.3788
 4599TIP3    H137992   5.701   0.439  17.357 -0.8009 -1.3565  0.0925
 4599TIP3    H237993   5.844   0.465  17.400 -1.2254 -0.6619  1.1341
 4600TIP3   OH237994   6.784   6.094  19.298  0.0666 -0.7709  0.3119
 4600TIP3    H137995   6.833   6.037  19.238 -0.1855 -1.3262  0.6272
 4600TIP3    H237996   6.698   6.054  19.304 -0.0031 -0.5446  0.8083
 4601TIP3   OH237997   2.170   2.709  18.552  0.3299  0.1438 -0.4797
 4601TIP3    H137998   2.146   2.747  18.637 -0.7103 -1.6390  0.0742
 4601TIP3    H237999   2.180   2.616  18.569  2.4321  0.0484 -1.8711
 4602TIP3   OH238000   7.335   6.365  18.797  0.3510 -0.2183  0.1930
 4602TIP3    H138001   7.289   6.448  18.799  1.8199  0.6543 -0.4671
 4602TIP3    H238002   7.266   6.299  18.792 -0.8479  0.9338  0.8138
 4603TIP3   OH238003   4.741   1.646  17.060 -0.0444  0.6907  0.3047
 4603TIP3    H138004   4.730   1.741  17.050 -0.2120  0.5187 -1.4806
 4603TIP3    H238005   4.655   1.615  17.088 -0.9720  0.7343 -2.2509
 4604TIP3   OH238006   6.708   6.923  18.242 -0.3250 -0.2839  0.2139
 4604TIP3    H138007   6.674   7.004  18.280  2.1833  2.9242 -3.5641
 4604TIP3    H238008   6.664   6.916  18.157  0.4824 -2.1580 -0.0807
 4605TIP3   OH238009   4.809   1.234  18.129 -0.6111  0.2389 -0.1126
 4605TIP3    H138010   4.873   1.196  18.069  0.4423  2.3918 -0.4501
 4605TIP3    H238011   4.740   1.268  18.073 -0.2698  1.0815 -0.0419
 4606TIP3   OH238012   1.917   5.903  18.032 -0.1129  0.0180  0.1299
 4606TIP3    H138013   1.836   5.857  18.010 -0.0522  0.5132 -1.2263
 4606TIP3    H238014   1.974   5.886  17.957  1.3397 -0.9639  1.3860
 4607TIP3   OH238015   7.277   0.311  19.541 -0.1100 -0.1708  0.1828
 4607TIP3    H138016   7.280   0.216  19.531 -1.1568 -0.1168 -0.9206
 4607TIP3    H238017   7.193   0.337  19.502 -0.1678  1.1381  1.0900
 4608TIP3   OH238018   6.119   5.466  18.432  0.6633 -0.2826 -0.4359
 4608TIP3    H138019   6.037   5.469  18.480 -0.3269  1.2702 -2.0875
 4608TIP3    H238020   6.180   5.516  18.486  0.9038 -2.3049  1.3082
 4609TIP3   OH238021   0.248   6.442  18.678 -0.2033 -0.1067 -0.2089
 4609TIP3    H138022   0.308   6.511  18.708  1.1429 -0.3190 -2.2160
 4609TIP3    H238023   0.171   6.489  18.646  0.4482  0.4504 -1.0034
 4610TIP3   OH238024   0.396   6.481  18.401  0.5291  0.0631  0.1816
 4610TIP3    H138025   0.326   6.416  18.391  0.0834  0.6547 -0.7473
 4610TIP3    H238026   0.349   6.563  18.418  0.8596  0.7814 -2.0210
 4611TIP3   OH238027   7.175   3.944  16.685  0.4048  0.4460  0.1530
 4611TIP3    H138028   7.194   4.020  16.741  1.6893  1.0390 -1.0273
 4611TIP3    H238029   7.258   3.896  16.680  0.2227  0.2121 -0.9353
 4612TIP3   OH238030   0.962   2.840  17.656  0.1205 -0.3963 -0.2472
 4612TIP3    H138031   1.038   2.782  17.657 -0.3607 -1.0372  0.4928
 4612TIP3    H238032   0.998   2.928  17.661  0.8433 -0.6480 -0.8552
 4613TIP3   OH238033   3.848   2.521  17.509  0.0503  0.4666 -0.3385
 4613TIP3    H138034   3.834   2.433  17.544 -0.4930  0.4277 -0.6423
 4613TIP3    H238035   3.861   2.576  17.586 -2.8456  0.6929  0.0900
 4614TIP3   OH238036   2.340   1.671  18.974 -0.3061 -0.3293  0.0312
 4614TIP3    H138037   2.338   1.584  18.934 -0.3292  0.8379 -2.8078
 4614TIP3    H238038   2.433   1.690  18.986 -0.2924 -0.6410  0.4336
 4615TIP3   OH238039   7.170   0.511  18.364 -0.9331 -0.0848 -0.6785
 4615TIP3    H138040   7.079   0.509  18.393 -0.7982 -0.8298 -0.2619
 4615TIP3    H238041   7.198   0.419  18.368 -0.6463 -0.0905 -2.3638
 4616TIP3   OH238042   4.319   3.128  19.556 -0.0484  0.5379 -0.1121
 4616TIP3    H138043   4.303   3.033  19.549  2.3434 -0.1297  2.0512
 4616TIP3    H238044   4.414   3.136  19.546  0.1440  2.3587  2.4636
 4617TIP3   OH238045   5.143   0.919  17.564  0.1318 -0.3698 -0.0170
 4617TIP3    H138046   5.195   0.971  17.503 -0.9006 -0.1464 -0.7365
 4617TIP3    H238047   5.205   0.858  17.602  1.4181  1.4241  0.9222
 4618TIP3   OH238048   3.041   7.162  17.651  0.3258  0.3191  0.2956
 4618TIP3    H138049   3.017   7.074  17.623  2.7905 -0.1351 -0.5590
 4618TIP3    H238050   3.051   7.211  17.570 -0.7754  1.3763  0.7566
 4619TIP3   OH238051   5.941   0.515  17.551 -0.8435  0.2918  0.0209
 4619TIP3    H138052   6.011   0.580  17.537 -1.9218  1.0964 -2.1122
 4619TIP3    H238053   5.928   0.514  17.646  0.6084  1.6883  0.2793
 4620TIP3   OH238054   4.522   4.530  16.602  0.3279 -0.0848  0.3837
 4620TIP3    H138055   4.577   4.467  16.555  0.3430 -0.5171  0.9654
 4620TIP3    H238056   4.432   4.502  16.583  0.2958  0.6256 -0.5721
 4621TIP3   OH238057   6.930   6.823  17.405 -0.6406  0.1624 -0.7251
 4621TIP3    H138058   6.851   6.842  17.456 -0.5552 -0.3527 -0.4027
 4621TIP3    H238059   6.922   6.880  17.327 -1.2793  0.1796 -0.6519
 4622TIP3   OH238060   1.549   2.584  17.526 -0.1938  0.0809  0.3747
 4622TIP3    H138061   1.559   2.662  17.472 -2.2884 -0.6613 -1.2230
 4622TIP3    H238062   1.585   2.513  17.473 -0.5654 -0.3878  0.7400
 4623TIP3   OH238063   4.130   4.895  18.282  0.1444  0.4807 -0.9881
 4623TIP3    H138064   4.150   4.987  18.263 -2.0901  0.8382 -1.9447
 4623TIP3    H238065   4.143   4.850  18.199 -2.3421  0.6715 -1.5636
 4624TIP3   OH238066   1.332   5.189  17.761 -0.8779 -0.1544 -0.4653
 4624TIP3    H138067   1.243   5.156  17.776 -1.0354  0.6563  0.5367
 4624TIP3    H238068   1.318   5.271  17.713 -0.5547 -0.9676 -1.9856
 4625TIP3   OH238069   7.256   6.170  17.029  0.1952 -0.4179 -0.3672
 4625TIP3    H138070   7.230   6.231  16.959 -1.9909  0.9700  1.4971
 4625TIP3    H238071   7.227   6.084  16.998 -2.4530  0.4285 -0.4578
 4626TIP3   OH238072   6.492   5.068  17.431 -0.3898  0.0110  0.2735
 4626TIP3    H138073   6.453   4.981  17.424  0.0828 -0.2354  0.7296
 4626TIP3    H238074   6.553   5.073  17.357 -0.1073 -0.2072  0.4873
 4627TIP3   OH238075   6.320   5.647  19.012 -0.0321 -0.1363  0.3638
 4627TIP3    H138076   6.353   5.727  18.973 -1.4236 -0.2972 -1.2349
 4627TIP3    H238077   6.229   5.640  18.982 -0.7510 -1.0294  2.5069
 4628TIP3   OH238078   1.102   3.863  17.196 -0.6610 -0.0700 -0.2962
 4628TIP3    H138079   1.039   3.905  17.255 -1.2744 -1.3779  0.0166
 4628TIP3    H238080   1.076   3.892  17.109 -1.5450 -0.3836 -0.1442
 4629TIP3   OH238081   3.050   5.339  16.878 -0.0143  0.1265  0.2665
 4629TIP3    H138082   3.050   5.246  16.856  1.3020 -0.6759  3.0962
 4629TIP3    H238083   3.142   5.365  16.869 -0.2988  1.0286 -0.0747
 4630TIP3   OH238084   0.582   3.359  18.351  0.3104  0.1159  0.2045
 4630TIP3    H138085   0.639   3.343  18.276 -1.5661  1.6110 -1.6392
 4630TIP3    H238086   0.586   3.453  18.365 -2.0272  0.3714 -0.3531
 4631TIP3   OH238087   5.332   1.685  17.560 -0.7005 -0.3762  0.6821
 4631TIP3    H138088   5.330   1.760  17.500  1.4704 -0.9430 -0.2192
 4631TIP3    H238089   5.276   1.710  17.633 -1.3150  1.4420 -0.3608
 4632TIP3   OH238090   4.966   6.702  16.804 -0.1035 -0.1380 -0.6651
 4632TIP3    H138091   5.037   6.763  16.824 -0.5435 -0.1680  1.1962
 4632TIP3    H238092   4.893   6.733  16.857 -0.7856 -1.4257 -0.8179
 4633TIP3   OH238093   3.565   5.924  17.680  0.2269  0.2093 -0.1593
 4633TIP3    H138094   3.629   5.994  17.689  2.0730 -1.5714  1.5224
 4633TIP3    H238095   3.555   5.912  17.586  2.0748  0.8464 -0.4726
 4634TIP3   OH238096   4.976   7.023  17.048 -0.3830 -0.0340  0.0318
 4634TIP3    H138097   4.914   7.094  17.065 -0.5724 -0.5430  1.6154
 4634TIP3    H238098   5.038   7.060  16.985 -0.5993  1.4691  0.6551
 4635TIP3   OH238099   7.335   2.869  18.800 -0.0986 -0.0074 -0.5401
 4635TIP3    H138100   7.322   2.906  18.888 -0.2457  0.2820 -0.6845
 4635TIP3    H238101   7.312   2.939  18.740  1.7260  0.4100 -0.8217
 4636TIP3   OH238102   1.382   6.890  18.335 -0.4585  0.4142 -0.5270
 4636TIP3    H138103   1.396   6.908  18.242 -0.3454  0.3904 -0.5137
 4636TIP3    H238104   1.469   6.876  18.371 -0.1968  3.0228  0.1183
 4637TIP3   OH238105   5.495   6.776  18.597  0.4230  0.0274  0.5055
 4637TIP3    H138106   5.422   6.764  18.536  1.1782 -2.1968 -0.0765
 4637TIP3    H238107   5.570   6.795  18.540  0.6895  0.2536  0.9295
 4638TIP3   OH238108   4.455   4.511  18.145  0.0851 -0.1702 -0.1594
 4638TIP3    H138109   4.483   4.530  18.055 -0.5389  0.8032 -0.1680
 4638TIP3    H238110   4.486   4.585  18.196 -0.1652 -0.3817  0.3063
 4639TIP3   OH238111   0.303   4.504  18.382 -0.5190  0.2980 -0.0828
 4639TIP3    H138112   0.346   4.514  18.297 -1.1107  1.4307 -0.2682
 4639TIP3    H238113   0.367   4.535  18.445 -0.1323 -0.4090 -0.1117
 4640TIP3   OH238114   2.706   5.609  18.835  0.2855 -0.6525  0.4927
 4640TIP3    H138115   2.621   5.564  18.842 -0.0064 -0.2388 -0.2478
 4640TIP3    H238116   2.719   5.649  18.921 -2.2388  2.7005 -0.4767
 4641TIP3   OH238117   5.521   2.655  16.981  0.0371  0.0765 -0.1512
 4641TIP3    H138118   5.440   2.613  16.954  0.7077 -0.3380 -1.6095
 4641TIP3    H238119   5.590   2.598  16.947  0.9513  1.4670 -0.7178
 4642TIP3   OH238120   4.538   6.357  17.083 -0.1933  0.2346 -0.0921
 4642TIP3    H138121   4.491   6.408  17.016  1.7880 -0.0636 -1.8341
 4642TIP3    H238122   4.508   6.267  17.070  0.8317  0.0274 -1.2712
 4643TIP3   OH238123   1.354   2.472  17.651 -0.1468 -0.7334  0.0376
 4643TIP3    H138124   1.434   2.501  17.608  1.2531 -3.3888  0.5823
 4643TIP3    H238125   1.385   2.418  17.724 -2.4536 -0.7554  1.0734
 4644TIP3   OH238126   0.493   4.339  16.296 -0.2818  0.0263 -0.2646
 4644TIP3    H138127   0.493   4.286  16.216  0.5306  1.3066 -1.1401
 4644TIP3    H238128   0.578   4.383  16.296  1.5700 -2.9547  3.4002
 4645TIP3   OH238129   4.311   4.156  19.232 -0.6867 -0.1006  0.4104
 4645TIP3    H138130   4.369   4.227  19.259  1.0768 -0.6592 -1.5454
 4645TIP3    H238131   4.266   4.129  19.312  2.2865 -0.0619  2.2799
 4646TIP3   OH238132   0.107   5.217  18.171  0.1661 -0.3896  0.0228
 4646TIP3    H138133   0.109   5.201  18.077  2.1358 -1.7752  0.2391
 4646TIP3    H238134   0.063   5.140  18.208  1.0913 -0.7634  0.3638
 4647TIP3   OH238135   1.514   0.935  17.633  0.1440 -0.0801  0.2553
 4647TIP3    H138136   1.550   0.995  17.568  1.1581 -0.0084  0.8586
 4647TIP3    H238137   1.576   0.938  17.706 -1.8888  1.2704  2.0700
 4648TIP3   OH238138   4.893   7.278  18.905  0.4016 -0.6684 -0.4574
 4648TIP3    H138139   4.890   7.341  18.977  1.0086 -0.5024 -0.5747
 4648TIP3    H238140   4.808   7.287  18.862  1.1066  1.3607 -1.5587
 4649TIP3   OH238141   7.519   3.483  17.058 -0.1216  0.2184 -0.7105
 4649TIP3    H138142   7.554   3.492  17.147  1.4171 -1.6762 -1.0533
 4649TIP3    H238143   7.564   3.551  17.007  1.5427 -0.8178 -0.6881
 4650TIP3   OH238144   1.772   7.531  18.426  0.4876  0.2162 -0.3405
 4650TIP3    H138145   1.681   7.501  18.430  0.1887  1.1728  1.8682
 4650TIP3    H238146   1.770   7.606  18.367 -0.5236  1.2156  0.9057
 4651TIP3   OH238147   7.624   4.231  18.467  0.1750  0.4558 -0.6579
 4651TIP3    H138148   7.652   4.293  18.534 -1.6490  1.2508 -0.5636
 4651TIP3    H238149   7.681   4.250  18.392  1.4375  0.3708  0.2591
 4652TIP3   OH238150   2.045   6.321  18.796 -0.1757  0.2892  0.2066
 4652TIP3    H138151   2.044   6.229  18.768  2.0771 -0.8369  3.2754
 4652TIP3    H238152   2.036   6.317  18.891  1.5055  3.1332  0.6081
 4653TIP3   OH238153   0.283   1.060  18.641 -0.0689 -0.3569  0.1467
 4653TIP3    H138154   0.274   1.083  18.734 -0.4527 -0.3783  0.1146
 4653TIP3    H238155   0.374   1.081  18.620 -0.4254  1.2576  0.0831
 4654TIP3   OH238156   1.570   1.759  18.192  0.3081 -0.4083  0.2037
 4654TIP3    H138157   1.587   1.677  18.145  0.2462  0.6435 -1.7906
 4654TIP3    H238158   1.613   1.826  18.139 -0.8448  1.0138  0.9851
 4655TIP3   OH238159   5.901   3.690  17.946  0.0661 -0.1314  0.4107
 4655TIP3    H138160   5.956   3.705  18.023 -1.1495 -2.1656  1.7970
 4655TIP3    H238161   5.953   3.631  17.891 -0.4954 -1.8391  1.5951
 4656TIP3   OH238162   4.465   0.535  17.533  0.4773 -0.0794  0.0466
 4656TIP3    H138163   4.442   0.576  17.616  1.7443  0.2754  0.2515
 4656TIP3    H238164   4.550   0.493  17.551  0.7437 -0.0235 -1.0567
 4657TIP3   OH238165   6.544   5.226  17.910  0.3061  0.3960 -0.3759
 4657TIP3    H138166   6.454   5.198  17.893  0.3444 -0.6020  0.8997
 4657TIP3    H238167   6.563   5.290  17.841 -1.7645  1.5008  0.0174
 4658TIP3   OH238168   5.663   6.456  18.428 -0.0893 -0.1403  0.4785
 4658TIP3    H138169   5.570   6.454  18.403 -0.2027  0.4035  0.8384
 4658TIP3    H238170   5.688   6.364  18.434 -0.1059 -0.3068 -1.4253
 4659TIP3   OH238171   0.914   4.730  18.142  0.6177  0.1321  0.1111
 4659TIP3    H138172   0.951   4.655  18.189 -1.0553 -1.4790 -1.0311
 4659TIP3    H238173   0.965   4.735  18.061 -0.1841 -0.7293 -0.4723
 4660TIP3   OH238174   5.490   5.239  17.539  0.1407  0.4444  0.0333
 4660TIP3    H138175   5.522   5.224  17.450  0.0100  0.0307  0.0524
 4660TIP3    H238176   5.551   5.303  17.576 -1.7799  3.3508 -1.4863
 4661TIP3   OH238177   3.938   3.467  17.405  0.8438  0.2451 -0.9112
 4661TIP3    H138178   4.021   3.478  17.451  1.5735 -0.6795 -1.9521
 4661TIP3    H238179   3.945   3.525  17.330  0.4520  0.3371 -0.8765
 4662TIP3   OH238180   5.926   4.234  16.779  0.0672  0.0674  0.2889
 4662TIP3    H138181   5.879   4.153  16.757  0.3614  0.1026 -0.4895
 4662TIP3    H238182   6.017   4.214  16.760  0.0601  0.8007 -0.5594
 4663TIP3   OH238183   5.934   3.471  19.222  0.6764 -0.3774 -0.2720
 4663TIP3    H138184   5.932   3.564  19.199  0.5454 -0.0769  0.8896
 4663TIP3    H238185   6.022   3.457  19.257  0.8463 -0.8055 -0.8617
 4664TIP3   OH238186   1.224   3.889  17.667 -0.1994  0.8944 -0.6465
 4664TIP3    H138187   1.140   3.856  17.700 -0.7521  0.1251 -2.6186
 4664TIP3    H238188   1.289   3.832  17.708 -0.6706  1.1254  0.4668
 4665TIP3   OH238189   7.673   6.520  18.627  0.1845 -0.4338  0.2012
 4665TIP3    H138190   7.657   6.441  18.679  0.8327 -0.9947 -0.4323
 4665TIP3    H238191   7.591   6.534  18.580  0.4360 -1.4081 -0.5562
 4666TIP3   OH238192   4.638   7.267  16.581 -0.4150 -0.0691 -0.1305
 4666TIP3    H138193   4.645   7.327  16.507 -1.0473  0.4980  0.2570
 4666TIP3    H238194   4.572   7.202  16.553  0.3536 -0.6611 -0.5952
 4667TIP3   OH238195   6.290   7.285  17.992 -0.3741 -0.4534  0.3054
 4667TIP3    H138196   6.203   7.311  17.962 -1.4375 -0.6346  2.9335
 4667TIP3    H238197   6.326   7.233  17.920 -1.4726  1.4660 -1.7523
 4668TIP3   OH238198   6.779   3.821  17.988 -0.2978 -0.5995  0.3368
 4668TIP3    H138199   6.714   3.751  17.997 -1.0748  0.1827  0.9228
 4668TIP3    H238200   6.777   3.843  17.895 -0.9443 -0.5167  0.3649
 4669TIP3   OH238201   3.430   0.983  18.371  0.5021  0.0780  0.1157
 4669TIP3    H138202   3.441   1.068  18.328  2.3814  0.5087  1.3631
 4669TIP3    H238203   3.338   0.961  18.357 -0.2765  2.7617  0.5674
 4670TIP3   OH238204   2.683   3.259  17.908 -0.4119  0.5399 -0.4585
 4670TIP3    H138205   2.630   3.231  17.833 -1.7248  0.6864  0.3833
 4670TIP3    H238206   2.681   3.184  17.967  1.6167 -0.0343 -1.0467
 4671TIP3   OH238207   5.780   4.494  16.741 -0.4009 -0.3391  0.2310
 4671TIP3    H138208   5.828   4.411  16.738  0.7340  0.3206 -2.5879
 4671TIP3    H238209   5.689   4.470  16.726 -0.7314 -1.3436  3.1259
 4672TIP3   OH238210   0.201   4.442  18.753 -0.4978  0.6359 -0.3527
 4672TIP3    H138211   0.113   4.461  18.786 -1.2577 -0.9019 -1.3684
 4672TIP3    H238212   0.198   4.350  18.727  0.8715  1.0191 -2.0681
 4673TIP3   OH238213   0.908   6.540  18.142 -1.0114  0.2035  0.7286
 4673TIP3    H138214   0.889   6.521  18.050  0.0655  2.1393  0.0317
 4673TIP3    H238215   0.824   6.532  18.186 -1.5349 -0.8703 -0.4028
 4674TIP3   OH238216   5.973   6.826  17.570  0.4864  0.8519  0.1501
 4674TIP3    H138217   6.055   6.788  17.602  0.6113  1.0566  0.0767
 4674TIP3    H238218   5.930   6.755  17.524  1.4885  1.2076 -1.4441
 4675TIP3   OH238219   0.792   7.658  18.291 -0.4856 -0.0128 -0.1141
 4675TIP3    H138220   0.849   7.582  18.283 -0.0218  0.4716 -1.9530
 4675TIP3    H238221   0.805   7.690  18.380  0.5213 -1.1250  0.1537
 4676TIP3   OH238222   4.754   6.995  19.169 -0.3053 -0.3706 -0.7424
 4676TIP3    H138223   4.792   7.021  19.086  1.0348  0.2389  0.0355
 4676TIP3    H238224   4.660   7.014  19.160  0.0823  1.3432 -1.4874
 4677TIP3   OH238225   3.615   1.162  17.700  0.1535 -0.6161 -0.2074
 4677TIP3    H138226   3.561   1.230  17.740 -0.5642 -1.2014 -0.1503
 4677TIP3    H238227   3.684   1.209  17.655 -0.2522  0.1426 -0.0513
 4678TIP3   OH238228   2.604   2.459  18.323  0.4573  0.0343 -0.3593
 4678TIP3    H138229   2.627   2.415  18.242  0.7405  0.4278 -0.4971
 4678TIP3    H238230   2.681   2.448  18.379  0.6875  0.6912 -0.5381
 4679TIP3   OH238231   1.624   0.142  18.769  0.1692 -0.8723  0.4408
 4679TIP3    H138232   1.604   0.234  18.751  0.2778 -0.8405  0.4788
 4679TIP3    H238233   1.717   0.142  18.793  0.1734 -0.9943  0.4253
 4680TIP3   OH238234   6.466   5.108  18.190 -0.1071  0.2667 -0.1546
 4680TIP3    H138235   6.433   5.125  18.278  0.7074 -1.0458  0.4396
 4680TIP3    H238236   6.465   5.193  18.146  0.6675  1.1883  1.5323
 4681TIP3   OH238237   4.796   3.456  17.708  0.3924  0.4634  0.3294
 4681TIP3    H138238   4.848   3.410  17.642  0.1610 -1.1400  1.1898
 4681TIP3    H238239   4.723   3.397  17.726  0.6249  0.6871  2.2173
 4682TIP3   OH238240   3.994   1.590  16.326 -0.3388  0.0742 -0.6806
 4682TIP3    H138241   3.979   1.496  16.320  0.7783 -0.1462 -0.3027
 4682TIP3    H238242   4.057   1.600  16.398 -0.8402  1.1565 -0.3733
 4683TIP3   OH238243   0.324   0.408  18.766  0.4269  0.5014 -0.0242
 4683TIP3    H138244   0.402   0.443  18.810  1.0660  1.2239 -1.6426
 4683TIP3    H238245   0.358   0.367  18.686 -0.6957 -0.7322  0.1026
 4684TIP3   OH238246   5.741   0.740  18.188 -0.1175  0.1085  0.2879
 4684TIP3    H138247   5.648   0.729  18.209 -0.0986  0.5282  0.5987
 4684TIP3    H238248   5.783   0.664  18.228 -0.4803 -0.7625 -0.9294
 4685TIP3   OH238249   4.193   5.182  17.731  0.4453 -0.4126  0.6273
 4685TIP3    H138250   4.269   5.232  17.704 -0.2558 -0.0369 -0.7477
 4685TIP3    H238251   4.120   5.244  17.723 -0.2730 -1.3158 -0.0033
 4686TIP3   OH238252   1.263   3.583  16.815  0.4197 -0.2079 -0.4400
 4686TIP3    H138253   1.240   3.630  16.735 -0.1678  0.2304 -0.0208
 4686TIP3    H238254   1.221   3.498  16.806 -0.4654  0.1911 -0.1745
 4687TIP3   OH238255   2.640   2.293  17.388  0.0563 -0.3756 -0.3864
 4687TIP3    H138256   2.632   2.265  17.479  1.4868 -1.0641 -0.4507
 4687TIP3    H238257   2.602   2.221  17.337 -0.0514 -0.3324 -0.3666
 4688TIP3   OH238258   3.561   5.324  17.573  0.3020  0.1192 -0.3551
 4688TIP3    H138259   3.562   5.345  17.666  1.3623  0.0192 -0.3296
 4688TIP3    H238260   3.581   5.230  17.570  0.4374  0.1577 -0.6853
 4689TIP3   OH238261   0.948   3.246  18.973  1.2280 -0.3679 -0.4277
 4689TIP3    H138262   1.032   3.211  19.004  0.4345 -0.7818  1.3938
 4689TIP3    H238263   0.893   3.249  19.051 -0.4011  0.1016 -1.5392
 4690TIP3   OH238264   6.694   0.583  18.390  0.2150  0.3997  0.6899
 4690TIP3    H138265   6.667   0.662  18.437 -0.2936  0.0188  1.0600
 4690TIP3    H238266   6.737   0.529  18.457 -1.3962 -0.5811  0.9866
 4691TIP3   OH238267   2.910   4.940  18.257 -0.2786 -0.3493 -0.5433
 4691TIP3    H138268   2.828   4.896  18.234  1.5609 -4.1844 -0.4926
 4691TIP3    H238269   2.928   4.912  18.346  0.3282  1.8249  0.0761
 4692TIP3   OH238270   1.518   3.271  18.599  0.2764 -0.0109 -0.1081
 4692TIP3    H138271   1.463   3.205  18.641 -1.1628 -0.0837 -1.9928
 4692TIP3    H238272   1.543   3.231  18.515  0.0150  1.5354 -0.9452
 4693TIP3   OH238273   3.262   1.293  18.520  0.5545  0.7377  0.2127
 4693TIP3    H138274   3.167   1.302  18.519  0.2935 -1.5071 -0.4185
 4693TIP3    H238275   3.282   1.253  18.604  1.1989  2.8058  1.1274
 4694TIP3   OH238276   4.541   0.945  18.334  0.1456 -0.5010 -0.0841
 4694TIP3    H138277   4.450   0.915  18.327  0.4541 -1.4898 -0.0550
 4694TIP3    H238278   4.585   0.903  18.259  0.7848 -0.8563  0.4839
 4695TIP3   OH238279   1.687   4.986  18.531 -0.0911  0.8145 -0.9342
 4695TIP3    H138280   1.650   5.052  18.472  0.7388  0.1391 -2.2588
 4695TIP3    H238281   1.622   4.915  18.530 -1.4462  1.9240  1.2302
 4696TIP3   OH238282   7.421   2.389  16.466  0.5848  0.1062 -0.4620
 4696TIP3    H138283   7.486   2.459  16.473 -0.4211  1.0247 -0.0104
 4696TIP3    H238284   7.342   2.433  16.436  0.2155 -1.0329 -1.2262
 4697TIP3   OH238285   4.243   1.713  18.994 -1.5166 -0.3610  0.2817
 4697TIP3    H138286   4.300   1.653  19.042 -0.8330  0.1828  0.1691
 4697TIP3    H238287   4.154   1.685  19.016 -1.2098 -1.4694  0.1412
 4698TIP3   OH238288   4.465   0.726  18.674  0.0874  0.0902 -0.2893
 4698TIP3    H138289   4.406   0.764  18.609  0.0205  0.1082 -0.2183
 4698TIP3    H238290   4.409   0.673  18.730  0.0501  0.5202  0.0939
 4699TIP3   OH238291   5.933   3.272  19.020 -0.1726 -0.0201 -0.0170
 4699TIP3    H138292   5.929   3.324  19.100 -0.2637  0.4153 -0.3006
 4699TIP3    H238293   5.870   3.313  18.961  0.6873  0.3554 -0.7058
 4700TIP3   OH238294   6.078   7.393  18.936 -0.2457  0.1199 -0.2736
 4700TIP3    H138295   6.107   7.332  18.868  0.5589  2.0831 -1.7563
 4700TIP3    H238296   6.062   7.336  19.012  1.9981 -1.7866 -1.0725
 4701TIP3   OH238297   5.486   1.943  18.506  0.3736 -0.1137  0.0708
 4701TIP3    H138298   5.570   1.899  18.517 -0.2590 -1.0494  1.4260
 4701TIP3    H238299   5.423   1.872  18.493 -0.2352  0.5712 -0.8214
 4702TIP3   OH238300   3.954   6.063  17.954  0.4795 -0.2816  0.2819
 4702TIP3    H138301   3.942   6.130  18.021  0.6673 -1.5784  1.6561
 4702TIP3    H238302   3.884   6.079  17.891 -0.0010  0.6607  1.0358
 4703TIP3   OH238303   6.429   4.058  17.883 -0.1259  0.5187 -0.0956
 4703TIP3    H138304   6.413   4.151  17.867  0.8996  0.8813  0.8655
 4703TIP3    H238305   6.507   4.056  17.938  1.1669 -1.0036 -1.8294
 4704TIP3   OH238306   0.880   5.118  19.449 -0.1092  0.5280  0.3511
 4704TIP3    H138307   0.791   5.105  19.417  0.2135  1.1813 -0.8486
 4704TIP3    H238308   0.878   5.204  19.491 -0.0296  0.5641  0.2808
 4705TIP3   OH238309   4.568   1.579  19.262  0.5905  0.4554  0.5150
 4705TIP3    H138310   4.566   1.665  19.221  1.0621  0.3907  0.3512
 4705TIP3    H238311   4.661   1.556  19.265  0.4267 -0.2763  0.0760
 4706TIP3   OH238312   3.763   3.262  16.980  0.0777  0.8186 -0.3293
 4706TIP3    H138313   3.789   3.290  16.893 -0.6795  1.3110 -0.4082
 4706TIP3    H238314   3.763   3.166  16.976 -3.4305  0.7473 -1.9949
 4707TIP3   OH238315   1.777   5.980  17.346  0.0697  0.2075 -0.5884
 4707TIP3    H138316   1.734   5.925  17.411  0.6397 -1.4301 -1.5268
 4707TIP3    H238317   1.871   5.962  17.357  0.4489  2.3471  0.2284
 4708TIP3   OH238318   2.304   5.634  18.667 -0.3034 -0.4973 -0.0262
 4708TIP3    H138319   2.374   5.632  18.732 -0.4370 -1.6968  0.1139
 4708TIP3    H238320   2.236   5.577  18.703 -0.6231 -0.7253 -0.9538
 4709TIP3   OH238321   0.278   5.303  19.063  0.2288  1.1748  0.4284
 4709TIP3    H138322   0.273   5.332  18.972  1.1757  0.6693  0.1957
 4709TIP3    H238323   0.191   5.321  19.099 -0.9969 -0.8901 -1.2576
 4710TIP3   OH238324   4.502   2.425  17.786 -0.0082 -0.5992  0.1753
 4710TIP3    H138325   4.493   2.504  17.732  0.7108 -0.5796  0.0789
 4710TIP3    H238326   4.517   2.354  17.723 -1.5343 -0.9805  0.1951
 4711TIP3   OH238327   6.673   2.472  17.307 -0.5758 -0.5159  0.1061
 4711TIP3    H138328   6.744   2.529  17.336  1.6594 -2.6125 -0.8610
 4711TIP3    H238329   6.715   2.386  17.296 -2.6731 -1.3083 -2.9683
 4712TIP3   OH238330   1.362   2.250  16.365  0.9794  0.0900 -0.1400
 4712TIP3    H138331   1.433   2.312  16.381  2.7272 -1.3546 -1.8023
 4712TIP3    H238332   1.349   2.252  16.270 -0.7610 -0.2130  0.0504
 4713TIP3   OH238333   6.141   3.449  17.883  0.3381 -0.8745  0.0056
 4713TIP3    H138334   6.088   3.432  17.805  2.1151 -1.9307 -1.0450
 4713TIP3    H238335   6.098   3.399  17.953 -2.1043  1.2337  0.1313
 4714TIP3   OH238336   2.312   3.981  18.061 -0.3357 -0.6561 -0.1165
 4714TIP3    H138337   2.388   4.039  18.067 -0.7034 -0.2225  0.6417
 4714TIP3    H238338   2.301   3.964  17.968 -0.6527  1.0910 -0.4215
 4715TIP3   OH238339   6.825   5.396  16.926 -0.5652 -0.3012 -0.9242
 4715TIP3    H138340   6.743   5.373  16.882 -0.8515 -1.3836  0.1169
 4715TIP3    H238341   6.892   5.345  16.881 -0.4353  0.5669 -1.7612
 4716TIP3   OH238342   6.108   3.122  17.892  0.2942  0.3532 -0.5240
 4716TIP3    H138343   6.128   3.029  17.886  1.0047  0.4312  0.3326
 4716TIP3    H238344   6.165   3.154  17.963 -2.4455  0.7055  1.6960
 4717TIP3   OH238345   0.458   6.607  17.139  0.1583  0.2261 -0.3960
 4717TIP3    H138346   0.429   6.659  17.065  0.1855  1.3789  0.3824
 4717TIP3    H238347   0.463   6.668  17.212  2.3228 -0.3861  0.0571
 4718TIP3   OH238348   2.837   5.896  17.859  0.6893 -0.2647  0.2701
 4718TIP3    H138349   2.909   5.899  17.795 -0.4258  0.3198 -0.9862
 4718TIP3    H238350   2.761   5.871  17.808 -0.2511  0.2725  1.3757
 4719TIP3   OH238351   5.016   6.604  19.259  0.2554 -0.4177  0.2279
 4719TIP3    H138352   4.964   6.526  19.246 -0.0669 -0.2219  0.3313
 4719TIP3    H238353   4.954   6.670  19.290  0.5277 -0.1314  0.1778
 4720TIP3   OH238354   6.290   7.179  19.079  0.2340 -0.5734  0.1786
 4720TIP3    H138355   6.361   7.217  19.130 -0.1916 -0.0009  0.3506
 4720TIP3    H238356   6.211   7.203  19.127 -0.1736 -0.0274 -0.7618
 4721TIP3   OH238357   7.048   6.717  16.723 -0.0867  0.1195  0.7592
 4721TIP3    H138358   6.964   6.726  16.677  0.5842  1.3395 -0.3038
 4721TIP3    H238359   7.080   6.631  16.699  0.1195  0.6247 -0.8948
 4722TIP3   OH238360   2.248   2.302  19.201  0.3037 -0.2956 -0.5236
 4722TIP3    H138361   2.291   2.230  19.247 -2.1214 -1.0841  0.6811
 4722TIP3    H238362   2.307   2.376  19.212  1.3761 -1.3147  0.9876
 4723TIP3   OH238363   2.468   4.122  19.396  0.0007 -0.0965  0.3494
 4723TIP3    H138364   2.541   4.178  19.424  1.2184 -1.5934  0.2701
 4723TIP3    H238365   2.439   4.160  19.313 -0.1273  1.2248  0.9751
 4724TIP3   OH238366   4.431   5.695  16.782  0.2681 -0.3175  0.3512
 4724TIP3    H138367   4.456   5.622  16.725  0.7597 -0.7181  1.0635
 4724TIP3    H238368   4.437   5.773  16.726  0.5874 -0.7219 -0.1806
 4725TIP3   OH238369   3.878   6.045  17.527 -0.4771  0.7175  0.0395
 4725TIP3    H138370   3.967   6.065  17.557 -0.0581  1.0592 -1.3766
 4725TIP3    H238371   3.885   6.041  17.432 -1.5931 -1.2282 -0.0062
 4726TIP3   OH238372   6.296   1.867  19.415  0.2573 -0.4295 -0.4860
 4726TIP3    H138373   6.362   1.799  19.424 -0.8272 -1.5028 -0.3801
 4726TIP3    H238374   6.323   1.917  19.338  2.4637  0.6529  0.9010
 4727TIP3   OH238375   1.647   2.709  17.757 -0.0008  0.4162  0.3826
 4727TIP3    H138376   1.621   2.621  17.729 -0.6163  0.5833  0.4001
 4727TIP3    H238377   1.736   2.699  17.789  0.6815  0.2084 -1.5106
 4728TIP3   OH238378   2.714   6.568  18.236  0.0587  0.3908  0.0289
 4728TIP3    H138379   2.782   6.573  18.304  0.4698 -1.3164 -0.2032
 4728TIP3    H238380   2.641   6.524  18.278  0.3738 -0.8241 -0.6392
 4729TIP3   OH238381   3.484   4.166  17.889 -0.6310 -0.7394  0.0813
 4729TIP3    H138382   3.547   4.235  17.907  0.6669 -2.0831  1.0092
 4729TIP3    H238383   3.498   4.144  17.797 -0.6467 -0.1627 -0.0633
 4730TIP3   OH238384   0.308   5.467  17.105  0.2918  0.6168 -0.5149
 4730TIP3    H138385   0.226   5.510  17.128 -1.1736 -2.1616 -0.0009
 4730TIP3    H238386   0.334   5.506  17.022 -1.8038  1.2805 -0.9193
 4731TIP3   OH238387   1.925   6.217  17.811  0.0647 -0.3705 -0.0202
 4731TIP3    H138388   1.845   6.265  17.834 -0.9044 -1.8926 -0.0223
 4731TIP3    H238389   1.996   6.273  17.840 -0.9787  1.4187 -0.7790
 4732TIP3   OH238390   3.044   2.234  18.127 -0.0019  0.0306  0.2183
 4732TIP3    H138391   2.956   2.270  18.118  0.3897  0.5582 -2.3938
 4732TIP3    H238392   3.035   2.161  18.187 -2.0861  0.4754  0.5119
 4733TIP3   OH238393   0.232   2.309  17.942 -0.0293  0.3370  0.4347
 4733TIP3    H138394   0.275   2.231  17.908 -1.7744 -0.8273  0.7474
 4733TIP3    H238395   0.292   2.343  18.008  0.2458 -1.4672  1.1637
 4734TIP3   OH238396   5.895   5.468  17.782  0.3786  0.1894 -0.4061
 4734TIP3    H138397   5.895   5.398  17.846 -0.5663  1.7680  1.4262
 4734TIP3    H238398   5.853   5.542  17.827  0.5898  1.6852 -2.5062
 4735TIP3   OH238399   5.335   3.116  18.986  0.3214  0.3089 -0.0751
 4735TIP3    H138400   5.369   3.128  19.075 -0.0972 -0.7114  0.2343
 4735TIP3    H238401   5.359   3.026  18.963 -0.4919  0.2168 -0.5956
 4736TIP3   OH238402   4.701   5.836  16.578  0.2138 -0.3312  0.3853
 4736TIP3    H138403   4.776   5.794  16.620  1.2773  2.4894  1.6267
 4736TIP3    H238404   4.740   5.889  16.509 -1.1990 -2.2398 -2.0007
 4737TIP3   OH238405   4.918   4.375  17.643 -0.3293  0.1941 -0.0541
 4737TIP3    H138406   4.872   4.311  17.587  0.7613 -0.3134 -0.3899
 4737TIP3    H238407   5.010   4.352  17.634  0.0426  1.5637  0.1716
 4738TIP3   OH238408   0.633   2.340  16.593 -0.2589 -0.1963  0.4860
 4738TIP3    H138409   0.723   2.362  16.569 -0.2950 -0.6442 -0.0944
 4738TIP3    H238410   0.579   2.404  16.546 -0.3054 -0.7975 -0.3147
 4739TIP3   OH238411   6.063   0.969  19.271 -0.6717 -0.7234  0.0039
 4739TIP3    H138412   6.097   1.053  19.302 -0.7191 -0.6803 -0.0596
 4739TIP3    H238413   5.982   0.992  19.225  1.4329 -0.2117 -3.8961
 4740TIP3   OH238414   5.210   3.334  17.906 -0.0402  0.3576  0.2779
 4740TIP3    H138415   5.217   3.306  17.815  2.4282  1.7731 -0.0427
 4740TIP3    H238416   5.141   3.400  17.906 -1.0573 -0.6655 -0.2414
 4741TIP3   OH238417   4.933   0.217  18.599  0.8284  0.9847  0.6311
 4741TIP3    H138418   4.939   0.311  18.585  2.4158  0.7406 -0.7052
 4741TIP3    H238419   4.974   0.179  18.521  0.0334 -0.8229  1.0392
 4742TIP3   OH238420   2.721   3.069  17.601 -0.3254  0.6741 -0.0072
 4742TIP3    H138421   2.630   3.087  17.622 -0.6576  0.3449 -1.0912
 4742TIP3    H238422   2.723   2.974  17.584  0.3511  0.5631  0.6291
 4743TIP3   OH238423   4.196   3.370  19.566 -0.4522 -0.0453  0.2999
 4743TIP3    H138424   4.109   3.381  19.529 -0.8641  0.2756  1.3177
 4743TIP3    H238425   4.212   3.275  19.562 -1.4006 -0.2630  1.2895
 4744TIP3   OH238426   5.238   6.607  19.430 -0.0594 -0.2890 -0.0301
 4744TIP3    H138427   5.257   6.678  19.368  2.0654 -2.3871 -2.0219
 4744TIP3    H238428   5.167   6.558  19.389 -0.1284 -0.4560  0.2903
 4745TIP3   OH238429   4.284   3.083  18.678 -0.1026  0.0187 -0.5374
 4745TIP3    H138430   4.262   3.171  18.707  0.0485  0.0977 -0.6668
 4745TIP3    H238431   4.355   3.055  18.736 -1.9731 -1.0746  1.3573
 4746TIP3   OH238432   5.783   3.485  18.144 -0.3250 -0.5996 -0.2326
 4746TIP3    H138433   5.802   3.487  18.238 -0.6655 -0.7880 -0.1589
 4746TIP3    H238434   5.804   3.574  18.113  1.8039 -1.1000 -0.3890
 4747TIP3   OH238435   3.203   0.072  18.116  0.1355  0.5160 -0.3042
 4747TIP3    H138436   3.147   0.001  18.148  1.3380 -0.4326 -0.2348
 4747TIP3    H238437   3.269   0.028  18.062  0.8871  1.5888 -0.2927
 4748TIP3   OH238438   3.666   0.500  18.310  0.5048  0.2103  0.0452
 4748TIP3    H138439   3.746   0.464  18.349  0.0884 -0.6944  0.0730
 4748TIP3    H238440   3.630   0.557  18.378 -0.2587 -1.4115  1.0639
 4749TIP3   OH238441   5.571   4.080  19.019 -0.3662  0.2283  0.7885
 4749TIP3    H138442   5.489   4.098  19.065  0.0655  1.0522  1.2540
 4749TIP3    H238443   5.635   4.139  19.060  0.7824 -1.3566  1.3992
 4750TIP3   OH238444   6.364   1.282  18.180  0.3696  0.4474  0.0901
 4750TIP3    H138445   6.322   1.293  18.095  0.9248 -0.5028 -0.3252
 4750TIP3    H238446   6.302   1.227  18.230  0.6788 -0.1776 -0.2005
 4751TIP3   OH238447   3.009   1.760  18.451  0.1865 -0.5746  0.3771
 4751TIP3    H138448   2.953   1.691  18.415 -0.0729 -0.3320  0.3084
 4751TIP3    H238449   3.050   1.719  18.528 -1.6786 -0.1497  1.6869
 4752TIP3   OH238450   6.690   5.116  17.186  0.1099  0.0575 -0.6429
 4752TIP3    H138451   6.678   5.159  17.101  1.0796  0.5755 -0.5251
 4752TIP3    H238452   6.740   5.037  17.166  1.3814  0.7805 -0.4253
 4753TIP3   OH238453   0.725   3.877  16.821  0.4938 -0.0536  0.1676
 4753TIP3    H138454   0.654   3.876  16.885 -0.5754 -0.0636 -0.9856
 4753TIP3    H238455   0.707   3.954  16.767 -0.6169 -1.8988 -2.2713
 4754TIP3   OH238456   5.760   4.964  18.421 -0.1439 -0.1785  0.5469
 4754TIP3    H138457   5.771   4.876  18.385  1.6957  0.1579  0.2134
 4754TIP3    H238458   5.747   5.019  18.344  1.3293  0.1864  0.5304
 4755TIP3   OH238459   0.990   7.080  16.867  0.1352 -0.0865  0.1263
 4755TIP3    H138460   1.032   7.061  16.783  0.0257 -0.9268  0.2480
 4755TIP3    H238461   1.033   7.020  16.929 -1.8456 -1.6471  0.0835
 4756TIP3   OH238462   1.686   1.337  17.793 -0.4630  0.2190 -0.0984
 4756TIP3    H138463   1.768   1.334  17.743  0.1834  1.9475  0.7738
 4756TIP3    H238464   1.627   1.390  17.739 -0.7024 -0.2397 -0.2926
 4757TIP3   OH238465   1.256   7.315  17.266  0.1338 -0.1685 -0.2988
 4757TIP3    H138466   1.281   7.237  17.315 -2.4828 -1.9798 -1.5928
 4757TIP3    H238467   1.244   7.284  17.176  0.3327  2.0444 -1.1448
 4758TIP3   OH238468   5.820   7.494  16.770 -0.0777 -0.0540  0.0885
 4758TIP3    H138469   5.906   7.531  16.792 -1.3011  2.5825  0.7905
 4758TIP3    H238470   5.806   7.426  16.836  1.0003  0.2285  0.6305
 4759TIP3   OH238471   3.907   2.831  17.585 -0.7314  0.1451 -0.2650
 4759TIP3    H138472   3.876   2.768  17.651 -1.2280  0.0568 -0.5776
 4759TIP3    H238473   3.957   2.778  17.523  0.2731  0.3263  0.3750
 4760TIP3   OH238474   3.184   5.445  18.245 -0.2247  0.2898 -0.5273
 4760TIP3    H138475   3.218   5.407  18.164 -0.4664  1.5082 -1.2329
 4760TIP3    H238476   3.126   5.377  18.281  1.2471 -0.9617 -0.4188
 4761TIP3   OH238477   2.910   1.037  16.751  0.3436 -0.1673 -0.5546
 4761TIP3    H138478   2.899   0.976  16.678 -3.2514 -0.4539  0.0438
 4761TIP3    H238479   2.894   1.123  16.712  0.2989 -0.1295 -0.4534
 4762TIP3   OH238480   7.247   7.320  18.585  0.8413 -0.3233  0.4974
 4762TIP3    H138481   7.182   7.322  18.656  1.8361 -1.0095  1.4489
 4762TIP3    H238482   7.328   7.350  18.626  1.1503  0.4960 -0.6752
 4763TIP3   OH238483   0.167   6.836  17.117 -0.3245  0.4009 -0.2221
 4763TIP3    H138484   0.231   6.865  17.052  0.4420 -1.1434 -0.2019
 4763TIP3    H238485   0.134   6.753  17.083 -0.2743 -0.1949  1.1154
 4764TIP3   OH238486   3.238   5.511  19.205 -0.0982 -0.3975  0.1898
 4764TIP3    H138487   3.183   5.588  19.216 -0.4334 -0.3939 -1.2582
 4764TIP3    H238488   3.328   5.545  19.207 -0.2669  0.2797 -1.8553
 4765TIP3   OH238489   0.385   7.525  17.498 -0.0371  0.8127 -0.1877
 4765TIP3    H138490   0.365   7.551  17.408  1.4600 -0.3427 -0.8889
 4765TIP3    H238491   0.478   7.546  17.509  0.3502 -1.0108  0.3433
 4766TIP3   OH238492   4.379   3.518  18.697 -0.2783 -0.3172 -0.2452
 4766TIP3    H138493   4.459   3.480  18.662  0.2897 -0.6099  1.2730
 4766TIP3    H238494   4.399   3.611  18.708  0.4730 -0.6430  1.6099
 4767TIP3   OH238495   4.665   2.091  16.770  0.4598 -0.1691 -0.4720
 4767TIP3    H138496   4.756   2.070  16.790  0.0167 -0.6978  1.1910
 4767TIP3    H238497   4.662   2.187  16.771  1.0522 -0.1402 -0.8411
 4768TIP3   OH238498   0.475   5.906  19.161 -0.1172 -0.1912 -0.0529
 4768TIP3    H138499   0.500   5.878  19.073  0.9644 -1.3070  0.5749
 4768TIP3    H238500   0.557   5.931  19.203 -0.6929  0.9375  0.4564
 4769TIP3   OH238501   5.123   5.133  18.726 -0.6851 -0.1893  0.2657
 4769TIP3    H138502   5.183   5.204  18.706  0.2319 -0.7460  0.9411
 4769TIP3    H238503   5.036   5.173  18.725 -0.1852  0.9406  0.6375
 4770TIP3   OH238504   0.652   7.409  16.730 -0.3226 -0.4530 -0.0707
 4770TIP3    H138505   0.561   7.437  16.722 -0.5765 -1.1438  0.3076
 4770TIP3    H238506   0.647   7.315  16.748  0.4930 -0.6557 -0.8533
 4771TIP3   OH238507   1.984   1.869  19.186 -0.2821 -0.3352 -0.4758
 4771TIP3    H138508   1.939   1.788  19.212 -1.4219 -0.8346 -3.5172
 4771TIP3    H238509   2.003   1.856  19.093  0.8975  2.3167 -0.6790
 4772TIP3   OH238510   6.592   4.971  17.976 -0.0207  0.6376  0.1812
 4772TIP3    H138511   6.568   5.044  18.034  1.1752  0.2749  1.1865
 4772TIP3    H238512   6.619   5.013  17.894 -0.0372  1.2815  0.4985
 4773TIP3   OH238513   0.668   7.462  17.473  0.2603 -0.0320 -0.2391
 4773TIP3    H138514   0.741   7.418  17.516  1.6207  0.1026 -2.2249
 4773TIP3    H238515   0.621   7.392  17.428 -0.5760 -0.0534  0.6407
 4774TIP3   OH238516   0.075   4.712  17.965 -0.0825 -0.3556  0.2761
 4774TIP3    H138517  -0.020   4.701  17.966  0.0537 -1.8640 -0.3841
 4774TIP3    H238518   0.096   4.751  18.049 -1.2060 -0.8555  0.8020
 4775TIP3   OH238519   3.944   6.263  18.475  0.0246 -0.0170 -0.1039
 4775TIP3    H138520   3.955   6.339  18.533 -0.4780  0.4255 -0.5694
 4775TIP3    H238521   3.873   6.213  18.515  1.0070 -0.7659  0.7300
 4776TIP3   OH238522   3.920   2.036  17.906 -0.5112 -0.5192 -0.3845
 4776TIP3    H138523   3.875   2.120  17.919 -0.1965 -0.3959 -0.0720
 4776TIP3    H238524   3.995   2.040  17.965  2.8487  1.3701 -4.2869
 4777TIP3   OH238525   4.975   2.307  17.492 -0.5190 -0.0593 -0.0118
 4777TIP3    H138526   4.886   2.297  17.526 -1.0204 -0.5563 -1.4028
 4777TIP3    H238527   4.986   2.401  17.479 -0.0774  0.2122  2.0701
 4778TIP3   OH238528   2.478   3.492  17.456  0.2302  0.2997  0.1303
 4778TIP3    H138529   2.392   3.465  17.491  0.5317 -1.4893 -0.4206
 4778TIP3    H238530   2.488   3.583  17.486 -1.5621  0.3370  0.7586
 4779TIP3   OH238531   6.931   1.563  17.073  0.5481  0.2617  0.3532
 4779TIP3    H138532   6.892   1.545  16.988  1.5715  0.2628 -0.1313
 4779TIP3    H238533   6.950   1.657  17.071  1.0429  0.1670  0.3669
 4780TIP3   OH238534   0.428   4.145  16.455  0.7043  0.9606  0.1439
 4780TIP3    H138535   0.332   4.149  16.461  0.1491 -1.7473 -3.3973
 4780TIP3    H238536   0.451   4.213  16.392  1.1383  1.5022  0.8747
 4781TIP3   OH238537   0.468   2.357  17.633 -0.3002  0.6506 -0.0432
 4781TIP3    H138538   0.440   2.267  17.652  3.5843 -1.2010 -1.9687
 4781TIP3    H238539   0.532   2.377  17.701  0.5770  0.9509 -0.9285
 4782TIP3   OH238540   0.664   6.331  17.531  0.4094 -0.7411 -0.0166
 4782TIP3    H138541   0.753   6.357  17.554  1.3255 -2.6384 -1.2255
 4782TIP3    H238542   0.624   6.307  17.615  0.2916  1.9944  0.8201
 4783TIP3   OH238543   2.130   0.016  17.978 -0.1161  0.4658 -0.2410
 4783TIP3    H138544   2.190  -0.019  17.912 -0.9826 -0.0829 -0.7527
 4783TIP3    H238545   2.069   0.071  17.928 -0.9890 -0.2266  0.0441
 4784TIP3   OH238546   0.661   3.980  17.578  0.2662  0.2654  0.2571
 4784TIP3    H138547   0.739   3.972  17.523 -1.6485  3.6687 -3.5150
 4784TIP3    H238548   0.600   3.914  17.544  0.2184  0.1438  0.5780
 4785TIP3   OH238549   2.547   3.116  18.997  0.1264 -0.5557  0.6258
 4785TIP3    H138550   2.497   3.035  18.986  2.7277 -2.2778  0.5830
 4785TIP3    H238551   2.568   3.143  18.908 -0.3749 -0.0691  0.6548
 4786TIP3   OH238552   1.345   0.620  18.442 -0.4000  0.2930  0.3341
 4786TIP3    H138553   1.350   0.621  18.347 -1.0801 -0.5369  0.2752
 4786TIP3    H238554   1.298   0.701  18.465 -1.6236 -0.2544 -0.1502
 4787TIP3   OH238555   3.041   0.642  18.120 -0.0417  0.9162  0.2381
 4787TIP3    H138556   3.015   0.591  18.197 -2.2543  0.6320 -0.6132
 4787TIP3    H238557   3.134   0.623  18.108  0.0733  0.0780  2.1571
 4788TIP3   OH238558   5.014   2.454  18.884 -0.3349  0.0677  0.1654
 4788TIP3    H138559   5.086   2.458  18.821  0.0669  0.8060  0.6550
 4788TIP3    H238560   4.935   2.450  18.831  0.0849 -2.0212 -0.4106
 4789TIP3   OH238561   3.680   2.054  16.576  0.4692  0.0857 -0.7155
 4789TIP3    H138562   3.731   2.106  16.637 -0.2224  0.9360 -0.8437
 4789TIP3    H238563   3.612   2.013  16.630 -0.8258  1.7061 -1.0197
 4790TIP3   OH238564   4.088   7.587  18.822 -0.8280  0.3356  0.1435
 4790TIP3    H138565   4.100   7.669  18.773  1.6892  0.2418  0.5019
 4790TIP3    H238566   4.084   7.615  18.913  0.1640  0.0851  0.2768
 4791TIP3   OH238567   1.518   1.382  17.488  0.3706 -0.3599 -0.2718
 4791TIP3    H138568   1.434   1.344  17.463  0.0935  1.1380 -1.8147
 4791TIP3    H238569   1.527   1.459  17.431  2.3101  0.0956  0.5814
 4792TIP3   OH238570   6.323   0.980  18.559  0.1938 -0.0333 -0.2044
 4792TIP3    H138571   6.373   0.969  18.640  0.6654  1.2145 -0.3172
 4792TIP3    H238572   6.390   0.989  18.491 -0.1795 -1.8822 -0.8986
 4793TIP3   OH238573   6.607   5.057  17.693  0.3204 -0.1307 -0.4984
 4793TIP3    H138574   6.553   5.079  17.617 -0.4009 -0.8574 -0.2091
 4793TIP3    H238575   6.697   5.062  17.660  0.0094 -0.6122 -1.4524
 4794TIP3   OH238576   6.634   1.242  18.706 -0.0377  0.3735 -0.1208
 4794TIP3    H138577   6.575   1.286  18.644  0.0728  0.6188 -0.0532
 4794TIP3    H238578   6.575   1.205  18.772 -0.3363 -1.7493 -1.4829
 4795TIP3   OH238579   1.415   0.465  17.374 -0.0377  0.5217 -0.3743
 4795TIP3    H138580   1.465   0.492  17.297 -0.4355 -0.7503 -1.1208
 4795TIP3    H238581   1.443   0.524  17.444  1.4037  0.7810 -1.1406
 4796TIP3   OH238582   6.752   1.505  18.724  0.0320  0.5877 -0.4206
 4796TIP3    H138583   6.758   1.539  18.635 -1.9592  1.6410 -0.2098
 4796TIP3    H238584   6.731   1.413  18.713  0.7586  0.4819 -1.0199
 4797TIP3   OH238585   7.105   5.102  18.033  0.4077  0.4405 -0.6152
 4797TIP3    H138586   7.105   5.017  17.990 -0.4112 -1.2658  2.4658
 4797TIP3    H238587   7.031   5.149  17.994  0.8638 -0.2194 -2.3429
 4798TIP3   OH238588   3.218   7.576  19.105 -0.2263 -0.0132  0.3041
 4798TIP3    H138589   3.151   7.631  19.145 -1.2700 -1.0602  0.0661
 4798TIP3    H238590   3.203   7.489  19.142 -0.9645 -0.9255 -1.9368
 4799TIP3   OH238591   5.761   4.992  19.000  0.6492  0.3074  0.2659
 4799TIP3    H138592   5.786   4.911  18.957 -0.4216 -0.2980  0.7421
 4799TIP3    H238593   5.697   5.032  18.940  0.3258  0.2362  0.5621
 4800TIP3   OH238594   2.940   1.572  18.856 -0.1420 -0.3888 -0.5247
 4800TIP3    H138595   2.935   1.573  18.761 -0.2323 -2.9387 -0.5929
 4800TIP3    H238596   2.880   1.503  18.884  1.5186 -1.2386  1.2158
 4801TIP3   OH238597   7.509   1.848  18.070 -0.4933  1.0998 -0.8507
 4801TIP3    H138598   7.603   1.848  18.086 -0.5669  1.7373 -0.3163
 4801TIP3    H238599   7.473   1.791  18.138 -0.3657 -0.4438 -2.0521
 4802TIP3   OH238600   7.506   7.507  17.768 -0.3851  0.7955  0.0844
 4802TIP3    H138601   7.529   7.521  17.860  0.1013 -0.5631  0.1880
 4802TIP3    H238602   7.426   7.454  17.771  0.4256 -0.4916 -0.2466
 4803TIP3   OH238603   2.742   2.291  18.777  0.5064 -0.4890  0.2874
 4803TIP3    H138604   2.817   2.342  18.746  0.7909 -0.8587  0.3520
 4803TIP3    H238605   2.669   2.353  18.778  0.4758 -0.4612 -1.1185
 4804TIP3   OH238606   1.156   5.291  16.681 -0.0434 -0.0458 -0.1690
 4804TIP3    H138607   1.099   5.214  16.685  0.4323 -0.3613  0.9636
 4804TIP3    H238608   1.128   5.345  16.755 -0.6360  1.0849 -1.1778
 4805TIP3   OH238609   4.052   5.679  17.616 -0.2131 -0.5196 -0.1139
 4805TIP3    H138610   4.046   5.742  17.688 -1.7467  1.5834 -1.9358
 4805TIP3    H238611   4.125   5.623  17.640 -0.8879 -0.2240  3.2568
 4806TIP3   OH238612   7.138   6.621  17.683  0.3736  0.0051  0.7598
 4806TIP3    H138613   7.100   6.562  17.748 -0.8465 -0.0756 -0.0043
 4806TIP3    H238614   7.218   6.653  17.724  0.8650 -1.8663  1.3498
 4807TIP3   OH238615   3.160   7.039  16.683  0.1290  0.1250  0.6153
 4807TIP3    H138616   3.073   7.059  16.717 -0.1400 -1.3339  0.8370
 4807TIP3    H238617   3.187   6.961  16.731  1.0026 -0.2076 -0.3919
 4808TIP3   OH238618   3.169   1.277  17.492  0.1104  0.0851 -0.5972
 4808TIP3    H138619   3.100   1.302  17.431 -1.3761 -1.2900  0.4475
 4808TIP3    H238620   3.135   1.300  17.578  0.4439 -1.6369  0.0363
 4809TIP3   OH238621   2.655   5.730  18.147  0.1192 -0.4009  0.3320
 4809TIP3    H138622   2.599   5.720  18.224 -0.2567 -0.2609  0.0802
 4809TIP3    H238623   2.701   5.813  18.161 -1.7927  0.8949 -0.7447
 4810TIP3   OH238624   1.942   6.685  18.429 -0.1456 -0.2117  0.4174
 4810TIP3    H138625   1.947   6.667  18.523  0.4092  1.4758  0.7541
 4810TIP3    H238626   2.011   6.749  18.414 -1.8781  1.5047 -0.6464
 4811TIP3   OH238627   3.314   1.729  17.714 -0.2022  0.0698 -0.4029
 4811TIP3    H138628   3.250   1.799  17.727  1.6484  2.4158 -2.7740
 4811TIP3    H238629   3.382   1.748  17.779 -0.2042 -0.1946 -0.3253
 4812TIP3   OH238630   4.949   5.789  17.902 -0.1309 -0.1305 -0.2040
 4812TIP3    H138631   4.864   5.801  17.859 -0.1113 -1.7435 -0.7480
 4812TIP3    H238632   4.929   5.797  17.995 -0.2512  2.9335 -0.3979
 4813TIP3   OH238633   7.395   5.767  17.640 -0.3857 -0.1679 -0.2146
 4813TIP3    H138634   7.435   5.700  17.584 -1.5244  0.7419 -2.2293
 4813TIP3    H238635   7.469   5.811  17.681  0.4306 -1.8238  0.1848
 4814TIP3   OH238636   4.946   4.005  17.256  0.4572 -0.3608  0.3644
 4814TIP3    H138637   4.995   4.086  17.263 -0.0838 -0.0319  0.4115
 4814TIP3    H238638   4.854   4.032  17.255  0.2599 -0.6548 -3.1421
 4815TIP3   OH238639   2.186   3.055  18.733 -0.4803 -0.3836  0.1499
 4815TIP3    H138640   2.140   3.106  18.800  0.3930  0.0490  0.4361
 4815TIP3    H238641   2.162   2.964  18.752  0.6402 -0.3798  1.7913
 4816TIP3   OH238642   3.328   5.079  17.405 -0.0937 -0.2322 -0.1134
 4816TIP3    H138643   3.408   5.055  17.452 -0.1148  1.7584  1.0432
 4816TIP3    H238644   3.257   5.052  17.463 -0.1416  1.3977  0.6262
 4817TIP3   OH238645   2.141   6.900  17.964 -0.3847  0.2752 -0.3590
 4817TIP3    H138646   2.234   6.892  17.944  0.6937  0.4468  3.5885
 4817TIP3    H238647   2.112   6.810  17.981 -0.6305  0.3404 -0.4228
 4818TIP3   OH238648   4.693   2.158  17.056 -0.1730  0.0897 -0.4925
 4818TIP3    H138649   4.779   2.135  17.020 -0.1941  1.8272 -1.7534
 4818TIP3    H238650   4.703   2.247  17.089 -1.0154 -0.3643  1.0891
 4819TIP3   OH238651   3.877   2.016  18.935 -0.0508  0.2155 -0.1608
 4819TIP3    H138652   3.853   1.992  19.025  1.6079  2.6923  1.0788
 4819TIP3    H238653   3.931   1.942  18.905 -1.0075 -0.8659  0.6603
 4820TIP3   OH238654   0.301   5.642  18.384  0.0583  0.2719 -0.2590
 4820TIP3    H138655   0.267   5.710  18.442 -0.4915 -0.3332  0.1438
 4820TIP3    H238656   0.316   5.566  18.441  1.3734  0.2853 -0.5727
 4821TIP3   OH238657   4.761   1.151  17.380  0.0068  0.2122 -0.2228
 4821TIP3    H138658   4.832   1.213  17.360  0.1540 -0.2495 -1.1962
 4821TIP3    H238659   4.743   1.108  17.296  0.2369 -1.4169  0.5305
 4822TIP3   OH238660   0.496   6.338  19.329  0.3218  0.0359 -0.2977
 4822TIP3    H138661   0.509   6.389  19.249 -0.2050 -0.6653 -0.8482
 4822TIP3    H238662   0.413   6.369  19.364 -0.8596 -1.5416 -1.5351
 4823TIP3   OH238663   2.803   4.603  18.659 -0.0664  0.0610 -0.3770
 4823TIP3    H138664   2.883   4.654  18.671 -1.0317  1.3181  1.2369
 4823TIP3    H238665   2.775   4.580  18.748 -0.9865 -1.1741 -0.9515
 4824TIP3   OH238666   4.757   2.451  19.025 -0.2181 -0.4823 -0.3261
 4824TIP3    H138667   4.800   2.467  18.941 -0.0357 -1.8372 -0.5036
 4824TIP3    H238668   4.690   2.520  19.030 -0.9067 -0.9583 -2.0478
 4825TIP3   OH238669   7.540   2.398  17.577 -0.2082 -0.3680  0.2032
 4825TIP3    H138670   7.496   2.449  17.644  1.2579  4.2162 -1.9310
 4825TIP3    H238671   7.631   2.391  17.608 -0.1238 -0.6178 -0.0956
 4826TIP3   OH238672   4.693   1.772  17.786  0.0428 -0.3646 -0.3858
 4826TIP3    H138673   4.602   1.794  17.809  0.2501  0.1674 -0.0731
 4826TIP3    H238674   4.690   1.757  17.691 -0.4365 -0.6895 -0.3267
 4827TIP3   OH238675   5.407   0.100  18.095 -0.1664  0.2077  0.6814
 4827TIP3    H138676   5.497   0.081  18.119 -0.3678  0.9364  2.1542
 4827TIP3    H238677   5.355   0.039  18.146 -0.5138 -0.4633 -0.4413
 4828TIP3   OH238678   4.084   4.641  16.523  0.2835 -0.4150  0.5250
 4828TIP3    H138679   4.165   4.691  16.514  0.5712 -1.1023 -0.9907
 4828TIP3    H238680   4.113   4.550  16.536 -0.0251 -1.5834 -4.8640
 4829TIP3   OH238681   7.049   0.262  19.029  0.8040 -0.0231  0.3848
 4829TIP3    H138682   6.969   0.260  18.977  0.1345  0.1855  1.3771
 4829TIP3    H238683   7.120   0.262  18.964  0.0024  0.4047 -0.5170
 4830TIP3   OH238684   7.449   6.568  16.821  0.1711  0.1767 -0.0513
 4830TIP3    H138685   7.422   6.482  16.787  1.8126 -0.6595  0.6292
 4830TIP3    H238686   7.465   6.553  16.914  0.2062  1.3117  0.1422
 4831TIP3   OH238687   5.960   7.133  19.512 -0.5313 -0.0469 -0.1336
 4831TIP3    H138688   5.906   7.207  19.482  0.7974  1.9563  2.0326
 4831TIP3    H238689   5.910   7.095  19.584  0.3281  1.0278  1.0621
 4832TIP3   OH238690   1.490   2.899  17.117 -0.3611 -0.3862  0.2198
 4832TIP3    H138691   1.414   2.941  17.155 -0.1872 -0.3856  0.5732
 4832TIP3    H238692   1.522   2.840  17.186 -1.4599 -2.2304 -0.7438
 4833TIP3   OH238693   1.697   7.405  16.565  0.2697  0.1536  0.7407
 4833TIP3    H138694   1.699   7.490  16.522  2.1362  0.7221  1.8185
 4833TIP3    H238695   1.630   7.414  16.632  1.6279  1.4519  2.0142
 4834TIP3   OH238696   2.953   4.045  18.689 -0.0268  0.0989 -0.7489
 4834TIP3    H138697   3.003   3.974  18.649 -1.9872 -1.0525 -1.2917
 4834TIP3    H238698   2.943   4.018  18.781  1.0307  0.7551 -0.4239
 4835TIP3   OH238699   0.492   6.640  16.784 -0.3620 -0.2000 -0.0313
 4835TIP3    H138700   0.405   6.616  16.752 -1.0711  2.5364 -0.4324
 4835TIP3    H238701   0.545   6.562  16.769 -3.0483 -2.5964  1.7624
 4836TIP3   OH238702   4.736   5.433  18.073  0.2879  0.1225 -0.0501
 4836TIP3    H138703   4.692   5.421  17.989  0.7327  1.4098 -0.5037
 4836TIP3    H238704   4.811   5.373  18.069 -1.2044 -1.8748  0.6206
 4837TIP3   OH238705   6.992   4.401  18.852  0.8789  0.0354  0.0736
 4837TIP3    H138706   7.080   4.373  18.878  0.4016 -1.0913  0.5484
 4837TIP3    H238707   6.934   4.358  18.915  0.0605  1.8644  0.6325
 4838TIP3   OH238708   0.492   5.198  16.853  0.1527  0.0022  0.7792
 4838TIP3    H138709   0.448   5.208  16.937 -0.3542  1.1242  0.3903
 4838TIP3    H238710   0.426   5.220  16.788  1.1089  1.2271  0.1726
 4839TIP3   OH238711   4.013   2.948  17.819  0.0791 -0.3564 -0.3356
 4839TIP3    H138712   4.071   2.888  17.866  1.3053  0.4976 -0.7103
 4839TIP3    H238713   4.001   2.908  17.733  0.9868 -0.0190 -0.6247
 4840TIP3   OH238714   1.096   7.030  18.658 -0.9119 -0.3041 -0.1786
 4840TIP3    H138715   1.071   7.066  18.573 -0.0298  0.0574 -0.2902
 4840TIP3    H238716   1.065   7.094  18.721 -1.4270 -0.4976 -0.2215
 4841TIP3   OH238717   5.363   1.506  19.145 -0.3392 -0.3299  0.4497
 4841TIP3    H138718   5.445   1.555  19.157 -0.7978  0.6637 -0.4138
 4841TIP3    H238719   5.391   1.415  19.136  0.7701  0.1012 -0.7831
 4842TIP3   OH238720   2.908   2.286  17.552 -0.5051 -0.3401 -0.0087
 4842TIP3    H138721   2.895   2.376  17.581  1.5046  0.2883 -0.8350
 4842TIP3    H238722   2.937   2.240  17.630 -2.4984 -0.5612  0.6502
 4843TIP3   OH238723   5.462   2.538  18.514 -0.5414 -0.0098  0.3334
 4843TIP3    H138724   5.508   2.622  18.516 -0.3205 -0.1399  0.8765
 4843TIP3    H238725   5.462   2.508  18.605  0.4843 -1.1918 -0.0127
 4844TIP3   OH238726   1.317   6.018  17.037  0.2366 -0.2088 -0.3219
 4844TIP3    H138727   1.244   5.955  17.031 -0.0549 -0.1557  1.9019
 4844TIP3    H238728   1.335   6.042  16.946 -1.7638 -1.0928 -1.0144
 4845TIP3   OH238729   4.620   5.429  18.311 -0.4824  0.0965  0.0097
 4845TIP3    H138730   4.665   5.463  18.234 -1.2943  1.0307 -0.0692
 4845TIP3    H238731   4.680   5.363  18.347  0.7584  1.0092 -0.3150
 4846TIP3   OH238732   4.901   6.579  18.290 -0.5530 -0.4863  0.2558
 4846TIP3    H138733   4.941   6.510  18.237 -0.2043  2.0077 -3.0403
 4846TIP3    H238734   4.808   6.557  18.292 -0.2527 -1.7991  0.5721
 4847TIP3   OH238735   0.680   3.851  18.505 -0.3935  0.4034  0.4514
 4847TIP3    H138736   0.618   3.912  18.463  1.8029  1.1527 -1.9908
 4847TIP3    H238737   0.737   3.908  18.557  1.0772  0.4454 -1.0907
 4848TIP3   OH238738   2.970   3.460  18.828 -0.6445 -0.7096 -0.5497
 4848TIP3    H138739   2.908   3.480  18.898 -0.5809  2.4846 -1.2502
 4848TIP3    H238740   3.051   3.437  18.873 -0.2694  2.3664  0.6331
 4849TIP3   OH238741   5.134   3.191  18.614  0.0322 -0.1687 -0.3908
 4849TIP3    H138742   5.077   3.174  18.539 -3.3939  4.4265  0.6957
 4849TIP3    H238743   5.095   3.142  18.686  0.6830 -1.0780 -0.6306
 4850TIP3   OH238744   2.528   0.324  17.855 -0.0307  0.2492 -0.2870
 4850TIP3    H138745   2.584   0.388  17.899  0.3316  0.5870 -1.2208
 4850TIP3    H238746   2.508   0.260  17.923  2.2092 -0.3669 -0.1316
 4851TIP3   OH238747   4.840   2.042  17.794 -0.2583  0.6630  0.7031
 4851TIP3    H138748   4.785   2.082  17.727  0.7182  2.7474  1.0635
 4851TIP3    H238749   4.802   1.955  17.807 -1.8109  1.0277 -0.9409
 4852TIP3   OH238750   4.065   3.913  18.916 -0.2799 -0.3527  0.1390
 4852TIP3    H138751   3.984   3.911  18.866  0.1220  0.6201 -0.5708
 4852TIP3    H238752   4.049   3.855  18.990 -1.5597 -0.3104 -0.0891
 4853TIP3   OH238753   1.133   5.064  18.666 -0.5569 -0.8723 -0.4544
 4853TIP3    H138754   1.145   5.059  18.761  1.9759  2.5649 -0.4442
 4853TIP3    H238755   1.202   5.008  18.631 -2.0234 -2.8396 -0.3919
 4854TIP3   OH238756   5.748   0.214  16.959  0.1076  0.0594 -0.0386
 4854TIP3    H138757   5.734   0.304  16.931  1.6401  0.6507  1.0202
 4854TIP3    H238758   5.805   0.176  16.892  1.1788  0.5259  0.5884
 4855TIP3   OH238759   7.112   0.236  17.391 -0.1582  0.1868 -0.5109
 4855TIP3    H138760   7.155   0.286  17.461  1.8894 -1.0839 -0.7724
 4855TIP3    H238761   7.109   0.297  17.317 -0.4610  0.8686  0.0392
 4856TIP3   OH238762   1.207   0.708  17.571  0.2690  0.1881 -0.3650
 4856TIP3    H138763   1.298   0.700  17.542 -0.2599 -0.0020 -2.1027
 4856TIP3    H238764   1.185   0.800  17.555  0.3823  0.4427  0.8439
 4857TIP3   OH238765   4.427   7.088  17.066 -0.7185 -0.6764  0.1489
 4857TIP3    H138766   4.486   7.064  17.136 -0.3823 -1.4095 -0.3796
 4857TIP3    H238767   4.347   7.116  17.110 -0.1081  0.0047  0.8516
 4858TIP3   OH238768   1.204   4.884  16.081 -0.0701 -0.0764 -0.4111
 4858TIP3    H138769   1.154   4.807  16.053 -0.4251 -0.0761  0.2060
 4858TIP3    H238770   1.250   4.855  16.160  0.5024  0.0796 -0.6851
 4859TIP3   OH238771   7.314   6.219  17.378 -0.7521  0.5590 -0.3392
 4859TIP3    H138772   7.309   6.142  17.434  0.2750  1.5769  1.2668
 4859TIP3    H238773   7.264   6.286  17.426  0.5340  1.5866 -0.3832
 4860TIP3   OH238774   3.531   1.787  18.837 -0.0755 -0.2419  0.2680
 4860TIP3    H138775   3.557   1.852  18.772  1.6579  0.6462  1.7531
 4860TIP3    H238776   3.561   1.703  18.802  0.2706  0.1346 -0.3439
 4861TIP3   OH238777   2.670   6.158  19.297 -0.3358  0.4261 -0.2835
 4861TIP3    H138778   2.576   6.143  19.283 -0.5687  0.0327  1.4695
 4861TIP3    H238779   2.684   6.248  19.267 -1.2971  0.5374 -0.4374
 4862TIP3   OH238780   0.000   1.302  18.203  0.1753 -0.5827  0.1005
 4862TIP3    H138781  -0.076   1.336  18.156  1.6519  1.5168 -0.9060
 4862TIP3    H238782  -0.015   1.207  18.206 -3.0180 -0.1667  1.0065
 4863TIP3   OH238783   5.597   2.023  19.021  0.0490  0.0410 -0.3945
 4863TIP3    H138784   5.539   2.004  18.947 -1.5699  0.6474  0.6637
 4863TIP3    H238785   5.626   2.113  19.007  0.4689 -0.1392 -0.7293
 4864TIP3   OH238786   1.947   3.451  17.602 -0.7366  0.4337 -0.1091
 4864TIP3    H138787   1.927   3.407  17.685 -0.9403 -0.3673 -0.5749
 4864TIP3    H238788   1.861   3.471  17.565 -0.6838 -1.0617 -1.0930
 4865TIP3   OH238789   5.636   2.337  17.391 -0.0068 -0.1495  0.1779
 4865TIP3    H138790   5.617   2.311  17.481 -1.4073 -0.9032 -0.3025
 4865TIP3    H238791   5.576   2.409  17.373  1.2180  0.9272  0.2625
 4866TIP3   OH238792   6.176   7.207  19.390  0.1747  0.1953 -0.4959
 4866TIP3    H138793   6.100   7.160  19.426  1.1364 -0.0736  1.3438
 4866TIP3    H238794   6.233   7.220  19.466  1.1054  2.0995 -1.4568
 4867TIP3   OH238795   2.783   2.117  16.799 -0.0612  0.0265  0.0321
 4867TIP3    H138796   2.866   2.071  16.806  0.5013  1.1666  1.2300
 4867TIP3    H238797   2.720   2.061  16.845  0.3847 -0.0541  0.5404
 4868TIP3   OH238798   1.836   6.246  17.444 -0.0168  0.1362 -0.3982
 4868TIP3    H138799   1.825   6.157  17.477  1.4332 -0.2839 -0.9593
 4868TIP3    H238800   1.921   6.245  17.399 -0.9284  1.2274 -2.3027
 4869TIP3   OH238801   6.717   2.324  17.736 -0.0023  0.3105  0.4887
 4869TIP3    H138802   6.696   2.361  17.822 -2.1519  2.3002 -0.7846
 4869TIP3    H238803   6.785   2.381  17.701 -1.2712  1.3668 -0.3121
 4870TIP3   OH238804   0.559   2.603  16.445  0.3103 -0.2011  0.4363
 4870TIP3    H138805   0.653   2.605  16.427  0.1007  2.3096 -0.7920
 4870TIP3    H238806   0.537   2.693  16.468 -1.7552 -0.8086  1.0773
 4871TIP3   OH238807   1.749   3.350  18.751  0.4688  0.0677 -0.1310
 4871TIP3    H138808   1.720   3.395  18.830  2.1671 -1.2071  1.3037
 4871TIP3    H238809   1.671   3.307  18.717 -0.3392  0.8647  0.6790
 4872TIP3   OH238810   2.599   0.815  18.549  0.0269  0.1492  0.5074
 4872TIP3    H138811   2.521   0.763  18.568  0.9291 -2.5669 -2.2678
 4872TIP3    H238812   2.567   0.891  18.501 -0.9451 -1.9468 -2.4412
 4873TIP3   OH238813   2.539   4.179  17.083  0.1383 -0.4460  0.6371
 4873TIP3    H138814   2.480   4.248  17.115  2.1640  0.2226  3.3496
 4873TIP3    H238815   2.563   4.207  16.995  0.3337  2.0044  1.3970
 4874TIP3   OH238816   6.959   4.963  18.331  0.0065  0.0213 -0.1751
 4874TIP3    H138817   6.938   4.872  18.310  0.0399  0.0541 -0.3577
 4874TIP3    H238818   7.049   4.974  18.299 -0.0598  0.1679 -0.3123
 4875TIP3   OH238819   6.462   1.819  18.393  0.3468 -0.3181  0.2569
 4875TIP3    H138820   6.479   1.773  18.475 -1.4312 -1.1318  0.2199
 4875TIP3    H238821   6.414   1.755  18.340  0.5973  0.5339 -1.0264
 4876TIP3   OH238822   4.068   5.749  18.768 -0.1503  0.2771  0.6184
 4876TIP3    H138823   4.029   5.765  18.683 -1.0386  0.9960  1.1372
 4876TIP3    H238824   4.006   5.692  18.813  0.4389 -0.3094  0.6947
 4877TIP3   OH238825   1.974   0.448  17.929 -0.0640 -0.4563 -0.6948
 4877TIP3    H138826   1.952   0.395  17.852 -1.3407 -0.7491 -0.1425
 4877TIP3    H238827   2.069   0.441  17.936 -0.1466 -2.2794 -0.9292
 4878TIP3   OH238828   7.510   0.992  18.477 -0.3745 -0.2500  0.1572
 4878TIP3    H138829   7.533   0.926  18.541 -0.4405 -1.8833 -1.4311
 4878TIP3    H238830   7.589   1.045  18.467  0.1324 -0.9386  0.4479
 4879TIP3   OH238831   1.308   3.456  18.219 -0.0324  0.1877  0.7744
 4879TIP3    H138832   1.305   3.396  18.145  0.6603  1.1757 -0.0908
 4879TIP3    H238833   1.283   3.403  18.294 -1.8510 -0.6005 -0.3083
 4880TIP3   OH238834   1.200   2.090  17.207  0.1463 -0.2378 -0.8572
 4880TIP3    H138835   1.139   2.088  17.280  1.2707 -0.8745  0.1096
 4880TIP3    H238836   1.272   2.146  17.237  0.9271 -1.0349 -1.1917
 4881TIP3   OH238837   2.796   0.673  18.396  0.3304  0.0643  0.4190
 4881TIP3    H138838   2.777   0.579  18.386  1.3593 -0.0635 -0.5738
 4881TIP3    H238839   2.721   0.708  18.444 -1.4466 -0.7419 -1.6072
 4882TIP3   OH238840   6.918   3.828  17.146  0.1881 -0.5668  0.6047
 4882TIP3    H138841   6.918   3.918  17.114  0.0072 -0.2322  1.5179
 4882TIP3    H238842   6.988   3.785  17.096  0.8554  0.3061  0.7649
 4883TIP3   OH238843   4.933   6.396  16.907  0.1703  0.2015  0.1966
 4883TIP3    H138844   4.922   6.472  16.850 -0.0268  0.1686  0.1900
 4883TIP3    H238845   4.899   6.424  16.992  1.6376  0.6832  0.6639
 4884TIP3   OH238846   3.177   4.100  16.913 -0.3971  0.2121  0.1421
 4884TIP3    H138847   3.166   4.012  16.878  0.4681  0.5752 -1.1303
 4884TIP3    H238848   3.095   4.144  16.892 -1.1601 -0.4976  1.5170
 4885TIP3   OH238849   1.071   5.075  19.256  0.2706 -0.3639  0.2600
 4885TIP3    H138850   0.999   5.094  19.316 -0.4991  0.7930 -0.9900
 4885TIP3    H238851   1.046   4.992  19.215 -1.2411  0.8571 -1.4071
 4886TIP3   OH238852   6.899   2.003  18.239 -0.4848 -0.2728 -0.0977
 4886TIP3    H138853   6.805   2.006  18.258 -0.6044  0.6715 -0.8012
 4886TIP3    H238854   6.915   2.079  18.183  0.5537 -0.8888 -0.6658
 4887TIP3   OH238855   4.706   1.976  18.300 -0.6239 -0.0228  0.2190
 4887TIP3    H138856   4.689   1.884  18.318  0.6209 -0.4642 -0.6929
 4887TIP3    H238857   4.632   2.004  18.246 -1.6498 -0.1273  1.5472
 4888TIP3   OH238858   6.902   7.643  18.923  0.2042 -0.1107 -0.6783
 4888TIP3    H138859   6.982   7.622  18.972  0.7317  2.2655 -0.3890
 4888TIP3    H238860   6.843   7.680  18.988 -0.6289 -0.5566 -1.1559
 4889TIP3   OH238861   6.910   4.099  16.731  0.0125 -0.3560 -0.4417
 4889TIP3    H138862   6.945   4.188  16.731 -0.5039 -0.1440 -1.1641
 4889TIP3    H238863   6.977   4.047  16.687  0.2359 -0.2919 -0.1779
 4890TIP3   OH238864   5.180   1.684  18.794 -0.5574  0.5054  0.0023
 4890TIP3    H138865   5.142   1.625  18.859  0.0377 -1.1263 -1.0751
 4890TIP3    H238866   5.264   1.709  18.831  0.9208 -2.3841 -1.0999
 4891TIP3   OH238867   0.162   7.657  17.946  0.5461  0.6946 -0.0787
 4891TIP3    H138868   0.252   7.638  17.973  1.2973  3.1395 -0.5440
 4891TIP3    H238869   0.152   7.614  17.861  1.4406  0.7365 -0.2141
 4892TIP3   OH238870   2.507   5.746  17.479  0.4152  0.2163  0.6059
 4892TIP3    H138871   2.466   5.660  17.477  0.5195  0.0937  2.3851
 4892TIP3    H238872   2.548   5.755  17.393  0.0898 -1.3366  0.2575
 4893TIP3   OH238873   4.196   2.557  17.162 -0.0335  0.0214  0.5477
 4893TIP3    H138874   4.146   2.535  17.083 -1.2988  1.4698  0.9176
 4893TIP3    H238875   4.194   2.652  17.166  3.6931  0.2828  0.0275
 4894TIP3   OH238876   3.534   5.388  18.376  0.6320  0.0078  0.2498
 4894TIP3    H138877   3.619   5.430  18.390  1.0618 -0.1080 -1.6891
 4894TIP3    H238878   3.484   5.409  18.454  2.5568 -0.2294  1.6215
 4895TIP3   OH238879   7.065   4.073  18.455 -0.1830  0.2713 -0.2571
 4895TIP3    H138880   7.057   4.167  18.467 -0.5480  0.1792  0.2572
 4895TIP3    H238881   6.979   4.045  18.426  0.3551  0.3138 -1.9896
 4896TIP3   OH238882   7.319   2.590  16.803 -0.0464 -0.2183  0.5109
 4896TIP3    H138883   7.409   2.623  16.809 -0.4996  1.4494 -0.9629
 4896TIP3    H238884   7.300   2.590  16.709 -1.3150 -1.3672  0.7371
 4897TIP3   OH238885   3.990   2.047  19.475  0.0165  0.2173  0.3071
 4897TIP3    H138886   3.959   2.098  19.400  1.2804 -0.8489 -0.9878
 4897TIP3    H238887   4.032   1.970  19.437 -0.1832 -0.8819  2.1504
 4898TIP3   OH238888   1.654   6.276  16.646  0.8054  0.5473  0.0641
 4898TIP3    H138889   1.615   6.220  16.579 -1.1993  2.6147 -0.6121
 4898TIP3    H238890   1.652   6.222  16.726  0.9052 -1.0520 -0.9740
 4899TIP3   OH238891   4.654   4.880  17.815  0.1201 -0.6139  0.0998
 4899TIP3    H138892   4.665   4.914  17.904 -0.3936 -2.3722  0.8807
 4899TIP3    H238893   4.570   4.916  17.786 -0.5315 -1.3488  1.0026
 4900TIP3   OH238894   3.669   1.160  18.266  0.2510 -0.4737 -0.5104
 4900TIP3    H138895   3.599   1.183  18.206  0.3666  0.5182 -0.2854
 4900TIP3    H238896   3.744   1.141  18.209 -0.1175 -1.2923 -0.7390
 4901TIP3   OH238897   6.563   7.358  19.052 -0.0419  0.3526  0.1584
 4901TIP3    H138898   6.517   7.391  19.129  0.3028 -0.0000  0.5194
 4901TIP3    H238899   6.531   7.413  18.980 -2.0598 -0.7559  0.1335
 4902TIP3   OH238900   2.125   5.221  18.602  0.7208 -0.1811 -0.0104
 4902TIP3    H138901   2.111   5.140  18.651  1.4531  0.0033  0.5234
 4902TIP3    H238902   2.037   5.252  18.581  0.2905  0.5754  2.5925
 4903TIP3   OH238903   0.105   1.889  18.054 -0.0967  0.0901  0.3629
 4903TIP3    H138904   0.123   1.836  17.976 -0.1937  0.2843  0.2061
 4903TIP3    H238905   0.176   1.868  18.115 -0.4691 -0.6858  0.5454
 4904TIP3   OH238906   6.043   3.820  17.759 -0.2267 -0.0968 -0.2302
 4904TIP3    H138907   6.036   3.862  17.673 -0.8041  1.2910  0.4632
 4904TIP3    H238908   5.959   3.838  17.802  0.5253  0.3453  1.1039
 4905TIP3   OH238909   1.797   2.963  17.517 -0.0294 -0.0107  0.0886
 4905TIP3    H138910   1.815   3.032  17.453  0.7463 -0.4826 -0.2181
 4905TIP3    H238911   1.847   2.989  17.595  2.3829 -1.4645 -0.8561
 4906TIP3   OH238912   1.420   4.372  16.957  0.4214 -0.4589 -0.5993
 4906TIP3    H138913   1.405   4.465  16.976 -0.0249 -0.8002  0.9232
 4906TIP3    H238914   1.514   4.365  16.941  1.1957 -0.2541  2.9908
 4907TIP3   OH238915   3.141   4.755  18.308  0.1384  0.3592  0.0880
 4907TIP3    H138916   3.076   4.785  18.244  0.8465  2.1829  0.1446
 4907TIP3    H238917   3.209   4.822  18.305  0.4684  0.1952  2.3387
 4908TIP3   OH238918   2.105   6.297  17.313 -0.1030  0.9098 -0.6545
 4908TIP3    H138919   2.159   6.327  17.239 -0.0048 -1.4833 -1.6401
 4908TIP3    H238920   2.133   6.207  17.328 -2.8551  0.0289 -0.3005
 4909TIP3   OH238921   3.283   5.020  18.102 -0.4895  0.2127 -0.1579
 4909TIP3    H138922   3.346   4.949  18.085  0.3869  1.2575 -1.4448
 4909TIP3    H238923   3.216   5.009  18.035  0.2376  1.2362 -1.0841
 4910TIP3   OH238924   5.299   4.991  18.972 -0.2970  0.8222 -0.0487
 4910TIP3    H138925   5.371   5.029  18.923  0.6543 -1.9076 -0.9879
 4910TIP3    H238926   5.222   5.007  18.918  0.5024 -0.8133 -1.8001
 4911TIP3   OH238927   0.595   5.472  16.985  0.1100  0.3764  0.0347
 4911TIP3    H138928   0.551   5.505  16.906 -0.9448 -1.2033 -0.0754
 4911TIP3    H238929   0.566   5.531  17.055 -0.2083  0.8354 -0.4807
 4912TIP3   OH238930   7.436   7.444  19.064 -0.1799  0.0018  0.2387
 4912TIP3    H138931   7.509   7.466  19.121 -0.1156 -1.2404  0.6646
 4912TIP3    H238932   7.388   7.375  19.112 -0.5956 -0.4674 -0.8226
 4913TIP3   OH238933   5.844   7.314  16.993  0.6335  0.0165 -0.4666
 4913TIP3    H138934   5.874   7.352  17.076  1.1311  0.8759 -1.0227
 4913TIP3    H238935   5.795   7.236  17.018  0.4368  0.4897  0.6577
 4914TIP3   OH238936   3.539   3.126  18.268 -0.0932  0.0013  0.4782
 4914TIP3    H138937   3.473   3.183  18.309  0.1034  0.6281 -0.0743
 4914TIP3    H238938   3.612   3.125  18.330  0.4228  1.3824 -0.0873
 4915TIP3   OH238939   6.557   6.968  19.684  0.8379  0.1394 -0.3749
 4915TIP3    H138940   6.626   6.930  19.630  1.0423  0.5944 -0.4441
 4915TIP3    H238941   6.506   6.894  19.716  1.4590 -0.2099 -0.1889
 4916TIP3   OH238942   5.468   3.604  17.923 -0.2757 -0.6696 -0.3557
 4916TIP3    H138943   5.489   3.525  17.971  1.0822 -0.4834 -0.6088
 4916TIP3    H238944   5.377   3.593  17.897  0.0723 -2.4219 -0.9196
 4917TIP3   OH238945   7.673   1.143  18.773 -0.3559 -0.3211 -0.2782
 4917TIP3    H138946   7.585   1.172  18.795  0.6982  2.4612  0.6798
 4917TIP3    H238947   7.663   1.050  18.751 -3.5696  0.0178 -0.7060
 4918TIP3   OH238948   3.067   5.792  19.184  0.5512  0.3138 -0.6710
 4918TIP3    H138949   3.154   5.830  19.191  0.3376  0.6367  0.2871
 4918TIP3    H238950   3.007   5.867  19.188  0.1962  0.0188 -0.3983
 4919TIP3   OH238951   7.102   6.285  19.220 -0.2424  0.0405  0.3005
 4919TIP3    H138952   7.049   6.324  19.150 -0.6546 -1.1509 -0.0725
 4919TIP3    H238953   7.041   6.276  19.293 -0.4405 -0.8789  0.0319
 4920TIP3   OH238954   4.469   3.065  19.075 -0.5751  0.7196  0.1396
 4920TIP3    H138955   4.401   3.076  19.141 -0.5585  0.6200  0.1727
 4920TIP3    H238956   4.514   2.985  19.100 -1.3052  0.0404 -0.6335
 4921TIP3   OH238957   7.197   1.383  19.289 -0.1223  0.7441 -0.6522
 4921TIP3    H138958   7.122   1.440  19.308 -1.1266 -0.3651 -1.1550
 4921TIP3    H238959   7.209   1.389  19.194 -0.0403  0.3713 -0.6692
 4922TIP3   OH238960   3.847   2.614  17.813  0.2234 -0.1777  0.2467
 4922TIP3    H138961   3.751   2.613  17.820  0.1307  1.9714 -0.0740
 4922TIP3    H238962   3.877   2.600  17.903 -0.4311  0.1248  0.5260
 4923TIP3   OH238963   0.594   5.079  19.395  0.0116 -0.5095 -0.2132
 4923TIP3    H138964   0.534   5.004  19.397  0.0080 -0.5130 -0.4146
 4923TIP3    H238965   0.537   5.155  19.401  0.0521 -0.5341  0.5488
 4924TIP3   OH238966   5.143   1.537  17.385 -0.1772  0.4580 -0.2298
 4924TIP3    H138967   5.216   1.544  17.324  0.1180 -0.1141  0.0478
 4924TIP3    H238968   5.182   1.550  17.472 -0.7448  2.2188 -0.2075
 4925TIP3   OH238969   5.012   5.443  17.872 -0.1608  0.0485 -0.4969
 4925TIP3    H138970   5.026   5.526  17.827 -0.4257 -0.0084 -0.6879
 4925TIP3    H238971   5.089   5.390  17.848 -0.4326 -0.0779 -1.1138
 4926TIP3   OH238972   5.650   2.256  18.677  0.1555 -0.1705 -0.0053
 4926TIP3    H138973   5.625   2.323  18.741  1.5437 -0.3055  0.7101
 4926TIP3    H238974   5.580   2.191  18.683 -0.7806  0.7886 -0.1092
 4927TIP3   OH238975   5.487   2.155  18.348  0.0481  0.2437 -0.2244
 4927TIP3    H138976   5.578   2.185  18.353 -0.4702  2.0175 -0.8013
 4927TIP3    H238977   5.477   2.095  18.422  1.2885  1.1369  0.7037
 4928TIP3   OH238978   7.133   5.929  19.508 -0.2075  0.1256 -0.2956
 4928TIP3    H138979   7.149   6.021  19.529 -1.3014  0.2565 -0.0150
 4928TIP3    H238980   7.214   5.885  19.533 -0.3205  0.7375  1.2531
 4929TIP3   OH238981   7.087   2.451  17.839  0.1143 -0.5313  0.0647
 4929TIP3    H138982   7.088   2.536  17.883 -2.0949 -0.0830 -0.5966
 4929TIP3    H238983   7.015   2.459  17.776  1.5710 -1.9918 -1.8826
 4930TIP3   OH238984   5.190   5.690  19.353  0.1722 -0.0938 -0.2514
 4930TIP3    H138985   5.158   5.647  19.432  0.8048  0.0891  0.1114
 4930TIP3    H238986   5.241   5.622  19.308  2.8214  0.6962  1.2799
 4931TIP3   OH238987   3.249   6.664  19.251 -0.6446 -0.0691 -0.4222
 4931TIP3    H138988   3.315   6.685  19.317 -0.5012 -0.3497 -0.4765
 4931TIP3    H238989   3.195   6.743  19.245 -0.0685  0.3076 -0.6709
 4932TIP3   OH238990   1.387   3.866  16.902  0.3524 -0.4209  0.5454
 4932TIP3    H138991   1.421   3.920  16.830  0.9538 -1.5227 -0.0448
 4932TIP3    H238992   1.318   3.814  16.862 -0.9478  0.6333  1.3561
 4933TIP3   OH238993   1.208   2.407  18.307 -0.1485 -0.3897 -0.1139
 4933TIP3    H138994   1.279   2.343  18.293 -1.6406 -1.8030 -1.6356
 4933TIP3    H238995   1.130   2.363  18.274 -1.6900  1.3018  1.1057
 4934TIP3   OH238996   3.913   7.016  17.112  0.0032 -0.0807  0.0825
 4934TIP3    H138997   3.828   7.059  17.098  0.8943  0.8544 -3.2011
 4934TIP3    H238998   3.924   6.959  17.036  2.5583  0.2716  0.1066
 4935TIP3   OH238999   1.937   2.405  18.787 -0.0809  0.7873  0.5473
 4935TIP3    H139000   1.950   2.477  18.849  0.4252 -0.1906  1.6052
 4935TIP3    H239001   2.016   2.404  18.734 -1.5305  3.2856 -1.9854
 4936TIP3   OH239002   2.749   4.332  17.829  0.2243 -0.0148 -0.5369
 4936TIP3    H139003   2.678   4.277  17.862 -2.4133  3.3516 -0.1771
 4936TIP3    H239004   2.822   4.271  17.817 -2.5594 -3.6523 -0.6576
 4937TIP3   OH239005   1.332   3.124  17.232 -0.5371 -0.6320  0.2576
 4937TIP3    H139006   1.288   3.208  17.226 -0.1852 -0.4063  0.6884
 4937TIP3    H239007   1.393   3.122  17.158  0.1608 -0.0735  0.8010
 4938TIP3   OH239008   6.325   6.648  18.177 -0.1555 -0.1790 -0.1463
 4938TIP3    H139009   6.320   6.744  18.178 -2.4040 -0.2192 -0.6482
 4938TIP3    H239010   6.361   6.624  18.262 -0.5462  1.0943  0.3951
 4939TIP3   OH239011   2.935   1.062  17.458  0.5184  0.5401 -0.5423
 4939TIP3    H139012   2.973   0.975  17.445  1.3882  0.7130  0.6564
 4939TIP3    H239013   2.962   1.087  17.547 -1.7066  1.0437  0.0457
 4940TIP3   OH239014   1.564   4.235  16.754 -0.1390 -0.2793 -0.1950
 4940TIP3    H139015   1.597   4.153  16.717  0.2932  0.1211 -0.7171
 4940TIP3    H239016   1.643   4.282  16.782 -0.1053  1.2261 -2.5514
 4941TIP3   OH239017   4.164   7.161  17.123  0.2889  0.2430 -0.0063
 4941TIP3    H139018   4.116   7.080  17.142  0.2360  0.2964  0.0793
 4941TIP3    H239019   4.163   7.166  17.027 -0.6790  0.7371  0.0215
 4942TIP3   OH239020   4.504   4.245  18.122  0.7149 -0.0974  0.1131
 4942TIP3    H139021   4.513   4.248  18.027  1.4424 -0.2484  0.1713
 4942TIP3    H239022   4.477   4.333  18.147 -1.2036 -0.5098 -0.3888
 4943TIP3   OH239023   7.350   0.947  18.701  0.0184 -0.4700  0.1992
 4943TIP3    H139024   7.304   0.957  18.617 -0.4241 -0.7019  0.4105
 4943TIP3    H239025   7.288   0.979  18.766  0.9023  1.0924  0.3242
 4944TIP3   OH239026   5.837   0.325  18.702  0.1769  0.3138 -0.2812
 4944TIP3    H139027   5.914   0.369  18.739  1.5065 -1.8598 -0.3238
 4944TIP3    H239028   5.832   0.358  18.613  0.3155  1.3854  0.0907
 4945TIP3   OH239029   5.031   6.742  17.989 -0.1786 -0.0358 -0.0368
 4945TIP3    H139030   5.086   6.670  17.960  0.0309  0.6747 -1.4843
 4945TIP3    H239031   5.069   6.770  18.072  0.8729 -0.3699 -0.3975
 4946TIP3   OH239032   2.432   5.970  18.574 -0.0931 -0.4355 -0.6821
 4946TIP3    H139033   2.364   5.934  18.516  0.1944  1.1168 -2.0646
 4946TIP3    H239034   2.387   6.040  18.622  0.5533  0.7978 -1.8169
 4947TIP3   OH239035   7.142   2.181  17.796 -0.1138 -0.0396 -0.2617
 4947TIP3    H139036   7.135   2.268  17.834  1.4282  0.3378 -0.7756
 4947TIP3    H239037   7.167   2.125  17.869  0.7827  0.3051 -0.2962
 4948TIP3   OH239038   6.002   3.094  17.267 -0.5184 -0.7107 -0.4734
 4948TIP3    H139039   6.005   3.038  17.344  0.2386 -0.8805 -0.6184
 4948TIP3    H239040   5.908   3.102  17.247 -0.7763  0.0033  0.9239
 4949TIP3   OH239041   2.458   2.637  18.176  0.6724  0.3750 -0.4806
 4949TIP3    H139042   2.509   2.652  18.096  1.5875 -0.2382 -0.0306
 4949TIP3    H239043   2.518   2.591  18.235 -0.3587 -0.2384  0.1272
 4950TIP3   OH239044   1.383   6.024  19.088 -0.7187  0.6374 -0.2309
 4950TIP3    H139045   1.440   6.091  19.124 -1.7242  1.2037  0.3634
 4950TIP3    H239046   1.377   5.958  19.158 -0.4169  0.3394 -0.4800
 4951TIP3   OH239047   2.943   3.143  17.760  0.7756  0.2235  0.1201
 4951TIP3    H139048   2.871   3.119  17.703  0.1204 -1.0047  1.3974
 4951TIP3    H239049   2.903   3.150  17.847  2.0400  0.3499  0.7127
 4952TIP3   OH239050   6.143   0.944  17.227 -0.2118 -0.6744  0.1405
 4952TIP3    H139051   6.211   0.879  17.207 -1.0094 -1.2415 -0.8152
 4952TIP3    H239052   6.118   0.924  17.317  0.0966 -1.1956  0.1162
 4953TIP3   OH239053   4.616   7.413  17.580  0.3790 -0.1529 -0.0858
 4953TIP3    H139054   4.531   7.442  17.545  0.2198 -0.5135 -0.0050
 4953TIP3    H239055   4.593   7.356  17.653  0.6497 -1.5323 -1.0331
 4954TIP3   OH239056   4.061   2.151  18.143  0.3691  0.7709  0.3827
 4954TIP3    H139057   4.013   2.195  18.214 -0.6913 -1.5952  1.2234
 4954TIP3    H239058   4.122   2.092  18.188 -1.1241 -1.6443 -0.5851
 4955TIP3   OH239059   4.503   2.404  17.463 -0.7667 -0.6037 -0.3217
 4955TIP3    H139060   4.421   2.362  17.488 -1.2036  1.0441  1.2597
 4955TIP3    H239061   4.571   2.349  17.501 -1.2809 -0.4971  0.7930
 4956TIP3   OH239062   1.074   2.524  18.673  0.0702 -0.2807  0.0593
 4956TIP3    H139063   1.125   2.456  18.630 -0.3771 -0.7268  0.2177
 4956TIP3    H239064   0.989   2.521  18.628 -0.0214  0.0249  0.2131
 4957TIP3   OH239065   7.574   5.362  18.896 -0.3803  0.5137 -0.4080
 4957TIP3    H139066   7.504   5.397  18.841 -2.0832 -1.4703  0.3391
 4957TIP3    H239067   7.541   5.276  18.924  1.7875  0.1023  1.1043
 4958TIP3   OH239068   0.307   4.520  16.395 -0.4709 -0.2048 -0.1338
 4958TIP3    H139069   0.355   4.462  16.337 -1.1899 -0.1012 -0.8519
 4958TIP3    H239070   0.316   4.481  16.482 -0.1384 -0.8495 -0.4557
 4959TIP3   OH239071   6.290   0.263  18.093  0.6231 -0.4004  0.2590
 4959TIP3    H139072   6.314   0.203  18.164 -0.6941 -1.2363  0.0403
 4959TIP3    H239073   6.218   0.315  18.129  1.0573  0.3202  0.0893
 4960TIP3   OH239074   2.363   7.226  18.133 -0.6067  0.6204  0.4551
 4960TIP3    H139075   2.286   7.172  18.152 -0.3078  0.6388  1.8639
 4960TIP3    H239076   2.345   7.309  18.177 -0.0652  0.8545  0.2403
 4961TIP3   OH239077   5.144   7.540  19.232  0.3715 -0.1566 -0.1551
 4961TIP3    H139078   5.213   7.597  19.200 -0.2422  1.4887  1.3009
 4961TIP3    H239079   5.087   7.597  19.284 -1.3472 -1.7170 -0.2043
 4962TIP3   OH239080   4.358   0.301  17.847 -0.2951 -0.0099  0.0833
 4962TIP3    H139081   4.348   0.223  17.902 -0.8540 -0.2478 -0.3479
 4962TIP3    H239082   4.440   0.286  17.800 -0.6162 -0.5469 -0.3190
 4963TIP3   OH239083   1.094   4.342  19.171 -0.0203 -0.0150  0.1934
 4963TIP3    H139084   1.158   4.273  19.154 -0.0489 -0.3548  1.3867
 4963TIP3    H239085   1.113   4.371  19.260  0.0579  1.6021 -0.3099
 4964TIP3   OH239086   1.884   2.639  17.916  0.0823 -0.0152  0.0960
 4964TIP3    H139087   1.861   2.710  17.976 -1.1122  0.5291 -0.9625
 4964TIP3    H239088   1.957   2.594  17.959 -0.0539  0.9924  1.4441
 4965TIP3   OH239089   2.544   4.698  17.852  0.2633 -0.7298  0.0671
 4965TIP3    H139090   2.534   4.603  17.860  1.4616 -0.8972 -0.2805
 4965TIP3    H239091   2.514   4.718  17.763 -1.3075 -0.5707  0.6037
 4966TIP3   OH239092   3.246   7.090  16.951 -0.7575 -0.0117 -0.1774
 4966TIP3    H139093   3.291   7.167  16.916 -0.3529 -0.1134  0.1058
 4966TIP3    H239094   3.163   7.123  16.985 -1.1147  0.1041 -1.1383
 4967TIP3   OH239095   0.591   1.946  18.525  0.0281 -0.2004  0.6108
 4967TIP3    H139096   0.674   1.986  18.498 -0.8538  0.5727 -1.1490
 4967TIP3    H239097   0.607   1.852  18.521  1.1093 -0.0600  1.3240
 4968TIP3   OH239098   6.453   1.509  17.808  0.5185  0.4466 -0.1124
 4968TIP3    H139099   6.421   1.593  17.773  0.3889  0.8401  0.9189
 4968TIP3    H239100   6.400   1.494  17.886  1.7542  0.3124  0.7357
 4969TIP3   OH239101   1.669   5.049  18.047  0.2920 -0.3744 -0.3098
 4969TIP3    H139102   1.588   5.046  18.098 -0.9887  0.5651 -2.2014
 4969TIP3    H239103   1.738   5.033  18.112 -1.3872 -1.4586  1.3167
 4970TIP3   OH239104   1.624   3.392  17.869  0.4197  0.0286  0.3759
 4970TIP3    H139105   1.567   3.326  17.830 -0.4575  1.3963 -0.7483
 4970TIP3    H239106   1.713   3.359  17.856 -0.0145 -1.1635  0.3280
 4971TIP3   OH239107   2.104   1.744  16.652  0.3918  0.1008  0.1084
 4971TIP3    H139108   2.191   1.781  16.638  0.5338 -1.0366 -2.7053
 4971TIP3    H239109   2.069   1.731  16.564 -2.7369  0.6911  1.1460
 4972TIP3   OH239110   5.795   5.864  18.910  0.1623 -0.3484 -0.1656
 4972TIP3    H139111   5.779   5.955  18.933  0.0898 -0.7167  1.3548
 4972TIP3    H239112   5.841   5.868  18.826 -0.0897  1.0612 -0.2663
 4973TIP3   OH239113   2.319   4.604  18.028 -0.5150  0.4229  0.3797
 4973TIP3    H139114   2.295   4.521  18.069 -1.1345 -0.1641 -1.1037
 4973TIP3    H239115   2.245   4.625  17.971  1.2110  0.0553 -2.1192
 4974TIP3   OH239116   1.505   1.570  19.050  0.3097  0.4527  0.2199
 4974TIP3    H139117   1.545   1.622  19.119  0.6633 -1.2679  1.3729
 4974TIP3    H239118   1.423   1.537  19.088  0.2126 -0.0350 -0.3817
 4975TIP3   OH239119   4.500   1.232  17.337  0.2026 -0.2608  0.0969
 4975TIP3    H139120   4.499   1.237  17.242 -0.9385  2.4817  0.1473
 4975TIP3    H239121   4.589   1.207  17.360  1.6617  2.7455 -1.6715
 4976TIP3   OH239122   0.122   7.629  18.320 -0.0111 -0.1114  0.1591
 4976TIP3    H139123   0.110   7.674  18.236 -2.9961  0.3421  0.7091
 4976TIP3    H239124   0.045   7.654  18.372  1.1509 -1.2963  2.6260
 4977TIP3   OH239125   3.888   3.080  17.487  0.4324 -0.2663  0.1864
 4977TIP3    H139126   3.883   2.995  17.530  2.0940 -1.0351 -0.9949
 4977TIP3    H239127   3.974   3.080  17.445  0.3400  1.8806 -0.1238
 4978TIP3   OH239128   1.809   5.341  18.283 -0.0531 -0.2174  0.2840
 4978TIP3    H139129   1.791   5.358  18.191 -0.2832 -1.3250  0.1099
 4978TIP3    H239130   1.895   5.298  18.284  0.1280  0.1388  0.6256
 4979TIP3   OH239131   5.664   7.478  18.898 -1.0192  0.1108 -0.5683
 4979TIP3    H139132   5.682   7.454  18.989  0.8473 -0.4791 -1.0367
 4979TIP3    H239133   5.569   7.479  18.892 -1.1840 -0.1933  1.2969
 4980TIP3   OH239134   3.972   1.306  16.392  0.1016 -0.1969 -0.3615
 4980TIP3    H139135   3.961   1.309  16.487  0.2743 -0.8223 -0.3126
 4980TIP3    H239136   3.884   1.290  16.358  0.2783 -1.7097 -0.1863
 4981TIP3   OH239137   1.582   0.701  18.139 -0.0890  0.3927 -0.0686
 4981TIP3    H139138   1.514   0.738  18.084  0.1938  0.3330 -0.4607
 4981TIP3    H239139   1.553   0.611  18.155 -0.3112  0.4954  0.1187
 4982TIP3   OH239140   4.111   3.137  18.976  0.0150 -0.2845  0.4956
 4982TIP3    H139141   4.159   3.203  18.926 -0.5142 -0.0700  0.2526
 4982TIP3    H239142   4.162   3.123  19.055  0.5381 -0.1620  0.1808
 4983TIP3   OH239143   1.967   5.277  18.024  0.1222 -0.1895 -0.4734
 4983TIP3    H139144   1.891   5.335  18.025  1.4775  1.6629  0.1316
 4983TIP3    H239145   1.979   5.254  17.932  1.4869  3.2892 -1.3474
 4984TIP3   OH239146   2.638   1.896  17.577 -0.0305 -0.2900  0.2630
 4984TIP3    H139147   2.577   1.959  17.616  0.4035  0.3216 -0.0134
 4984TIP3    H239148   2.700   1.951  17.528  0.2135 -0.9547 -0.1885
 4985TIP3   OH239149   1.962   5.178  17.732 -0.1430 -0.1069 -0.5660
 4985TIP3    H139150   1.902   5.132  17.673  0.4147 -2.0859  0.3209
 4985TIP3    H239151   2.034   5.117  17.746 -0.3421  0.1441  2.3044
 4986TIP3   OH239152   3.151   2.007  19.381  0.0258 -0.2502  0.3943
 4986TIP3    H139153   3.160   1.960  19.298  2.0967 -0.0335  0.4317
 4986TIP3    H239154   3.149   1.939  19.448 -1.0210 -0.4052  0.2075
 4987TIP3   OH239155   7.044   4.355  16.698  0.2746  0.2484 -0.2410
 4987TIP3    H139156   7.137   4.346  16.716  0.1747 -0.1801  0.0783
 4987TIP3    H239157   7.029   4.449  16.694  0.7378  0.3188 -0.3971
 4988TIP3   OH239158   0.050   6.638  19.162  0.4765  0.2721 -0.3717
 4988TIP3    H139159  -0.033   6.598  19.186  0.3582  0.8567  0.2249
 4988TIP3    H239160   0.026   6.724  19.126  0.9049  1.2475  1.5603
 4989TIP3   OH239161   5.140   7.457  18.959 -0.1617 -0.0720  0.0205
 4989TIP3    H139162   5.125   7.364  18.973 -1.9456 -0.1063 -1.7036
 4989TIP3    H239163   5.136   7.496  19.047  0.5437 -1.5731  0.7507
 4990TIP3   OH239164   6.950   4.922  17.368 -0.3254 -0.8875 -0.2600
 4990TIP3    H139165   7.044   4.910  17.355 -0.1640  2.1027 -3.0067
 4990TIP3    H239166   6.910   4.897  17.285 -1.5571  0.7333 -0.2189
 4991TIP3   OH239167   1.247   0.998  17.602  0.2273  0.0514  0.4307
 4991TIP3    H139168   1.272   1.071  17.546  0.3707 -0.1811  0.1895
 4991TIP3    H239169   1.327   0.946  17.612  0.0638 -0.2135  0.3859
 4992TIP3   OH239170   4.558   6.994  16.802 -0.0150  0.3029  0.1501
 4992TIP3    H139171   4.546   7.055  16.874 -0.7836 -0.8464  1.0240
 4992TIP3    H239172   4.482   7.008  16.745  0.1289  0.5831  0.0261
 4993TIP3   OH239173   6.735   0.901  19.210  0.2172 -0.0311 -0.1743
 4993TIP3    H139174   6.804   0.836  19.221  0.0476 -0.0806  0.6727
 4993TIP3    H239175   6.768   0.958  19.140  0.9750 -0.2367 -0.0036
 4994TIP3   OH239176   6.495   1.073  19.210  0.0554  0.2498  0.3612
 4994TIP3    H139177   6.580   1.031  19.223 -0.3764 -0.6236  0.4530
 4994TIP3    H239178   6.457   1.077  19.298 -1.2707 -2.1863 -0.0091
 4995TIP3   OH239179   0.363   1.839  17.010 -0.0396 -0.1452 -0.0022
 4995TIP3    H139180   0.386   1.918  16.962 -0.1407 -0.4212 -0.5153
 4995TIP3    H239181   0.415   1.843  17.091 -2.0683  1.8043  1.3313
 4996TIP3   OH239182   7.501   5.183  17.136  0.2644  0.0349 -0.2986
 4996TIP3    H139183   7.429   5.150  17.190  1.3512 -2.5181 -0.2666
 4996TIP3    H239184   7.463   5.189  17.048 -0.5947  1.0365  0.1067
 4997TIP3   OH239185   5.963   3.212  18.197 -0.1105 -0.6914 -0.4916
 4997TIP3    H139186   5.970   3.301  18.232  0.0293 -0.2083 -1.7127
 4997TIP3    H239187   5.933   3.160  18.271  0.5259  0.2326  0.4503
 4998TIP3   OH239188   6.118   2.302  18.254 -0.1638 -0.1279  0.1343
 4998TIP3    H139189   6.040   2.248  18.264 -0.1582  0.0701  1.3827
 4998TIP3    H239190   6.126   2.316  18.160 -0.6720 -1.5466 -0.1445
 4999TIP3   OH239191   2.070   3.460  18.431 -0.0260  0.2392  0.1468
 4999TIP3    H139192   2.128   3.428  18.362 -1.0585 -0.1608 -0.5604
 4999TIP3    H239193   1.998   3.502  18.384 -2.3700 -2.7082  0.7930
 5000TIP3   OH239194   3.451   3.718  17.909 -0.4241  0.3077  0.5784
 5000TIP3    H139195   3.418   3.766  17.984  2.3516  2.9225  0.3151
 5000TIP3    H239196   3.466   3.629  17.942  0.0651  1.1976  2.9487
 5001TIP3   OH239197   5.474   7.321  17.899 -0.6965  0.0794 -0.2253
 5001TIP3    H139198   5.456   7.415  17.895  0.6841  0.3467 -1.1298
 5001TIP3    H239199   5.556   7.315  17.948 -0.8923 -0.6729  0.0099
 5002TIP3   OH239200   2.229   3.919  17.408 -0.3460 -0.1537  0.3215
 5002TIP3    H139201   2.317   3.950  17.383 -0.3661 -0.1736  0.2239
 5002TIP3    H239202   2.208   3.854  17.341 -1.1457  1.0710 -0.6764
 5003TIP3   OH239203   2.161   6.619  16.827 -0.1825  0.0867  0.0124
 5003TIP3    H139204   2.213   6.562  16.771  0.9485 -2.0243  2.9742
 5003TIP3    H239205   2.202   6.705  16.818  0.0457 -0.1957 -2.1856
 5004TIP3   OH239206   4.447   6.341  17.976  0.0420  0.4693 -0.2605
 5004TIP3    H139207   4.523   6.361  17.921  0.3853  1.3090  0.4983
 5004TIP3    H239208   4.433   6.247  17.963  2.9599 -0.3870  1.7148
 5005TIP3   OH239209   2.333   1.653  18.628  0.3457  0.5682 -0.4680
 5005TIP3    H139210   2.428   1.660  18.639  0.6121 -0.4561 -1.7819
 5005TIP3    H239211   2.306   1.740  18.600  1.1891  0.4365 -1.7861
 5006TIP3   OH239212   0.962   4.865  19.120  0.0686 -0.4371  0.4179
 5006TIP3    H139213   0.964   4.772  19.098  0.8104 -0.0612 -1.3355
 5006TIP3    H239214   0.983   4.909  19.038  1.5282  1.2265  1.6176
 5007TIP3   OH239215   6.973   4.382  18.057  0.1259 -0.4014 -0.3473
 5007TIP3    H139216   7.052   4.368  18.108 -0.6303 -1.9356  0.4809
 5007TIP3    H239217   6.992   4.346  17.971  0.0951 -1.4767  0.0819
 5008TIP3   OH239218   1.619   6.176  18.190  0.2774  0.4927 -0.3254
 5008TIP3    H139219   1.545   6.235  18.182  0.5552  1.4106  2.5605
 5008TIP3    H239220   1.586   6.091  18.161 -1.9434  0.8853  0.8190
 5009TIP3   OH239221   0.748   0.620  18.968  0.2503 -0.1156 -0.3966
 5009TIP3    H139222   0.720   0.681  18.900 -0.2233 -0.6035 -0.6495
 5009TIP3    H239223   0.754   0.673  19.047  0.1872  0.3296 -0.6876
 5010TIP3   OH239224   0.124   3.114  18.661  0.3736 -0.5519  0.0877
 5010TIP3    H139225   0.201   3.058  18.671 -0.5105 -1.6385  1.0406
 5010TIP3    H239226   0.116   3.127  18.566  2.2135  0.3063  0.0098
 5011TIP3   OH239227   4.397   5.058  18.338  0.0051 -0.0621  0.1072
 5011TIP3    H139228   4.418   5.012  18.419 -0.0833  1.5605  1.0858
 5011TIP3    H239229   4.311   5.098  18.354 -0.4343 -0.4625 -1.1278
 5012TIP3   OH239230   1.146   1.927  16.491  0.1728  0.0764 -0.4634
 5012TIP3    H139231   1.057   1.894  16.482  0.4908 -0.5919 -1.3749
 5012TIP3    H239232   1.201   1.849  16.495  0.7449  0.4790 -0.2742
 5013TIP3   OH239233   6.571   7.498  18.387  0.0273  0.3890  0.2534
 5013TIP3    H139234   6.489   7.468  18.427  0.5535 -1.9801 -0.3145
 5013TIP3    H239235   6.631   7.509  18.462 -0.5089  1.2279  0.5783
 5014TIP3   OH239236   4.966   3.651  19.210 -0.3016  0.0974  0.8811
 5014TIP3    H139237   4.993   3.691  19.127 -2.5191 -2.0695 -1.0721
 5014TIP3    H239238   4.974   3.721  19.274  3.9181  1.2389 -0.5271
 5015TIP3   OH239239   4.857   0.025  16.871 -0.7100  0.3149 -0.0547
 5015TIP3    H139240   4.805   0.069  16.938  1.2933 -1.2876  2.7533
 5015TIP3    H239241   4.947   0.056  16.886  0.0869 -1.5348 -0.6931
 5016TIP3   OH239242   2.065   0.702  17.259  0.0952 -0.6318 -0.3291
 5016TIP3    H139243   2.065   0.687  17.353 -1.0076  0.9312 -0.0312
 5016TIP3    H239244   2.115   0.783  17.248 -0.0371 -0.6403 -1.0454
 5017TIP3   OH239245   7.495   0.288  18.239 -0.0941 -0.6217  0.3228
 5017TIP3    H139246   7.416   0.338  18.218  0.7888  0.9944  0.6506
 5017TIP3    H239247   7.492   0.212  18.181 -0.5353  0.8182 -1.6294
 5018TIP3   OH239248   2.231   6.621  19.105  0.1383 -0.5213 -0.7910
 5018TIP3    H139249   2.193   6.680  19.170 -0.7921  1.1447 -2.7275
 5018TIP3    H239250   2.277   6.678  19.044 -0.0521 -1.8653 -2.2710
 5019TIP3   OH239251   2.508   3.239  18.324  0.1665  0.4220 -1.0543
 5019TIP3    H139252   2.465   3.197  18.398 -1.0066  0.3347 -1.7574
 5019TIP3    H239253   2.494   3.178  18.251  1.5885  0.3442 -1.2832
 5020TIP3   OH239254   6.607   2.762  18.299 -0.2163  0.0417  0.2469
 5020TIP3    H139255   6.592   2.793  18.209  0.5001  0.8575  0.3889
 5020TIP3    H239256   6.679   2.699  18.290 -0.5200 -0.2983  0.1811
 5021TIP3   OH239257   2.421   2.066  19.288  0.0662 -0.0621  0.8249
 5021TIP3    H139258   2.385   1.980  19.313  1.0410 -0.3403  1.3028
 5021TIP3    H239259   2.446   2.056  19.196 -1.2561  0.2074  0.4091
 5022TIP3   OH239260   4.658   4.148  18.943  0.0285  0.3198  0.4489
 5022TIP3    H139261   4.646   4.185  18.855  1.2322 -0.3172 -0.0109
 5022TIP3    H239262   4.569   4.126  18.972 -0.5042  1.5834 -0.1233
 5023TIP3   OH239263   1.685   2.051  17.337  0.2647  0.1195 -0.1105
 5023TIP3    H139264   1.605   2.077  17.384 -0.0352  0.1427 -0.6263
 5023TIP3    H239265   1.748   2.031  17.406  0.1242  1.0697  0.3097
 5024TIP3   OH239266   5.025   3.682  18.117  0.3222 -0.6544 -0.0130
 5024TIP3    H139267   4.945   3.729  18.094  0.8644 -0.2487 -1.1559
 5024TIP3    H239268   4.995   3.599  18.154 -0.6982 -1.7233 -2.8835
 5025TIP3   OH239269   0.546   2.261  16.842 -0.2547 -0.2382  0.2509
 5025TIP3    H139270   0.566   2.278  16.750 -1.2868  1.0051  0.2399
 5025TIP3    H239271   0.491   2.183  16.841 -0.4357 -0.1047 -0.1939
 5026TIP3   OH239272   6.217   3.559  18.912 -0.0617 -0.6208  0.0878
 5026TIP3    H139273   6.226   3.635  18.855 -0.4173 -0.9271 -0.3858
 5026TIP3    H239274   6.162   3.498  18.863  1.1783 -1.6845 -0.0305
 5027TIP3   OH239275   1.902   7.201  17.973 -0.4900 -0.5992  0.3087
 5027TIP3    H139276   1.988   7.234  17.945 -0.1825 -2.3088 -0.8999
 5027TIP3    H239277   1.854   7.279  18.000  1.3549  0.4276  0.7978
 5028TIP3   OH239278   4.515   4.297  19.446  0.3400  0.2509 -0.3297
 5028TIP3    H139279   4.500   4.309  19.352  1.0152 -0.4429 -0.5398
 5028TIP3    H239280   4.580   4.364  19.469 -0.9471  1.4253 -0.0162
 5029TIP3   OH239281   3.445   0.406  18.155 -0.2520  0.7418  0.2161
 5029TIP3    H139282   3.519   0.437  18.207 -1.0562  1.1122  1.1691
 5029TIP3    H239283   3.480   0.333  18.104  0.0605 -1.1245  2.9211
 5030TIP3   OH239284   1.413   1.948  19.015 -0.2934 -0.2678 -0.5962
 5030TIP3    H139285   1.345   1.906  19.067  0.7134 -1.5632 -0.2649
 5030TIP3    H239286   1.494   1.931  19.063  0.4194  0.1656 -1.6013
 5031TIP3   OH239287   1.023   6.514  17.202  0.8426 -0.6617 -0.7006
 5031TIP3    H139288   1.035   6.605  17.229  0.7163 -0.6996 -0.5105
 5031TIP3    H239289   1.100   6.494  17.149  0.8006 -0.4024 -0.8591
 5032TIP3   OH239290   4.633   3.882  18.309  0.4132  0.1368  0.1361
 5032TIP3    H139291   4.674   3.925  18.234 -0.4524  0.3794 -0.2141
 5032TIP3    H239292   4.686   3.804  18.325  0.4159 -0.0982 -0.9399
 5033TIP3   OH239293   2.114   3.884  18.509  0.1084  0.0091  0.4693
 5033TIP3    H139294   2.050   3.828  18.466 -1.3307  1.2793  0.8747
 5033TIP3    H239295   2.184   3.894  18.445 -1.7621  1.4882 -1.5106
 5034TIP3   OH239296   2.171   4.271  17.428  1.5021 -0.0072 -0.5195
 5034TIP3    H139297   2.229   4.275  17.504 -1.1974 -0.8565  1.7596
 5034TIP3    H239298   2.158   4.178  17.412 -1.8262 -0.0122  1.3393
 5035TIP3   OH239299   2.943   1.030  19.093 -0.1722  0.3057 -0.1880
 5035TIP3    H139300   2.932   1.069  19.179 -2.5450  0.9020 -0.6913
 5035TIP3    H239301   2.919   0.938  19.104  0.7304  0.0848  0.0134
 5036TIP3   OH239302   0.335   5.271  17.929  0.5354 -0.3270  0.2802
 5036TIP3    H139303   0.364   5.179  17.927  1.5697 -0.0432  1.1920
 5036TIP3    H239304   0.371   5.305  18.011  0.0868  0.8813 -0.0106
 5037TIP3   OH239305   0.466   5.359  17.306  0.1380 -0.1991  0.2755
 5037TIP3    H139306   0.426   5.380  17.221  1.2784 -0.5582 -0.3810
 5037TIP3    H239307   0.534   5.295  17.284  0.9157  0.2358  1.3744
 5038TIP3   OH239308   5.851   0.206  19.343 -0.3635  0.0676  0.0205
 5038TIP3    H139309   5.894   0.270  19.286  1.0015 -0.3087  0.6103
 5038TIP3    H239310   5.758   0.231  19.340  0.0604  1.7514 -0.1784
 5039TIP3   OH239311   4.091   5.813  19.119  0.0016  0.2310  0.2529
 5039TIP3    H139312   4.057   5.747  19.059  1.7913 -0.7268  0.1954
 5039TIP3    H239313   4.125   5.762  19.193 -0.4808  1.2567  1.1924
 5040TIP3   OH239314   5.246   2.270  18.867 -0.5776 -0.0693 -0.1643
 5040TIP3    H139315   5.306   2.337  18.834 -0.5013  0.0315  0.1745
 5040TIP3    H239316   5.174   2.269  18.803  0.0224 -0.5515 -0.8441
 5041TIP3   OH239317   7.380   6.730  17.247  0.1351  0.2824  0.0439
 5041TIP3    H139318   7.440   6.665  17.281  1.1462  1.6665  1.0341
 5041TIP3    H239319   7.339   6.769  17.324  0.1576  1.3455 -0.4492
 5042TIP3   OH239320   1.127   6.670  19.009  0.0871 -0.4132 -0.4955
 5042TIP3    H139321   1.210   6.689  19.053  0.0122  0.2951 -0.6396
 5042TIP3    H239322   1.136   6.712  18.923 -0.4613 -0.2314 -0.4686
 5043TIP3   OH239323   2.223   0.142  18.475 -0.0817  0.1656  0.1540
 5043TIP3    H139324   2.186   0.128  18.388  1.3076  0.2866 -0.4835
 5043TIP3    H239325   2.209   0.058  18.520 -1.4571  0.3405  0.0867
 5044TIP3   OH239326   3.309   5.881  18.939  0.1824  0.8396 -0.4671
 5044TIP3    H139327   3.248   5.807  18.936 -0.7940  1.5407  1.0584
 5044TIP3    H239328   3.262   5.953  18.897  1.3026  0.5522 -2.3728
 5045TIP3   OH239329   4.593   7.408  18.435 -0.2830  0.0969 -0.4092
 5045TIP3    H139330   4.683   7.373  18.434  0.2797  1.4109  0.8161
 5045TIP3    H239331   4.540   7.337  18.471  0.4404 -0.3046 -0.1084
 5046TIP3   OH239332   6.462   4.866  16.772  0.0148  0.2501  0.3562
 5046TIP3    H139333   6.464   4.957  16.740 -1.4774 -0.5511 -2.3369
 5046TIP3    H239334   6.372   4.853  16.800  0.2486 -0.4052  0.8189
 5047TIP3   OH239335   3.293   3.374  18.157 -0.3023 -0.0465 -0.0062
 5047TIP3    H139336   3.225   3.335  18.102  0.4192 -2.3307  0.5890
 5047TIP3    H239337   3.247   3.437  18.212 -2.2661 -2.4604  1.3056
 5048TIP3   OH239338   4.771   1.295  17.832 -0.5469 -0.1051 -0.3902
 5048TIP3    H139339   4.676   1.289  17.838 -0.3996 -1.9933  1.0779
 5048TIP3    H239340   4.792   1.261  17.745 -1.1812 -0.2060 -0.5075
 5049TIP3   OH239341   1.485   5.567  16.317 -0.2389 -0.5518 -0.2058
 5049TIP3    H139342   1.473   5.507  16.391  1.0080 -0.0450  0.4354
 5049TIP3    H239343   1.473   5.654  16.355  0.4528 -0.2857 -0.5987
 5050TIP3   OH239344   4.829   2.441  19.306 -0.0558 -0.2779 -0.2320
 5050TIP3    H139345   4.803   2.466  19.217  0.3332 -1.2541 -0.6346
 5050TIP3    H239346   4.908   2.389  19.295 -0.0998 -0.5644  0.6759
 5051TIP3   OH239347   2.413   3.063  17.503  0.4091  0.5526  0.2386
 5051TIP3    H139348   2.321   3.037  17.500  0.2660  1.0493  0.3202
 5051TIP3    H239349   2.421   3.116  17.581  0.2537  2.4419 -0.9720
 5052TIP3   OH239350   0.383   1.241  17.341 -0.1144  0.3075 -0.0015
 5052TIP3    H139351   0.339   1.229  17.257 -2.8253  3.3214  0.7769
 5052TIP3    H239352   0.448   1.310  17.324  0.9989 -0.7095 -0.0492
 5053TIP3   OH239353   3.121   7.393  17.184 -0.4768 -0.2257  0.2998
 5053TIP3    H139354   3.058   7.348  17.241  0.1063 -0.6422  0.6238
 5053TIP3    H239355   3.206   7.379  17.226 -0.0538 -0.4216 -0.5960
 5054TIP3   OH239356   0.933   5.102  17.265  0.1146  0.6632  0.0858
 5054TIP3    H139357   0.980   5.033  17.312 -0.1574  0.5441  0.1892
 5054TIP3    H239358   0.991   5.126  17.193 -0.6722 -1.1834 -1.2470
 5055TIP3   OH239359   4.371   5.455  18.204  0.1431  0.2992  0.5388
 5055TIP3    H139360   4.435   5.422  18.267  1.0127  0.7810 -0.0847
 5055TIP3    H239361   4.411   5.534  18.168 -0.3419  0.0279 -0.6258
 5056TIP3   OH239362   6.383   2.981  18.598 -0.5481  0.4164 -0.1380
 5056TIP3    H139363   6.327   2.969  18.675  0.3215 -0.1259  0.4361
 5056TIP3    H239364   6.457   2.923  18.614  0.1382  1.0565 -0.9181
 5057TIP3   OH239365   5.777   3.637  18.424  0.1067  0.5328 -0.0724
 5057TIP3    H139366   5.752   3.680  18.342  0.4726 -0.2344 -0.5970
 5057TIP3    H239367   5.725   3.682  18.491 -2.1938 -0.5365 -1.0285
 5058TIP3   OH239368   5.047   7.207  17.787 -0.3792  0.6230  0.4490
 5058TIP3    H139369   5.115   7.183  17.725 -1.5322  0.3037 -0.7328
 5058TIP3    H239370   4.991   7.130  17.793  0.3097  0.2307  2.7703
 5059TIP3   OH239371   4.591   6.445  19.312 -0.1019  0.0295  0.0344
 5059TIP3    H139372   4.647   6.517  19.284 -0.5529  0.4042  0.0768
 5059TIP3    H239373   4.510   6.488  19.341 -1.3962 -0.6191 -2.3595
 5060TIP3   OH239374   3.787   6.487  16.857  0.4123  0.3617  0.6077
 5060TIP3    H139375   3.799   6.397  16.827 -1.0496  0.5139 -0.5876
 5060TIP3    H239376   3.811   6.541  16.781 -3.1233  0.7702 -0.3855
 5061TIP3   OH239377   0.167   5.528  18.158  0.3259  0.4137 -0.0865
 5061TIP3    H139378   0.186   5.435  18.170 -0.4448 -0.2845 -3.3093
 5061TIP3    H239379   0.201   5.570  18.237 -0.1936 -2.6680  1.9472
 5062TIP3   OH239380   7.473   1.629  17.166 -0.2110 -0.5011  0.0743
 5062TIP3    H139381   7.385   1.594  17.176 -0.5444  0.3069  0.0652
 5062TIP3    H239382   7.460   1.719  17.135  0.6087 -0.2903  0.3014
 5063TIP3   OH239383   5.934   1.552  17.496 -0.0765  0.5538  0.4870
 5063TIP3    H139384   5.890   1.467  17.499 -0.1263  0.6042  1.8619
 5063TIP3    H239385   5.949   1.568  17.403  0.0610 -1.0223  0.2107
 5064TIP3   OH239386   0.171   2.178  17.614  0.0797  0.2092  0.4554
 5064TIP3    H139387   0.085   2.142  17.635  0.4119 -0.8863  0.0075
 5064TIP3    H239388   0.155   2.271  17.599 -0.9041  0.1586  1.0687
 5065TIP3   OH239389   0.738   0.344  18.238 -0.0658 -0.2419 -0.0692
 5065TIP3    H139390   0.674   0.376  18.301 -1.2712  0.0437 -1.3719
 5065TIP3    H239391   0.686   0.299  18.171  1.1957 -0.9087 -0.6483
 5066TIP3   OH239392   4.237   6.662  17.560 -0.1176 -0.0450  0.8617
 5066TIP3    H139393   4.157   6.713  17.577 -0.0204  0.3130  0.2704
 5066TIP3    H239394   4.249   6.667  17.465 -0.6189 -1.9601  0.6724
 5067TIP3   OH239395   1.302   4.168  17.654  0.1516 -0.0022 -0.1062
 5067TIP3    H139396   1.392   4.140  17.634  0.3529 -0.9383  1.8578
 5067TIP3    H239397   1.249   4.089  17.642 -0.0782  0.0265  0.6322
 5068TIP3   OH239398   0.710   6.817  18.153  0.0682 -0.2204  0.0654
 5068TIP3    H139399   0.717   6.788  18.244 -1.0937  0.2165  0.3068
 5068TIP3    H239400   0.801   6.820  18.122  0.4412 -0.8696  1.0468
 5069TIP3   OH239401   3.481   4.831  19.005  0.8734  0.3446  0.4056
 5069TIP3    H139402   3.507   4.913  19.047  0.6066  1.4319 -1.4567
 5069TIP3    H239403   3.560   4.777  19.009  1.5038  1.2412  0.3530
 5070TIP3   OH239404   1.310   1.856  18.234 -0.0452  0.1016 -0.2206
 5070TIP3    H139405   1.402   1.831  18.219  0.6938  1.5385  1.4938
 5070TIP3    H239406   1.277   1.878  18.147  2.1361  2.2662 -0.6184
 5071TIP3   OH239407   5.229   7.439  16.937  0.2243  0.3722 -0.2661
 5071TIP3    H139408   5.206   7.501  17.006  0.5013 -0.9184  1.0204
 5071TIP3    H239409   5.324   7.434  16.939  0.1666 -2.6186  2.0595
 5072TIP3   OH239410   4.524   3.342  17.732 -0.0897 -0.8728 -0.8181
 5072TIP3    H139411   4.475   3.314  17.810  1.1601 -0.7401  0.0542
 5072TIP3    H239412   4.494   3.432  17.716  1.0663 -0.1288  0.7910
 5073TIP3   OH239413   0.376   3.053  17.818  0.5731 -0.3481  0.1231
 5073TIP3    H139414   0.288   3.019  17.799  1.0261 -0.3862 -2.2509
 5073TIP3    H239415   0.377   3.139  17.775  1.2580  0.2430  1.2948
 5074TIP3   OH239416   1.591   0.514  17.171 -0.1130  0.0620 -0.0619
 5074TIP3    H139417   1.519   0.522  17.109  0.1593 -0.0721 -0.3972
 5074TIP3    H239418   1.668   0.542  17.122  0.1206 -0.1378  0.1875
 5075TIP3   OH239419   2.433   0.484  18.835  0.5366 -0.3187 -0.1783
 5075TIP3    H139420   2.387   0.564  18.809  1.3390  0.5860  1.0961
 5075TIP3    H239421   2.424   0.425  18.760  1.0935  1.4610 -1.6948
 5076TIP3   OH239422   6.012   6.227  18.161 -0.2183  0.2632  0.4362
 5076TIP3    H139423   5.920   6.255  18.167 -0.3479 -0.3585  1.7137
 5076TIP3    H239424   6.052   6.261  18.241  0.5454  0.0777  0.1373
 5077TIP3   OH239425   4.488   2.083  18.117  1.0547 -0.1116  0.1678
 5077TIP3    H139426   4.468   2.149  18.183  0.2116 -0.2446  0.0610
 5077TIP3    H239427   4.555   2.124  18.062 -0.2597  1.1129 -0.5799
 5078TIP3   OH239428   6.541   3.215  17.271  0.8459 -0.1188  0.0519
 5078TIP3    H139429   6.587   3.147  17.222 -0.4915 -0.4836 -0.7571
 5078TIP3    H239430   6.450   3.207  17.243  0.6089  1.8452  0.1415
 5079TIP3   OH239431   4.654   1.929  18.994  0.0138  0.6029  0.0772
 5079TIP3    H139432   4.639   1.999  19.058  0.7223  0.0905  0.8301
 5079TIP3    H239433   4.577   1.931  18.937 -1.9218 -0.5031  2.4271
 5080TIP3   OH239434   2.967   2.850  18.064 -0.1155 -0.0205  1.2989
 5080TIP3    H139435   2.990   2.781  18.003 -0.5944  0.1337  0.9367
 5080TIP3    H239436   3.035   2.916  18.053 -0.8331  0.5352  0.0737
 5081TIP3   OH239437   1.192   3.137  19.068  0.3762 -0.0379  0.3308
 5081TIP3    H139438   1.236   3.052  19.061 -0.5006 -0.5848  1.1997
 5081TIP3    H239439   1.222   3.173  19.151  2.1749  1.3900 -0.8410
 5082TIP3   OH239440   5.996   7.206  16.401  0.2727 -0.5893 -0.4672
 5082TIP3    H139441   5.927   7.261  16.440  1.0196 -0.1822  0.2999
 5082TIP3    H239442   6.001   7.235  16.310  0.3216  0.2892 -0.1934
 5083TIP3   OH239443   1.986   6.730  18.927  0.3728 -0.0667  0.0519
 5083TIP3    H139444   2.080   6.739  18.942  0.1411  0.6433  1.1192
 5083TIP3    H239445   1.959   6.814  18.891  0.4345 -0.8497 -1.9592
 5084TIP3   OH239446   3.791   3.333  17.780 -0.0016  0.7074 -0.5670
 5084TIP3    H139447   3.794   3.288  17.864  0.1421  2.9853  0.7539
 5084TIP3    H239448   3.698   3.334  17.757 -0.1390  0.6992 -0.0372
 5085TIP3   OH239449   5.528   2.913  16.797  0.3235 -0.1636 -0.3919
 5085TIP3    H139450   5.605   2.858  16.813  0.0097 -0.2341  0.9360
 5085TIP3    H239451   5.562   3.002  16.797  0.2351 -0.1031  1.4960
 5086TIP3   OH239452   5.642   2.632  18.192  0.0410 -0.6908 -0.4257
 5086TIP3    H139453   5.644   2.712  18.245  0.0219 -0.9726 -0.0031
 5086TIP3    H239454   5.549   2.621  18.170 -0.0378 -0.9138  0.0025
 5087TIP3   OH239455   2.753   3.344  18.198  0.4278 -0.0288 -0.6712
 5087TIP3    H139456   2.723   3.338  18.107  0.5595  0.6581 -0.7699
 5087TIP3    H239457   2.681   3.308  18.249 -0.0463  0.4292 -0.9951
 5088TIP3   OH239458   4.486   0.490  18.420  0.0672  0.2823  0.1203
 5088TIP3    H139459   4.556   0.431  18.391 -0.3760 -1.1390  1.8110
 5088TIP3    H239460   4.475   0.472  18.513 -3.1787 -0.2269 -0.2446
 5089TIP3   OH239461   7.189   5.608  17.645  0.7942  0.0395  0.2522
 5089TIP3    H139462   7.238   5.538  17.600 -0.8764 -0.4573 -0.9017
 5089TIP3    H239463   7.240   5.687  17.628  0.5163 -0.2134 -2.1989
 5090TIP3   OH239464   1.308   3.186  17.500  0.7823 -0.0314  0.6117
 5090TIP3    H139465   1.320   3.180  17.405  0.4363  0.1229  0.5555
 5090TIP3    H239466   1.239   3.122  17.519  2.6266 -1.9708  1.1262
 5091TIP3   OH239467   6.486   2.620  16.539  0.1577  0.1941 -0.0887
 5091TIP3    H139468   6.499   2.540  16.590 -1.4122 -1.1457 -1.6806
 5091TIP3    H239469   6.566   2.629  16.488 -0.9785 -2.4868 -2.5845
 5092TIP3   OH239470   0.486   2.199  17.958 -0.0788 -0.1957 -0.1054
 5092TIP3    H139471   0.441   2.130  17.910 -1.1654 -0.7623  1.6059
 5092TIP3    H239472   0.573   2.204  17.919  0.0481 -2.5722 -0.2446
 5093TIP3   OH239473   3.749   3.223  18.064 -0.1860  0.2960  0.1166
 5093TIP3    H139474   3.701   3.144  18.088 -0.7566  0.4375 -0.5342
 5093TIP3    H239475   3.686   3.294  18.077 -0.0687  0.5128 -0.4687
 5094TIP3   OH239476   3.602   1.114  18.806 -0.2940  0.3438 -0.6181
 5094TIP3    H139477   3.558   1.032  18.786 -0.7470  0.4258  0.0381
 5094TIP3    H239478   3.610   1.158  18.721  1.4651 -1.0926 -1.2690
 5095TIP3   OH239479   5.877   1.912  18.055  0.7255  0.3404 -0.1118
 5095TIP3    H139480   5.957   1.865  18.033 -0.2617 -0.3113 -2.6918
 5095TIP3    H239481   5.856   1.962  17.975 -2.6360 -1.3318 -0.4384
 5096TIP3   OH239482   7.378   6.475  17.904  0.2584  0.2960 -0.1861
 5096TIP3    H139483   7.392   6.535  17.977 -1.4225  0.5208 -0.0145
 5096TIP3    H239484   7.465   6.437  17.887  0.9687  1.3701  0.9173
 5097TIP3   OH239485   4.742   4.100  18.440  0.1869  0.0553  0.1485
 5097TIP3    H139486   4.698   4.025  18.401  2.1002 -1.3963  0.6458
 5097TIP3    H239487   4.744   4.166  18.371 -0.8056 -0.6494 -0.5685
 5098TIP3   OH239488   0.269   2.269  18.339 -0.0648 -0.0807  0.0947
 5098TIP3    H139489   0.337   2.243  18.402  1.1018  0.2857 -0.9541
 5098TIP3    H239490   0.319   2.308  18.266 -1.4364  0.4529 -0.5843
 5099TIP3   OH239491   4.692   5.755  17.483 -0.2839  0.7862 -0.2924
 5099TIP3    H139492   4.740   5.798  17.554  2.5757  0.3413 -1.7906
 5099TIP3    H239493   4.654   5.828  17.433  0.6093  1.3213 -0.2155
 5100TIP3   OH239494   3.366   6.110  18.392  0.0886  0.3582 -0.3603
 5100TIP3    H139495   3.312   6.032  18.403  0.1741  0.4750  0.9572
 5100TIP3    H239496   3.319   6.162  18.327  1.4064 -1.9898 -3.4567
 5101TIP3   OH239497   6.271   5.217  17.913  0.0568 -0.4559 -0.5097
 5101TIP3    H139498   6.222   5.144  17.877 -2.8239  1.4260 -0.7198
 5101TIP3    H239499   6.221   5.245  17.990  0.6841  1.6830 -0.8046
 5102TIP3   OH239500   0.735   2.443  18.286  0.5930 -0.0861  0.2815
 5102TIP3    H139501   0.794   2.518  18.281  0.9271 -0.3890 -0.5242
 5102TIP3    H239502   0.745   2.399  18.201 -0.9375 -0.0415  0.0657
 5103TIP3   OH239503   6.624   4.189  18.983  0.1783  0.5735 -0.2194
 5103TIP3    H139504   6.565   4.219  19.051  0.2597  1.2150 -0.4236
 5103TIP3    H239505   6.647   4.100  19.008  1.2264  1.2229  1.2903
 5104TIP3   OH239506   7.521   5.549  17.524 -0.0733 -0.0895 -0.3978
 5104TIP3    H139507   7.461   5.475  17.529 -0.6708  0.3832 -0.5390
 5104TIP3    H239508   7.606   5.512  17.548 -0.2775 -0.9152 -0.9095
 5105TIP3   OH239509   6.528   6.072  18.103  0.3287  0.5910 -0.1669
 5105TIP3    H139510   6.618   6.101  18.087  0.5477  0.3480  0.6231
 5105TIP3    H239511   6.484   6.149  18.140  0.6225  0.2618  0.8943
 5106TIP3   OH239512   6.252   4.284  18.329  0.3891  0.0544 -0.1272
 5106TIP3    H139513   6.263   4.264  18.422 -0.3425  0.6544  0.0980
 5106TIP3    H239514   6.302   4.216  18.284  1.0726 -0.0207  0.7114
 5107TIP3   OH239515   6.655   1.271  17.343  0.0060 -0.0841  0.5761
 5107TIP3    H139516   6.690   1.357  17.364 -0.5700 -0.1863  2.1138
 5107TIP3    H239517   6.598   1.250  17.417  1.2151 -2.3709  0.9530
 5108TIP3   OH239518   4.811   6.826  17.233 -0.3863 -0.1344  0.1865
 5108TIP3    H139519   4.906   6.816  17.233 -0.4427 -0.7880  0.9840
 5108TIP3    H239520   4.779   6.742  17.265 -1.2439  0.0206 -0.2431
 5109TIP3   OH239521   2.181   6.235  18.366  0.7391  0.3995 -0.6209
 5109TIP3    H139522   2.208   6.177  18.295  0.8987 -1.9958  1.2752
 5109TIP3    H239523   2.093   6.206  18.390  1.6162 -0.5956  1.7520
 5110TIP3   OH239524   2.458   7.037  16.233  0.0702  0.0624  0.8099
 5110TIP3    H139525   2.458   7.133  16.229 -1.1172  0.0526 -3.2346
 5110TIP3    H239526   2.545   7.015  16.266  0.4257  2.5017  1.7185
 5111TIP3   OH239527   5.263   3.983  17.621 -0.0684 -0.4141  0.0332
 5111TIP3    H139528   5.331   3.977  17.688  0.6900  0.7398 -0.6082
 5111TIP3    H239529   5.259   3.895  17.583  0.0024 -0.8866  1.0848
 5112TIP3   OH239530   2.106   4.988  17.193  0.4905  0.1441  0.2283
 5112TIP3    H139531   2.074   5.074  17.221  1.8044  0.9351 -0.6109
 5112TIP3    H239532   2.170   4.963  17.260 -0.2167 -0.4077  0.7124
 5113TIP3   OH239533   7.354   0.694  17.098 -0.1091  0.1830 -0.1850
 5113TIP3    H139534   7.281   0.735  17.146 -1.1523 -0.1142 -1.4516
 5113TIP3    H239535   7.409   0.657  17.167 -0.6223  1.2655  0.8577
 5114TIP3   OH239536   6.613   7.496  17.887 -0.2487  0.2011  0.1064
 5114TIP3    H139537   6.612   7.426  17.822 -1.4838 -0.9779  1.3253
 5114TIP3    H239538   6.524   7.531  17.887  0.0413  0.9738  0.3727
 5115TIP3   OH239539   3.819   0.309  17.954  0.1304  0.3022  0.2554
 5115TIP3    H139540   3.809   0.351  17.868 -0.7007  0.1503  0.2674
 5115TIP3    H239541   3.908   0.274  17.953 -0.0998 -0.3147 -0.8304
 5116TIP3   OH239542   5.351   4.153  18.777  0.2660 -0.0648 -0.2549
 5116TIP3    H139543   5.337   4.077  18.834  2.3813  0.5624  1.2295
 5116TIP3    H239544   5.345   4.228  18.836  0.0967  0.7920 -1.3362
 5117TIP3   OH239545   2.595   5.296  19.243 -0.0048 -0.1852  0.5634
 5117TIP3    H139546   2.650   5.224  19.275  1.1447  1.0879  1.6023
 5117TIP3    H239547   2.639   5.375  19.275 -1.6449  0.9522  0.1130
 5118TIP3   OH239548   5.038   4.437  16.964  0.3637 -0.1905 -0.2490
 5118TIP3    H139549   5.103   4.384  17.009  0.1604  1.0436  1.6348
 5118TIP3    H239550   5.082   4.469  16.885  2.0782  0.6099  0.9814
 5119TIP3   OH239551   5.066   0.946  18.763 -0.3384 -0.7154  0.5501
 5119TIP3    H139552   5.024   0.863  18.786 -2.0239 -0.4700 -1.3576
 5119TIP3    H239553   5.142   0.921  18.709 -1.5455 -1.0531 -1.0735
 5120TIP3   OH239554   6.716   1.878  18.775 -0.4126 -0.6290  0.2190
 5120TIP3    H139555   6.675   1.915  18.853 -0.0972  0.1616  0.0232
 5120TIP3    H239556   6.810   1.886  18.792 -0.2832  1.6481 -1.1479
 5121TIP3   OH239557   4.404   5.295  17.633 -0.6789  0.5527 -0.4757
 5121TIP3    H139558   4.375   5.371  17.584 -1.2751 -0.1024 -1.1665
 5121TIP3    H239559   4.492   5.278  17.601 -0.5512  0.9412 -0.3319
 5122TIP3   OH239560   4.547   3.835  17.821  0.0521  0.2262 -0.1613
 5122TIP3    H139561   4.631   3.816  17.861 -0.2036  1.5360  1.0864
 5122TIP3    H239562   4.484   3.785  17.872 -0.1194  0.7640  0.1656
 5123TIP3   OH239563   0.048   6.748  18.372 -0.1747  0.0558  0.1352
 5123TIP3    H139564   0.072   6.819  18.312  0.9590  1.6257  2.3200
 5123TIP3    H239565   0.125   6.691  18.373 -0.9307 -1.0779 -1.3002
 5124TIP3   OH239566   6.031   0.567  18.713 -0.8863  0.3213 -0.0911
 5124TIP3    H139567   6.056   0.566  18.620 -1.7304 -0.6085 -0.3236
 5124TIP3    H239568   6.110   0.540  18.759 -0.1477  1.7750 -0.4360
 5125TIP3   OH239569   3.748   1.567  18.046 -0.2420 -0.5948  0.3597
 5125TIP3    H139570   3.748   1.662  18.060 -1.1374 -0.0965 -2.2992
 5125TIP3    H239571   3.670   1.536  18.093 -1.5027  0.4708 -0.9054
 5126TIP3   OH239572   0.763   5.759  18.620 -0.3991 -0.2063  0.1415
 5126TIP3    H139573   0.742   5.820  18.691  1.1567  0.7696 -0.1978
 5126TIP3    H239574   0.764   5.813  18.541  0.6004 -0.7198 -0.2170
 5127TIP3   OH239575   5.251   3.950  18.246  0.0018  0.4523  0.4056
 5127TIP3    H139576   5.171   3.971  18.199 -1.0845 -2.6261  0.7021
 5127TIP3    H239577   5.223   3.902  18.324  2.0404  1.1125  1.6493
 5128TIP3   OH239578   6.923   0.115  18.636 -0.6756  0.5622 -0.1632
 5128TIP3    H139579   6.832   0.133  18.615 -0.9950  0.3777  1.0424
 5128TIP3    H239580   6.931   0.131  18.730  0.4535  0.2548 -0.1855
 5129TIP3   OH239581   6.767   4.721  17.464  0.5852  0.1024  0.4915
 5129TIP3    H139582   6.786   4.685  17.551 -0.3668  0.1714  0.7410
 5129TIP3    H239583   6.833   4.789  17.451  1.0798 -0.2923  0.9196
 5130TIP3   OH239584   7.456   4.761  19.041 -0.0966  0.0249  0.0219
 5130TIP3    H139585   7.364   4.769  19.067 -0.0375  0.8410  0.0235
 5130TIP3    H239586   7.455   4.705  18.963 -0.3343 -2.0081  1.4244
 5131TIP3   OH239587   1.684   7.379  17.159  0.8080  0.0073 -0.6212
 5131TIP3    H139588   1.640   7.320  17.098 -1.4141 -0.9864  1.7447
 5131TIP3    H239589   1.776   7.351  17.158  0.1869 -2.2135 -1.0311
 5132TIP3   OH239590   7.423   0.353  17.247 -0.5093 -0.0737 -0.0561
 5132TIP3    H139591   7.504   0.405  17.249  0.1778 -1.0443 -1.3801
 5132TIP3    H239592   7.382   0.377  17.164 -0.8833 -0.6181 -0.0273
 5133TIP3   OH239593   0.240   7.242  17.837 -0.4195 -0.0378  0.0610
 5133TIP3    H139594   0.241   7.307  17.767  0.6530 -0.6437 -0.5151
 5133TIP3    H239595   0.313   7.267  17.894 -0.1226 -0.6153 -0.0571
 5134TIP3   OH239596   1.500   5.891  18.417 -0.4576 -0.6441  0.6861
 5134TIP3    H139597   1.416   5.863  18.381 -0.2260 -0.8096  0.2603
 5134TIP3    H239598   1.491   5.986  18.429 -0.0809 -0.3281 -1.1522
 5135TIP3   OH239599   0.530   3.048  18.263 -0.5433 -0.1314 -0.1530
 5135TIP3    H139600   0.589   3.047  18.187 -0.3627 -1.1617 -0.0212
 5135TIP3    H239601   0.469   3.119  18.245  0.0118  0.1791 -0.8675
 5136TIP3   OH239602   7.671   4.734  17.595 -0.2079  0.2937  0.0305
 5136TIP3    H139603   7.636   4.660  17.546  1.0119 -0.3052  0.0258
 5136TIP3    H239604   7.673   4.705  17.686  0.9351  0.0278 -0.0621
 5137TIP3   OH239605   2.968   7.600  18.826 -0.7385 -0.2379  0.6021
 5137TIP3    H139606   3.014   7.519  18.804 -2.9401 -1.1108 -1.0866
 5137TIP3    H239607   2.891   7.572  18.876 -2.1142  0.6480 -0.9192
 5138TIP3   OH239608   5.953   0.997  17.879  0.0817  0.5451 -0.0888
 5138TIP3    H139609   6.012   0.925  17.857  0.2411  0.8180 -0.5756
 5138TIP3    H239610   5.943   0.991  17.974 -0.9482 -0.9312 -0.2436
 5139TIP3   OH239611   5.088   3.454  18.893 -0.1718 -0.3642 -0.1699
 5139TIP3    H139612   5.136   3.471  18.974 -0.4118  0.9122 -0.2781
 5139TIP3    H239613   5.100   3.360  18.877 -0.0755 -0.6272  1.3117
 5140TIP3   OH239614   4.997   0.168  16.641  0.1636  0.1723 -0.2758
 5140TIP3    H139615   4.920   0.223  16.656  1.5448  2.3591 -0.6536
 5140TIP3    H239616   5.041   0.165  16.726 -0.0400 -0.6354 -0.1877
 5141TIP3   OH239617   2.053   5.519  18.119  0.0810 -0.2674  0.0910
 5141TIP3    H139618   2.045   5.425  18.104  0.5208 -0.1923 -0.6305
 5141TIP3    H239619   2.002   5.559  18.049 -1.3307  0.0242  1.2383
 5142TIP3   OH239620   5.278   7.388  18.195  0.5316  0.1274 -0.5186
 5142TIP3    H139621   5.310   7.316  18.249 -1.3782 -0.1263  0.3419
 5142TIP3    H239622   5.257   7.348  18.110  1.8518  0.1969 -0.9105
 5143TIP3   OH239623   7.003   1.752  18.239  0.0699  0.3554 -0.3053
 5143TIP3    H139624   6.980   1.841  18.266 -0.5466  0.0612  0.1785
 5143TIP3    H239625   6.928   1.699  18.267  1.4839 -0.7240  1.7324
 5144TIP3   OH239626   2.260   1.293  16.838  0.3635 -0.5794  0.1298
 5144TIP3    H139627   2.316   1.291  16.915  0.2616  0.8921  0.2744
 5144TIP3    H239628   2.218   1.379  16.841  1.1797 -0.0142 -2.1291
 5145TIP3   OH239629   3.310   5.332  18.012 -0.1695  0.2899 -0.2913
 5145TIP3    H139630   3.324   5.424  17.989  1.3889  0.5305  1.4259
 5145TIP3    H239631   3.380   5.285  17.966 -1.0472 -0.0770 -1.2786
 5146TIP3   OH239632   4.294   7.070  17.743 -0.1960  0.1291  0.1540
 5146TIP3    H139633   4.289   7.018  17.663 -0.1551 -0.4825  0.5459
 5146TIP3    H239634   4.241   7.148  17.724 -2.7355 -1.3925  0.5686
 5147TIP3   OH239635   6.616   4.050  18.100  0.7272 -0.2816 -0.3762
 5147TIP3    H139636   6.595   3.962  18.129  0.1060  0.0517  0.2139
 5147TIP3    H239637   6.607   4.105  18.178  2.1690  0.1539 -0.4808
 5148TIP3   OH239638   1.828   1.597  19.128  0.0806 -0.4383  0.0245
 5148TIP3    H139639   1.811   1.649  19.049 -1.0408 -0.5521  0.1670
 5148TIP3    H239640   1.910   1.551  19.110  0.1382 -0.0092 -0.8401
 5149TIP3   OH239641   0.986   4.712  16.039  0.0091  0.1258 -0.0722
 5149TIP3    H139642   0.932   4.781  16.076  0.8554 -0.1170  1.6789
 5149TIP3    H239643   0.945   4.631  16.069  2.0577 -0.0780  2.5570
 5150TIP3   OH239644   4.003   5.566  16.713 -0.2007  0.3212  0.9264
 5150TIP3    H139645   4.057   5.622  16.658 -1.1529 -1.0311 -1.6036
 5150TIP3    H239646   3.915   5.574  16.675 -0.4783 -2.3082  0.8169
 5151TIP3   OH239647   6.227   7.251  18.520 -0.2201  0.1674  0.7389
 5151TIP3    H139648   6.155   7.303  18.483  0.6902  0.6325 -0.4265
 5151TIP3    H239649   6.220   7.266  18.615 -0.9829  1.0955  0.5601
 5152TIP3   OH239650   1.157   4.120  18.234 -0.0839 -0.0235  0.2722
 5152TIP3    H139651   1.235   4.163  18.201  0.1919  0.1432  1.1325
 5152TIP3    H239652   1.178   4.095  18.324 -1.0201  0.0422  0.5287
 5153TIP3   OH239653   3.630   5.820  18.753 -0.1247 -0.1153  0.7516
 5153TIP3    H139654   3.633   5.735  18.708  0.1848  0.0733  0.4186
 5153TIP3    H239655   3.564   5.870  18.705  1.0318  0.5078 -0.2446
 5154TIP3   OH239656   5.801   3.436  17.838 -0.4011 -0.2855  0.8229
 5154TIP3    H139657   5.786   3.343  17.828  0.5074 -0.4581  0.9346
 5154TIP3    H239658   5.808   3.450  17.932 -0.0236 -0.1995  0.7851
 5155TIP3   OH239659   0.601   7.264  17.289  0.1907 -0.5485 -0.9835
 5155TIP3    H139660   0.676   7.268  17.229  0.3221  0.3394 -0.7819
 5155TIP3    H239661   0.530   7.227  17.237  0.7422 -1.3094 -1.2058
 5156TIP3   OH239662   2.715   6.506  17.366 -0.2985 -0.0421 -0.3109
 5156TIP3    H139663   2.663   6.540  17.438 -0.0144  1.3504 -0.7366
 5156TIP3    H239664   2.683   6.552  17.289  1.8877  1.2817 -0.5046
 5157TIP3   OH239665   3.866   1.421  17.047  0.5543 -0.1343 -0.5545
 5157TIP3    H139666   3.804   1.450  16.980  0.1590 -0.8831 -0.5247
 5157TIP3    H239667   3.939   1.383  16.999 -0.9163 -3.2112 -0.6547
 5158TIP3   OH239668   7.277   7.056  17.850  0.1955  0.1552  0.0006
 5158TIP3    H139669   7.367   7.051  17.880  0.2151 -0.6890 -0.1674
 5158TIP3    H239670   7.225   7.020  17.922 -0.1019  1.4523  0.4549
 5159TIP3   OH239671   7.059   5.015  17.040  0.1388 -0.2129  0.2268
 5159TIP3    H139672   7.136   4.974  17.002 -1.0624 -2.3713 -0.0610
 5159TIP3    H239673   7.056   5.102  17.001  1.3598 -0.7973 -1.2605
 5160TIP3   OH239674   5.429   2.406  19.315 -1.0831 -0.7193 -1.2300
 5160TIP3    H139675   5.457   2.472  19.378 -1.6821 -0.9254 -0.7352
 5160TIP3    H239676   5.489   2.332  19.330 -2.6902 -1.7375  0.8545
 5161TIP3   OH239677   2.022   2.087  17.392  0.2062  0.2897  0.2811
 5161TIP3    H139678   2.016   2.171  17.346  0.6190  0.0799 -0.1655
 5161TIP3    H239679   2.082   2.105  17.465  0.0905  0.4462  0.3390
 5162TIP3   OH239680   3.739   2.685  18.636  0.6205  1.1259 -0.5297
 5162TIP3    H139681   3.661   2.693  18.582 -0.6074  1.5278  1.2317
 5162TIP3    H239682   3.810   2.670  18.573 -0.8160  0.9528 -2.1838
 5163TIP3   OH239683   5.823   0.560  17.869 -0.0576  0.1267  0.2198
 5163TIP3    H139684   5.740   0.608  17.867 -0.5481 -0.6181  1.7200
 5163TIP3    H239685   5.890   0.628  17.879 -0.3548  0.8204 -1.9220
 5164TIP3   OH239686   2.964   3.505  18.554  0.1162 -0.5022 -0.3584
 5164TIP3    H139687   3.059   3.508  18.544  0.4671  0.0447  2.2237
 5164TIP3    H239688   2.951   3.487  18.647 -2.3413 -2.3164 -0.9569
 5165TIP3   OH239689   0.079   5.240  17.850 -0.4382  0.3198  0.2220
 5165TIP3    H139690   0.060   5.147  17.844 -0.6388  0.4062 -0.8070
 5165TIP3    H239691   0.170   5.245  17.878 -0.1297 -0.2148 -0.6526
 5166TIP3   OH239692   3.877   6.281  18.996 -0.3857 -0.0101  0.1053
 5166TIP3    H139693   3.931   6.205  18.975 -1.4235 -0.3156 -1.7481
 5166TIP3    H239694   3.920   6.322  19.071  1.0508 -1.5539  0.1788
 5167TIP3   OH239695   0.928   3.245  17.486 -0.2675 -0.2099 -0.9968
 5167TIP3    H139696   0.953   3.326  17.530 -1.3160 -1.3180  1.8555
 5167TIP3    H239697   0.839   3.262  17.454  0.0089  0.1632 -1.5932
 5168TIP3   OH239698   4.022   6.015  18.384  0.2656  0.2485  0.1310
 5168TIP3    H139699   4.005   6.096  18.430  0.6078 -0.6981  2.0069
 5168TIP3    H239700   3.937   5.972  18.377  0.5088 -0.5679  1.8268
 5169TIP3   OH239701   3.977   3.844  18.232 -0.0813 -0.4869 -0.1489
 5169TIP3    H139702   4.015   3.876  18.151 -1.0744 -0.3861 -0.5911
 5169TIP3    H239703   3.892   3.888  18.237 -0.7743 -1.8141  0.0590
 5170TIP3   OH239704   0.834   0.527  17.511  0.2424 -0.4560 -0.0120
 5170TIP3    H139705   0.900   0.528  17.441  0.3317  1.2496  0.0572
 5170TIP3    H239706   0.872   0.581  17.580 -1.5194  1.2415 -0.2818
 5171TIP3   OH239707   6.049   2.783  18.609  0.0895  0.5670  0.1172
 5171TIP3    H139708   5.967   2.803  18.656  0.3546 -1.5360  1.6448
 5171TIP3    H239709   6.114   2.841  18.649 -0.0668  0.0613  1.1587
 5172TIP3   OH239710   4.356   6.883  18.225 -0.2127 -0.1154 -0.1214
 5172TIP3    H139711   4.400   6.827  18.162  0.0495  0.7941 -0.7543
 5172TIP3    H239712   4.387   6.971  18.206 -0.8189  0.2914  0.6905
 5173TIP3   OH239713   0.478   1.460  16.896  0.5177 -0.6235  0.3658
 5173TIP3    H139714   0.484   1.365  16.902  0.3844 -0.6662 -0.1395
 5173TIP3    H239715   0.536   1.492  16.965 -1.3030 -1.0597  2.1808
 5174TIP3   OH239716   5.074   5.048  16.604 -0.3737 -0.2811 -0.4968
 5174TIP3    H139717   4.996   4.993  16.616  0.4611 -1.3526  0.2348
 5174TIP3    H239718   5.140   4.989  16.568 -0.2992  0.9520 -2.5440
 5175TIP3   OH239719   6.517   2.446  18.982  0.5144 -0.1908 -0.3719
 5175TIP3    H139720   6.485   2.412  18.898  0.4205 -0.5453 -0.1921
 5175TIP3    H239721   6.590   2.389  19.004 -1.1970 -1.9135  1.1765
 5176TIP3   OH239722   1.573   2.558  17.123  0.5977 -0.2532 -0.0754
 5176TIP3    H139723   1.537   2.493  17.063 -0.3797  1.2841 -1.2268
 5176TIP3    H239724   1.496   2.594  17.168  1.1797 -0.3071  0.9855
 5177TIP3   OH239725   0.643   5.812  16.662 -0.5042 -0.0458 -0.1630
 5177TIP3    H139726   0.655   5.906  16.677 -0.4268 -0.0271 -0.3391
 5177TIP3    H239727   0.614   5.806  16.571 -0.0894 -0.2215 -0.2892
 5178TIP3   OH239728   1.202   2.446  16.749  0.1244  0.4458  0.2153
 5178TIP3    H139729   1.291   2.439  16.714 -0.1023 -1.3212 -0.0748
 5178TIP3    H239730   1.155   2.500  16.686  0.9021  1.1285  0.2092
 5179TIP3   OH239731   0.272   0.815  18.120  0.5127  0.7089 -0.0570
 5179TIP3    H139732   0.332   0.740  18.119  2.0920  1.9239 -0.7553
 5179TIP3    H239733   0.302   0.868  18.193 -0.1971  0.9967  0.0351
 5180TIP3   OH239734   1.359   2.150  18.365  0.4923  0.1599 -0.0557
 5180TIP3    H139735   1.389   2.080  18.421 -0.9938 -0.0475  0.5210
 5180TIP3    H239736   1.358   2.112  18.277 -0.9336 -0.7669  0.3426
 5181TIP3   OH239737   2.751   6.474  18.817  0.1731  0.4850 -0.1067
 5181TIP3    H139738   2.812   6.432  18.755 -1.4073 -1.3300 -0.5323
 5181TIP3    H239739   2.701   6.535  18.764  0.2158  0.4614 -0.1751
 5182TIP3   OH239740   6.335   7.679  18.290 -0.3541  0.1048 -0.6433
 5182TIP3    H139741   6.378   7.612  18.237 -1.0777 -0.4024 -0.6059
 5182TIP3    H239742   6.242   7.668  18.271 -0.7631 -0.8807  1.6155
 5183TIP3   OH239743   1.545   1.938  17.845 -0.6809 -0.1751  0.1325
 5183TIP3    H139744   1.474   1.887  17.806 -1.0636 -0.9284  1.7220
 5183TIP3    H239745   1.623   1.884  17.834 -0.8735 -0.6004  0.7786
 5184TIP3   OH239746   3.473   4.403  19.051  0.7763 -0.8050  0.6623
 5184TIP3    H139747   3.546   4.342  19.064 -0.4578 -2.8557 -1.3211
 5184TIP3    H239748   3.436   4.379  18.966  1.8349  4.5181 -1.7157
 5185TIP3   OH239749   1.984   2.949  17.190 -0.0767 -0.1538  0.1539
 5185TIP3    H139750   1.993   3.040  17.216 -0.1215 -0.0414 -0.2090
 5185TIP3    H239751   2.074   2.919  17.176  0.0587 -0.6694  1.9034
 5186TIP3   OH239752   1.965   7.376  18.252 -0.1260  0.0987  0.0869
 5186TIP3    H139753   1.934   7.287  18.272 -0.7200 -0.0109 -1.2008
 5186TIP3    H239754   1.901   7.434  18.294 -1.7838 -0.1267 -1.9448
 5187TIP3   OH239755   0.508   3.959  17.961  0.2335  0.1819  0.5912
 5187TIP3    H139756   0.467   4.014  17.895  0.7333  0.5220  0.5603
 5187TIP3    H239757   0.455   3.879  17.963  0.2844  0.1225 -0.3013
 5188TIP3   OH239758   6.025   5.830  16.958  0.9624  0.3575  0.9511
 5188TIP3    H139759   6.038   5.838  16.863  0.7858 -0.6354  0.8334
 5188TIP3    H239760   5.930   5.827  16.969  0.9777 -1.6019  0.9406
 5189TIP3   OH239761   3.045   6.912  17.519 -0.0032 -0.3873 -0.0104
 5189TIP3    H139762   3.000   6.828  17.511 -1.0042  0.1373 -0.0916
 5189TIP3    H239763   3.089   6.924  17.434  1.2673 -1.4359  0.4789
 5190TIP3   OH239764   1.416   3.838  18.011 -0.3532  0.4216 -0.1622
 5190TIP3    H139765   1.388   3.783  18.085 -0.1071  0.5048 -0.0065
 5190TIP3    H239766   1.429   3.777  17.939 -2.5896  0.5418 -0.7507
 5191TIP3   OH239767   0.289   6.727  18.501 -0.6678  0.4365  0.4545
 5191TIP3    H139768   0.376   6.745  18.536 -1.4589  0.4059  2.5418
 5191TIP3    H239769   0.229   6.750  18.572 -2.2481 -1.6959 -0.0890
 5192TIP3   OH239770   3.150   7.476  16.835  0.2043  0.1436 -0.4288
 5192TIP3    H139771   3.150   7.569  16.858 -0.0195 -0.1198  0.6636
 5192TIP3    H239772   3.058   7.456  16.815  0.1980  0.0777 -0.3358
 5193TIP3   OH239773   1.207   1.802  17.101 -1.0066 -0.5932  0.6117
 5193TIP3    H139774   1.128   1.857  17.103 -1.1832 -0.8520  0.9906
 5193TIP3    H239775   1.275   1.860  17.068 -1.0016  0.1260  1.7833
 5194TIP3   OH239776   5.716   4.430  17.308 -0.2635  0.4227  0.0130
 5194TIP3    H139777   5.661   4.394  17.377 -0.1792 -1.0772 -0.6679
 5194TIP3    H239778   5.658   4.437  17.232  0.6717 -2.3010 -1.0616
 5195TIP3   OH239779   6.139   0.199  18.615 -0.1349  0.3341 -0.2492
 5195TIP3    H139780   6.082   0.123  18.604 -1.4883  1.3660 -0.5070
 5195TIP3    H239781   6.111   0.238  18.698 -0.2948  1.2606 -0.7344
 5196TIP3   OH239782   4.436   4.002  19.052 -0.5472  0.0480 -0.0286
 5196TIP3    H139783   4.371   4.037  19.112 -0.8552  0.1749 -0.4325
 5196TIP3    H239784   4.464   3.919  19.092  0.0448  0.6402  0.8359
 5197TIP3   OH239785   5.883   2.224  17.380  0.0211  0.6492 -0.4571
 5197TIP3    H139786   5.965   2.259  17.414  1.5044 -3.9606  1.5098
 5197TIP3    H239787   5.815   2.274  17.426  1.7613  2.3081  0.4782
 5198TIP3   OH239788   7.184   6.428  17.136 -1.1062 -0.1497  0.1707
 5198TIP3    H139789   7.201   6.335  17.116  1.6457  0.0363  1.1086
 5198TIP3    H239790   7.141   6.426  17.222  1.7351 -0.6169  1.7318
 5199TIP3   OH239791   3.161   2.490  19.091  0.9939 -0.0758 -0.4249
 5199TIP3    H139792   3.124   2.402  19.083  1.8640 -0.4964  0.0307
 5199TIP3    H239793   3.209   2.487  19.173 -1.0460  1.6119  0.9389
 5200TIP3   OH239794   6.587   6.709  19.385 -0.1708  1.0821  0.0207
 5200TIP3    H139795   6.495   6.734  19.376 -0.6952 -0.4937  0.7108
 5200TIP3    H239796   6.586   6.613  19.384  1.5290  1.0487 -0.5179
 5201TIP3   OH239797   5.744   3.881  19.012  0.1402 -0.0248  0.0959
 5201TIP3    H139798   5.703   3.795  19.021  1.6369 -0.8470 -0.5187
 5201TIP3    H239799   5.671   3.941  18.997 -0.9083 -1.2561  0.0999
 5202TIP3   OH239800   7.592   0.602  18.135 -0.4160  0.0407 -0.1008
 5202TIP3    H139801   7.511   0.589  18.183 -0.5815 -1.1822 -0.6574
 5202TIP3    H239802   7.634   0.678  18.176 -2.1994  1.2005 -0.3138
 5203TIP3   OH239803   3.812   3.491  18.261 -0.2096 -0.0837  0.3750
 5203TIP3    H139804   3.886   3.502  18.201 -0.7022 -0.5276 -0.3188
 5203TIP3    H239805   3.765   3.574  18.258 -0.0257  0.0230  0.4360
 5204TIP3   OH239806   5.092   4.525  16.534  0.1222  0.7741  0.2134
 5204TIP3    H139807   5.091   4.547  16.441 -0.0588 -0.7422 -0.1558
 5204TIP3    H239808   5.067   4.433  16.538 -1.9235  1.3160  1.9185
 5205TIP3   OH239809   1.548   3.028  19.148 -0.3457  0.8453  0.1797
 5205TIP3    H139810   1.505   3.111  19.167  1.8578  2.2242 -0.5386
 5205TIP3    H239811   1.558   3.027  19.053 -0.2989 -0.2423  0.1815
 5206TIP3   OH239812   5.284   6.158  17.549 -0.5138  0.3052 -0.7183
 5206TIP3    H139813   5.330   6.128  17.627 -1.6784 -0.4178 -0.2829
 5206TIP3    H239814   5.344   6.139  17.477 -0.3382 -1.1001 -0.2286
 5207TIP3   OH239815   0.261   0.906  17.106 -0.2816 -0.4350 -0.3318
 5207TIP3    H139816   0.179   0.873  17.141  0.0614 -1.6729 -0.6279
 5207TIP3    H239817   0.259   1.000  17.124 -0.9607 -0.7171  1.2686
 5208TIP3   OH239818   2.460   0.946  18.890  0.0533 -0.0160 -0.2518
 5208TIP3    H139819   2.492   0.860  18.917  0.7762  0.4966  0.6023
 5208TIP3    H239820   2.395   0.928  18.823 -1.8087 -1.4068  1.7839
 5209TIP3   OH239821   6.898   5.910  19.141 -0.3000 -0.3995  0.7488
 5209TIP3    H139822   6.877   5.869  19.057  1.6014  0.8309 -0.4131
 5209TIP3    H239823   6.930   5.838  19.195  1.9567 -0.7317 -0.8835
 5210TIP3   OH239824   2.702   6.997  17.666  0.2712  0.2770 -0.1505
 5210TIP3    H139825   2.622   7.027  17.708  0.4486  1.1342 -0.4155
 5210TIP3    H239826   2.756   6.962  17.737  0.2866  1.0940  0.2528
 5211TIP3   OH239827   5.839   1.000  18.117  0.3321  0.2079  0.3053
 5211TIP3    H139828   5.804   1.046  18.193  2.0765  1.3613  0.4593
 5211TIP3    H239829   5.821   0.907  18.134  0.1589  0.5070  1.8231
 5212TIP3   OH239830   3.600   2.596  18.952  0.5664  0.3799  0.4284
 5212TIP3    H139831   3.581   2.661  19.020  2.1402  1.9893 -0.5683
 5212TIP3    H239832   3.693   2.608  18.932  0.8520 -2.0007 -0.0426
 5213TIP3   OH239833   6.527   3.923  18.829  0.0196  0.2819 -0.0587
 5213TIP3    H139834   6.580   3.893  18.903  0.7067  0.2106 -0.5737
 5213TIP3    H239835   6.442   3.943  18.868  0.2579 -0.1037  0.6900
 5214TIP3   OH239836   5.001   0.681  18.788  0.1973 -0.5766 -0.2394
 5214TIP3    H139837   5.073   0.620  18.774 -0.7229 -1.5579 -0.8508
 5214TIP3    H239838   4.927   0.626  18.812 -1.0686  0.0938 -2.3004
 5215TIP3   OH239839   0.117   5.781  18.505 -0.1199  0.0597 -0.1406
 5215TIP3    H139840   0.056   5.717  18.542 -1.4808  2.7595  2.8741
 5215TIP3    H239841   0.076   5.808  18.423 -0.3642 -1.6807 -0.6247
 5216TIP3   OH239842   5.867   1.980  19.163  0.5217  0.5061  0.0671
 5216TIP3    H139843   5.790   2.019  19.121  0.8886  2.2632  0.9575
 5216TIP3    H239844   5.852   1.886  19.155 -0.0945  0.7421 -2.7431
 5217TIP3   OH239845   6.522   7.159  18.624 -0.8505 -0.3842  0.2649
 5217TIP3    H139846   6.480   7.185  18.706 -0.4771 -0.4256  0.4689
 5217TIP3    H239847   6.461   7.188  18.556 -1.6772 -1.2954  0.5934
 5218TIP3   OH239848   2.011   3.364  18.677 -0.7646  0.3387 -0.2627
 5218TIP3    H139849   1.917   3.350  18.690 -0.7338  1.7919  2.1096
 5218TIP3    H239850   2.018   3.393  18.586 -2.5868  0.0035 -0.5473
 5219TIP3   OH239851   5.610   6.361  16.930  0.1023 -0.1181 -0.2757
 5219TIP3    H139852   5.620   6.431  16.866 -0.1971  0.6148  0.4618
 5219TIP3    H239853   5.671   6.384  17.000  0.7694 -1.1562 -0.4962
 5220TIP3   OH239854   7.229   2.149  17.337 -0.0624  0.1171 -0.3442
 5220TIP3    H139855   7.224   2.101  17.254 -1.0999  0.6217 -0.5916
 5220TIP3    H239856   7.266   2.234  17.312 -2.4604  1.1413 -0.7467
 5221TIP3   OH239857   1.203   2.533  17.995  0.3282 -0.8346  0.0582
 5221TIP3    H139858   1.138   2.499  17.933 -0.3076 -1.7654  1.1881
 5221TIP3    H239859   1.259   2.458  18.014  0.0221 -0.7840  1.2092
 5222TIP3   OH239860   3.372   7.323  16.847  0.4905 -0.0376  0.6441
 5222TIP3    H139861   3.294   7.377  16.857  0.9850  0.5312  1.5374
 5222TIP3    H239862   3.431   7.376  16.794  0.8777  0.2113  1.3097
 5223TIP3   OH239863   1.055   7.546  17.226  0.6977  0.3238 -0.2840
 5223TIP3    H139864   1.076   7.574  17.136 -0.7396 -1.8396 -1.3734
 5223TIP3    H239865   1.092   7.458  17.232  0.0392  0.1171  0.9701
 5224TIP3   OH239866   2.504   4.870  18.913 -0.1087  0.1097  0.2374
 5224TIP3    H139867   2.427   4.894  18.964  0.0882 -1.6520  1.4588
 5224TIP3    H239868   2.568   4.938  18.933 -0.7618  0.6286  0.6010
 5225TIP3   OH239869   7.397   2.501  17.778 -0.1950  0.0877  0.8660
 5225TIP3    H139870   7.312   2.525  17.741  1.0754  0.2178 -2.2493
 5225TIP3    H239871   7.395   2.535  17.868 -3.2902  0.3032  0.8110
 5226TIP3   OH239872   6.613   5.806  17.901  0.2815 -0.1970  0.4766
 5226TIP3    H139873   6.657   5.778  17.821  0.5743  0.7991  0.2748
 5226TIP3    H239874   6.677   5.859  17.948 -0.2791  0.2284  0.7852
 5227TIP3   OH239875   6.734   3.220  17.484  0.2060 -0.1774 -0.5686
 5227TIP3    H139876   6.653   3.223  17.433 -0.9707  1.7631  1.2583
 5227TIP3    H239877   6.754   3.312  17.503  1.7388 -0.7215  0.6686
 5228TIP3   OH239878   0.909   4.975  18.266 -0.0891 -0.1283  0.8080
 5228TIP3    H139879   0.898   4.883  18.242 -1.6678  0.2199  0.0982
 5228TIP3    H239880   0.963   5.012  18.197 -0.0194 -0.3714  0.7323
 5229TIP3   OH239881   0.891   5.913  19.436 -0.0178 -0.0850  0.5290
 5229TIP3    H139882   0.923   5.827  19.462  0.5061  0.1862  0.8036
 5229TIP3    H239883   0.963   5.950  19.385 -0.3544  0.0768  0.1655
 5230TIP3   OH239884   0.531   4.254  18.846  0.1005 -0.4078 -0.2751
 5230TIP3    H139885   0.588   4.325  18.816  2.0870 -2.0207 -0.5215
 5230TIP3    H239886   0.503   4.211  18.765 -0.2429 -0.5478 -0.0834
 5231TIP3   OH239887   3.111   1.883  17.384 -0.3828 -0.1900  0.4554
 5231TIP3    H139888   3.148   1.850  17.303  0.3044 -1.6546  1.3244
 5231TIP3    H239889   3.069   1.807  17.425 -1.2271  0.6385  1.2078
 5232TIP3   OH239890   7.250   2.835  18.432 -0.1257  0.1102 -0.4612
 5232TIP3    H139891   7.311   2.781  18.481  0.7378  0.8849 -0.6512
 5232TIP3    H239892   7.294   2.851  18.348 -1.1527 -0.3846 -1.1191
 5233TIP3   OH239893   3.384   3.714  18.822 -0.1082 -0.0822 -0.3394
 5233TIP3    H139894   3.321   3.677  18.759 -0.6922 -1.2256  0.8650
 5233TIP3    H239895   3.438   3.773  18.770 -2.0363  0.7747 -1.4648
 5234TIP3   OH239896   3.636   4.187  19.014 -0.4928 -0.3281  0.4529
 5234TIP3    H139897   3.704   4.187  19.082 -1.1370 -0.8457  1.1038
 5234TIP3    H239898   3.581   4.112  19.035 -0.3868 -0.8352 -0.9743
 5235TIP3   OH239899   4.792   4.002  19.116  0.0230  0.3239  0.3269
 5235TIP3    H139900   4.759   4.060  19.048 -2.3708 -0.3261  0.8521
 5235TIP3    H239901   4.775   3.914  19.082  0.9670 -0.0408  0.7755
 5236TIP3   OH239902   2.999   5.294  18.530  0.2175  0.0228 -0.0422
 5236TIP3    H139903   3.061   5.223  18.550  2.8217  1.8930 -0.8937
 5236TIP3    H239904   3.011   5.357  18.601 -0.1081  0.7710 -0.6319
 5237TIP3   OH239905   1.632   6.615  18.481 -0.1536  0.4979  0.1909
 5237TIP3    H139906   1.690   6.613  18.405  1.7536  2.0620  1.5008
 5237TIP3    H239907   1.609   6.523  18.496  2.2876 -0.2452 -0.2078
 5238TIP3   OH239908   5.076   0.593  17.651 -0.2346 -0.2311 -0.2461
 5238TIP3    H139909   5.141   0.649  17.693 -0.3549  0.1633 -0.5835
 5238TIP3    H239910   5.094   0.506  17.686  0.5418 -0.1479 -0.4130
 5239TIP3   OH239911   3.675   3.862  17.792  0.5308 -0.6349  0.6329
 5239TIP3    H139912   3.646   3.778  17.757  0.7493 -0.5141  0.1458
 5239TIP3    H239913   3.627   3.872  17.874 -0.5645 -0.5740  0.0026
 5240TIP3   OH239914   5.198   7.116  16.866 -0.6439 -0.0387 -0.2944
 5240TIP3    H139915   5.216   7.176  16.794  0.4152 -0.9693 -0.8414
 5240TIP3    H239916   5.212   7.167  16.945  0.5948  0.3399 -0.7497
 5241TIP3   OH239917   7.523   7.124  17.954 -0.4053  0.2463  0.0413
 5241TIP3    H139918   7.557   7.213  17.961 -0.0467  0.2469 -1.4242
 5241TIP3    H239919   7.600   7.071  17.933 -0.4939 -0.5327  1.5748
 5242TIP3   OH239920   1.483   5.072  19.016 -0.3719  0.0975  0.7488
 5242TIP3    H139921   1.427   5.001  18.986 -1.6515  0.4547  2.2043
 5242TIP3    H239922   1.439   5.107  19.094  1.1786  1.2728  1.1503
 5243TIP3   OH239923   0.122   7.490  18.951 -0.7478  0.3327 -0.0720
 5243TIP3    H139924   0.069   7.489  19.031 -0.7450  2.1701 -0.0134
 5243TIP3    H239925   0.198   7.435  18.973 -0.8390  0.6550  1.1280
 5244TIP3   OH239926   6.369   3.059  16.842  0.4149 -0.0078  0.4066
 5244TIP3    H139927   6.391   2.974  16.805 -0.2247 -0.1258  0.2850
 5244TIP3    H239928   6.312   3.040  16.916 -0.2411  0.3357 -0.0023
 5245TIP3   OH239929   1.299   5.097  16.437 -0.1711 -0.2071  0.3521
 5245TIP3    H139930   1.290   5.181  16.391  0.8385 -0.6918 -0.7880
 5245TIP3    H239931   1.382   5.105  16.485 -0.4033 -0.3161  0.7749
 5246TIP3   OH239932   3.110   0.235  19.219 -0.2714 -0.2574  0.2305
 5246TIP3    H139933   3.024   0.243  19.178 -0.9278  1.5798  1.8299
 5246TIP3    H239934   3.115   0.308  19.280  1.8246 -1.1888  1.2943
 5247TIP3   OH239935   6.591   7.480  17.352 -0.4407  0.4240 -0.3931
 5247TIP3    H139936   6.552   7.433  17.278  0.2056  0.1651 -0.5770
 5247TIP3    H239937   6.685   7.470  17.339 -0.0126  4.9816 -2.6171
 5248TIP3   OH239938   2.494   6.340  18.081 -0.4183 -0.4465  0.6218
 5248TIP3    H139939   2.489   6.363  18.173 -0.3970 -1.4615  0.8910
 5248TIP3    H239940   2.529   6.251  18.080  0.6110 -0.0614 -0.4226
 5249TIP3   OH239941   0.557   2.078  17.077  0.1613  0.5503  0.0959
 5249TIP3    H139942   0.625   2.012  17.093 -0.7812 -0.5670 -0.3324
 5249TIP3    H239943   0.567   2.099  16.984 -0.0485  0.4096  0.0411
 5250TIP3   OH239944   5.968   3.985  17.534 -0.2295  0.5314 -0.5551
 5250TIP3    H139945   5.956   4.080  17.524 -0.1274  0.4681 -1.3347
 5250TIP3    H239946   5.987   3.954  17.445  1.2566 -0.0047 -0.0768
 5251TIP3   OH239947   1.181   2.277  18.578 -0.1340 -0.2924  0.1095
 5251TIP3    H139948   1.203   2.234  18.495 -0.9142 -0.6100  0.0647
 5251TIP3    H239949   1.164   2.206  18.639  0.8664 -0.0665  0.6744
 5252TIP3   OH239950   5.768   7.264  19.160 -0.2769 -0.0755 -0.1404
 5252TIP3    H139951   5.702   7.208  19.119 -0.8824  0.5245 -0.0045
 5252TIP3    H239952   5.741   7.271  19.251  0.8835 -1.1354  0.3158
 5253TIP3   OH239953   1.300   3.182  18.352  0.4002  0.9422 -0.5053
 5253TIP3    H139954   1.309   3.119  18.281 -0.9971 -0.0399  0.1586
 5253TIP3    H239955   1.329   3.135  18.430 -2.5880  0.3245  0.3539
 5254TIP3   OH239956   5.426   2.844  18.875  0.0985  0.0511  0.2911
 5254TIP3    H139957   5.448   2.917  18.818  1.4430  0.1181  0.8541
 5254TIP3    H239958   5.348   2.805  18.836 -0.5859  1.6963 -0.0895
 5255TIP3   OH239959   3.503   4.122  16.898 -0.2168 -0.3169  0.2864
 5255TIP3    H139960   3.457   4.039  16.888 -1.5554  0.4852 -0.6420
 5255TIP3    H239961   3.536   4.142  16.810  2.0655 -0.9084  0.9366
 5256TIP3   OH239962   7.204   6.560  19.163 -0.0564  0.4988  0.4292
 5256TIP3    H139963   7.203   6.506  19.243  0.7709  0.0601  0.1542
 5256TIP3    H239964   7.130   6.527  19.111  0.6544 -0.6384  0.1031
 5257TIP3   OH239965   1.676   4.147  16.363 -0.8224 -0.1530 -0.3378
 5257TIP3    H139966   1.746   4.145  16.297 -0.3372  0.5787  0.1350
 5257TIP3    H239967   1.707   4.088  16.432 -1.1255 -0.5748 -0.5579
 5258TIP3   OH239968   1.170   5.282  18.271  0.0966  0.6480  0.1703
 5258TIP3    H139969   1.169   5.235  18.188 -1.0190  1.5335 -0.3523
 5258TIP3    H239970   1.224   5.359  18.255 -1.3903  1.6515 -0.2633
 5259TIP3   OH239971   1.264   1.677  18.892 -0.5352  0.0291  0.1504
 5259TIP3    H139972   1.245   1.649  18.981 -0.8897  2.0930  0.7865
 5259TIP3    H239973   1.357   1.702  18.894 -0.5489  0.0997 -0.0579
 5260TIP3   OH239974   7.577   0.464  17.885  0.1981 -0.5375 -0.3487
 5260TIP3    H139975   7.612   0.522  17.953 -0.6998  0.2533 -0.5443
 5260TIP3    H239976   7.588   0.376  17.921  2.6950 -0.3723 -0.5371
 5261TIP3   OH239977   5.910   3.775  19.237 -0.8797 -0.0814  0.0255
 5261TIP3    H139978   5.858   3.836  19.184 -1.8673  1.1202  2.2323
 5261TIP3    H239979   5.994   3.819  19.248 -1.0067  0.1142  0.2272
 5262TIP3   OH239980   6.940   1.061  17.597 -0.3515 -0.6488  0.2505
 5262TIP3    H139981   6.951   0.966  17.594  0.1219 -0.6039  0.4595
 5262TIP3    H239982   6.851   1.074  17.631 -0.8696 -1.0204 -0.9284
 5263TIP3   OH239983   3.247   5.909  18.043 -0.5492 -0.2828 -0.8265
 5263TIP3    H139984   3.163   5.865  18.054 -0.9813  0.9141  1.3529
 5263TIP3    H239985   3.312   5.846  18.074 -0.8364 -0.5175 -0.7001
 5264TIP3   OH239986   3.103   2.595  18.575  0.4452  0.5890 -0.0965
 5264TIP3    H139987   3.188   2.568  18.611  0.9079  1.1719 -0.7246
 5264TIP3    H239988   3.122   2.618  18.484 -0.1288  2.0214  0.1215
 5265TIP3   OH239989   1.301   5.642  17.510  0.8028 -0.2868  0.3104
 5265TIP3    H139990   1.396   5.635  17.502  0.6086 -1.5680 -1.3899
 5265TIP3    H239991   1.270   5.646  17.419 -0.8082 -0.4569  0.8240
 5266TIP3   OH239992   1.891   3.193  19.079  0.0357 -0.0509 -0.6878
 5266TIP3    H139993   1.971   3.210  19.030 -0.1114 -1.7422 -1.6239
 5266TIP3    H239994   1.899   3.102  19.107 -0.1110  0.7135  2.1018
 5267TIP3   OH239995   3.962   0.331  19.331 -0.1487 -0.1556  0.4063
 5267TIP3    H139996   3.909   0.409  19.317 -0.5480 -0.7004 -1.4616
 5267TIP3    H239997   3.898   0.260  19.342  0.2127 -0.3845  1.1502
 5268TIP3   OH239998   2.212   6.969  16.909 -1.1273  0.2372  0.3324
 5268TIP3    H139999   2.142   6.951  16.846 -1.0152 -0.3871  0.3807
 5268TIP3    H240000   2.284   6.913  16.881 -0.7071  0.7398  0.3941
 5269TIP3   OH240001   7.304   4.488  18.148  0.4953  0.2885 -0.3028
 5269TIP3    H140002   7.305   4.392  18.142  2.1384  0.3202 -1.2147
 5269TIP3    H240003   7.289   4.517  18.058 -1.6749  0.9283  0.2175
 5270TIP3   OH240004   2.785   2.075  18.559  0.2590 -0.0474 -0.0562
 5270TIP3    H140005   2.788   2.170  18.572  2.3092 -0.1871  0.9641
 5270TIP3    H240006   2.756   2.064  18.469  0.1652  1.5642 -0.2532
 5271TIP3   OH240007   7.574   3.524  18.940 -0.2114  0.2009  0.3911
 5271TIP3    H140008   7.571   3.616  18.914 -2.6815  0.5527  1.6513
 5271TIP3    H240009   7.610   3.526  19.028  1.3569 -0.2714 -0.2016
 5272TIP3   OH240010   3.491   4.628  18.797  0.4907  0.5628 -0.5101
 5272TIP3    H140011   3.510   4.714  18.833 -0.1547  0.3052  0.4799
 5272TIP3    H240012   3.449   4.580  18.869 -0.0724 -0.2407 -1.3490
 5273TIP3   OH240013   5.765   7.462  17.973 -0.0837 -0.4579  0.3004
 5273TIP3    H140014   5.721   7.479  17.890  0.2559 -0.6446  0.0808
 5273TIP3    H240015   5.714   7.511  18.037 -0.2349 -0.1528 -0.0460
 5274TIP3   OH240016   0.274   2.072  17.368 -0.2612  0.1925 -0.3253
 5274TIP3    H140017   0.232   2.095  17.451 -1.9136 -2.8272 -0.2099
 5274TIP3    H240018   0.368   2.081  17.386 -0.6162  0.8587  1.4249
 5275TIP3   OH240019   3.340   0.861  17.917 -0.5174  0.8037  0.4229
 5275TIP3    H140020   3.354   0.818  17.833  1.2409 -1.4145  1.7184
 5275TIP3    H240021   3.373   0.950  17.904  0.8157  0.1621 -0.9588
 5276TIP3   OH240022   5.613   4.594  18.075  0.5667  0.3073  0.1741
 5276TIP3    H140023   5.571   4.643  18.005 -0.4889 -0.0771  0.5214
 5276TIP3    H240024   5.707   4.606  18.060  0.3360  1.5917 -0.3293
 5277TIP3   OH240025   0.395   2.909  19.096  0.0243  0.0162  0.0891
 5277TIP3    H140026   0.471   2.906  19.038 -0.2974  0.8475 -0.3969
 5277TIP3    H240027   0.408   2.988  19.148 -0.1618 -0.2173  0.4950
 5278TIP3   OH240028   2.316   3.816  17.811  0.0091 -0.1642 -0.3291
 5278TIP3    H140029   2.331   3.754  17.883  1.8127  1.0226  0.3900
 5278TIP3    H240030   2.254   3.771  17.754 -0.9777 -1.4237  1.6077
 5279TIP3   OH240031   0.815   2.001  17.715 -0.0451 -0.3751 -0.2526
 5279TIP3    H140032   0.766   1.921  17.697  1.0138 -1.0896 -0.0372
 5279TIP3    H240033   0.874   2.011  17.641 -0.5093  0.4855 -0.5194
 5280TIP3   OH240034   0.139   0.183  18.839  0.1715 -0.0469  0.2585
 5280TIP3    H140035   0.213   0.243  18.834  0.5556 -0.4940  0.4872
 5280TIP3    H240036   0.158   0.117  18.773  0.8973 -1.1624  1.5305
 5281TIP3   OH240037   0.254   1.849  18.970 -0.2491  0.7936  0.4746
 5281TIP3    H140038   0.185   1.805  19.018  0.1157 -0.7869 -0.3900
 5281TIP3    H240039   0.241   1.822  18.879 -1.2251  4.0901 -0.4901
 5282TIP3   OH240040   2.871   0.258  17.400 -0.6080  0.0725 -0.2495
 5282TIP3    H140041   2.890   0.318  17.327 -0.6536  0.4259  0.0286
 5282TIP3    H240042   2.894   0.307  17.478 -3.0902  0.7541  0.1651
 5283TIP3   OH240043   3.902   3.592  16.510 -0.1777 -0.0618 -0.0415
 5283TIP3    H140044   3.915   3.670  16.564 -2.1833  0.5560 -0.3692
 5283TIP3    H240045   3.986   3.578  16.466  1.0482  0.2962  2.0555
 5284TIP3   OH240046   6.540   6.535  17.118 -0.5992  0.6536  0.2859
 5284TIP3    H140047   6.572   6.578  17.039  1.2642 -1.4471 -0.2016
 5284TIP3    H240048   6.463   6.485  17.089  0.7631 -1.0702 -0.5818
 5285TIP3   OH240049   0.356   4.789  18.572  0.4213  0.3735 -0.0662
 5285TIP3    H140050   0.433   4.733  18.581 -0.0068 -0.0005  1.4520
 5285TIP3    H240051   0.391   4.878  18.571  1.1100  0.1525 -2.5379
 5286TIP3   OH240052   4.536   4.565  17.542 -0.4833 -0.2613 -0.4225
 5286TIP3    H140053   4.558   4.514  17.464  0.4441  0.7460 -0.8460
 5286TIP3    H240054   4.449   4.534  17.567 -0.3700 -1.3129 -1.2598
 5287TIP3   OH240055   6.397   3.793  17.948  0.3104  0.3198  0.0139
 5287TIP3    H140056   6.412   3.887  17.938  2.0076  0.0498 -0.3626
 5287TIP3    H240057   6.404   3.759  17.859  1.6789 -0.3870  0.3649
 5288TIP3   OH240058   1.845   1.245  16.899 -0.0946  0.4120  0.0465
 5288TIP3    H140059   1.910   1.219  16.833  0.4129  0.3839  0.5546
 5288TIP3    H240060   1.775   1.284  16.848  0.1579  0.1163 -0.5437
 5289TIP3   OH240061   7.227   1.589  18.886  0.6427  0.4946  0.4313
 5289TIP3    H140062   7.300   1.645  18.912 -0.9315  2.5214  0.7510
 5289TIP3    H240063   7.237   1.578  18.792  1.2251  0.9255  0.4376
 5290TIP3   OH240064   6.297   2.090  18.336  0.5718 -0.8435 -0.4915
 5290TIP3    H140065   6.222   2.147  18.319  0.7024 -0.2078  0.8856
 5290TIP3    H240066   6.311   2.098  18.431  2.5943 -0.6787 -0.7718
 5291TIP3   OH240067   6.562   6.954  17.496  0.3810  0.0873  0.2325
 5291TIP3    H140068   6.595   6.907  17.420 -1.2175 -1.9045  0.6861
 5291TIP3    H240069   6.601   7.041  17.489  2.5186 -0.9101 -1.2966
 5292TIP3   OH240070   0.517   7.671  19.098  0.5046 -0.5435 -0.3106
 5292TIP3    H140071   0.511   7.582  19.134  0.0443 -0.1304  0.6674
 5292TIP3    H240072   0.443   7.718  19.137  1.5106  0.6372  0.2359
 5293TIP3   OH240073   7.477   2.752  18.530  0.1065 -0.0447  0.2916
 5293TIP3    H140074   7.536   2.777  18.601  1.1227 -2.6994  0.4926
 5293TIP3    H240075   7.515   2.792  18.452  1.7198 -0.9214  0.5657
 5294TIP3   OH240076   3.147   3.052  18.504 -0.0028  0.1021  0.4743
 5294TIP3    H140077   3.079   3.018  18.445 -1.5296  0.6739  1.8173
 5294TIP3    H240078   3.170   3.138  18.467 -2.2697  1.2814  1.6088
 5295TIP3   OH240079   1.734   1.653  18.828 -0.0889  0.2100 -0.2925
 5295TIP3    H140080   1.757   1.571  18.786 -0.2729 -0.2525  0.4882
 5295TIP3    H240081   1.733   1.717  18.757 -0.8901 -0.6359 -1.0659
 5296TIP3   OH240082   2.911   7.030  17.154  0.2102  0.2687 -0.4060
 5296TIP3    H140083   2.904   7.107  17.098 -0.1589  1.2620  0.9413
 5296TIP3    H240084   2.878   7.060  17.239 -1.9435 -1.9362 -0.3690
 5297TIP3   OH240085   5.678   6.335  17.645  0.3391 -0.2211 -0.1379
 5297TIP3    H140086   5.622   6.288  17.707  0.3332 -1.5284 -1.1063
 5297TIP3    H240087   5.664   6.427  17.666 -1.0915 -0.5680  0.5758
 5298TIP3   OH240088   3.869   4.443  17.710 -0.1631 -0.3265 -0.1057
 5298TIP3    H140089   3.858   4.366  17.654 -1.0673 -1.0794  1.0517
 5298TIP3    H240090   3.785   4.452  17.754  0.1673  0.9265  0.2928
 5299TIP3   OH240091   2.308   1.869  17.548  0.2204 -0.2038 -0.4295
 5299TIP3    H140092   2.364   1.835  17.479  2.8974  0.6952  1.1625
 5299TIP3    H240093   2.259   1.793  17.579  2.3499 -1.6027 -0.3178
 5300TIP3   OH240094   1.889   2.532  17.521  0.4218 -0.2566 -0.1696
 5300TIP3    H140095   1.874   2.463  17.586  0.4096  0.8136  0.9914
 5300TIP3    H240096   1.809   2.533  17.469 -0.2652  0.0054  0.8719
 5301TIP3   OH240097   6.659   4.715  17.767  0.2147  0.3508  0.1549
 5301TIP3    H140098   6.723   4.699  17.836  1.2617  0.0430 -0.8456
 5301TIP3    H240099   6.668   4.809  17.748  1.9667 -0.0701 -1.4350
 5302TIP3   OH240100   0.284   4.379  16.625 -0.0366 -0.7568 -0.7581
 5302TIP3    H140101   0.359   4.350  16.677 -1.5183 -1.2147  1.2795
 5302TIP3    H240102   0.248   4.298  16.589 -3.1489 -1.6198  3.5072
 5303TIP3   OH240103   5.192   7.143  18.632  0.1468  0.3845 -0.2549
 5303TIP3    H140104   5.157   7.232  18.641  0.5038  0.4330  0.7543
 5303TIP3    H240105   5.134   7.102  18.568  0.1232  1.4108 -0.9314
 5304TIP3   OH240106   2.713   2.100  18.293  0.1149 -0.7835 -0.1943
 5304TIP3    H140107   2.621   2.080  18.280  0.0428 -0.9740  0.5638
 5304TIP3    H240108   2.737   2.156  18.218  0.0484 -2.7909 -1.7956
 5305TIP3   OH240109   5.735   7.310  17.446 -0.2326 -0.2424  0.3960
 5305TIP3    H140110   5.672   7.239  17.434 -0.2990 -0.5664  2.3127
 5305TIP3    H240111   5.743   7.350  17.359 -0.7097 -2.1451 -0.5861
 5306TIP3   OH240112   3.846   6.837  17.380 -0.7088 -0.2581 -0.2415
 5306TIP3    H140113   3.762   6.842  17.335 -1.0219  0.1676  0.3873
 5306TIP3    H240114   3.844   6.908  17.444  0.5142  0.3813 -0.8816
 5307TIP3   OH240115   4.531   2.283  18.797 -0.0340  0.1661 -0.1612
 5307TIP3    H140116   4.463   2.253  18.857 -0.5905 -0.1928 -0.9696
 5307TIP3    H240117   4.505   2.372  18.774  2.5603  2.2315  3.6912
 5308TIP3   OH240118   2.324   7.572  18.375 -0.4385  0.0739 -0.2839
 5308TIP3    H140119   2.272   7.544  18.300 -0.7991 -1.5905  0.5383
 5308TIP3    H240120   2.260   7.584  18.445 -0.1255  1.7646 -0.2530
 5309TIP3   OH240121   3.030   1.422  18.321  0.7036 -0.1572  0.0924
 5309TIP3    H140122   3.109   1.477  18.327  1.0614 -0.6909  0.4159
 5309TIP3    H240123   2.987   1.450  18.240  0.7327  0.7884  0.4012
 5310TIP3   OH240124   4.409   7.644  17.753  0.1291 -0.4911 -0.2092
 5310TIP3    H140125   4.496   7.607  17.738  0.4974  0.5427 -0.7489
 5310TIP3    H240126   4.368   7.585  17.817  1.8292 -0.1042  1.3321
 5311TIP3   OH240127   6.815   7.335  18.176 -0.3443 -0.1233  0.2857
 5311TIP3    H140128   6.780   7.423  18.183  2.9897  1.2504  2.5285
 5311TIP3    H240129   6.819   7.317  18.082 -2.9132  1.2248 -0.1469
 5312TIP3   OH240130   1.568   3.642  16.718  0.6792 -0.0730 -0.4959
 5312TIP3    H140131   1.532   3.631  16.806  0.9117 -1.1017 -0.5231
 5312TIP3    H240132   1.660   3.617  16.727  0.7821  0.1358 -0.9669
 5313TIP3   OH240133   2.870   5.112  17.094 -0.3859 -0.0350  0.5148
 5313TIP3    H140134   2.805   5.101  17.024 -0.5542  0.8512  0.5258
 5313TIP3    H240135   2.953   5.120  17.048 -0.4093 -0.1577  0.4514
 5314TIP3   OH240136   3.388   4.458  19.538 -0.2940 -0.0238  0.3329
 5314TIP3    H140137   3.360   4.464  19.446 -2.6267 -1.3617  0.8812
 5314TIP3    H240138   3.374   4.546  19.572 -0.8443  0.1190 -0.2335
 5315TIP3   OH240139   0.129   0.706  17.634  0.1426  0.0336 -0.0469
 5315TIP3    H140140   0.135   0.666  17.547  0.2849 -0.9468  0.4010
 5315TIP3    H240141   0.194   0.659  17.686  2.2965  2.6372 -0.1339
 5316TIP3   OH240142   3.086   3.846  18.970  0.3889 -0.0445 -0.0154
 5316TIP3    H140143   3.000   3.806  18.960 -0.6864  2.4707 -1.8322
 5316TIP3    H240144   3.073   3.915  19.035  0.3915  1.7801 -1.8542
 5317TIP3   OH240145   0.783   4.826  17.115 -0.1711 -0.0065 -0.8663
 5317TIP3    H140146   0.848   4.803  17.182 -0.4776 -1.6827 -1.0912
 5317TIP3    H240147   0.829   4.885  17.056  0.4967  0.4840  0.1134
 5318TIP3   OH240148   1.971   0.581  18.191 -0.5632  0.0478 -0.7002
 5318TIP3    H140149   1.963   0.674  18.169 -1.4430 -0.5882 -3.6008
 5318TIP3    H240150   2.064   0.568  18.209 -0.2446  1.2953 -1.3541
 5319TIP3   OH240151   7.194   1.953  18.548 -0.6116  0.1248 -0.3896
 5319TIP3    H140152   7.217   2.010  18.622  0.2429  0.4721 -0.8998
 5319TIP3    H240153   7.134   2.006  18.495  0.0208  0.4909 -0.7560
 5320TIP3   OH240154   1.967   4.140  19.205 -0.0218 -0.4548  0.6210
 5320TIP3    H140155   1.964   4.044  19.197  1.1706 -0.3880 -1.2023
 5320TIP3    H240156   2.058   4.163  19.188 -0.4663  1.0688  0.1252
 5321TIP3   OH240157   5.587   5.076  17.970  0.0197  0.5753 -0.4074
 5321TIP3    H140158   5.662   5.028  17.936 -0.3753 -0.5803  0.2865
 5321TIP3    H240159   5.515   5.053  17.912 -0.8399 -2.0075  1.4685
 5322TIP3   OH240160   2.574   5.088  18.104  0.1698 -0.7200  0.2720
 5322TIP3    H140161   2.563   5.081  18.009  2.0599 -1.2718  0.0543
 5322TIP3    H240162   2.526   5.168  18.127  3.4439  2.2334 -1.9400
 5323TIP3   OH240163   2.016   3.430  18.038 -0.1543  0.4783  0.0534
 5323TIP3    H140164   2.029   3.510  18.089 -1.4052 -0.2593  1.6210
 5323TIP3    H240165   2.097   3.381  18.051 -1.1777 -0.6547  3.2706
 5324TIP3   OH240166   5.798   0.873  17.338 -0.0644 -0.1787  0.1761
 5324TIP3    H140167   5.741   0.799  17.360  0.1593 -0.1354  0.9507
 5324TIP3    H240168   5.748   0.950  17.367  0.3094 -0.1291  0.7055
 5325TIP3   OH240169   3.796   0.863  18.742 -0.0960  0.1279 -0.2104
 5325TIP3    H140170   3.797   0.874  18.646 -1.8193  1.2567 -0.1571
 5325TIP3    H240171   3.887   0.874  18.768  0.2321  1.1074 -1.6212
 5326TIP3   OH240172   5.264   2.907  18.493 -0.4276 -0.1273  0.2907
 5326TIP3    H140173   5.263   2.902  18.398 -1.0329 -0.5911  0.3226
 5326TIP3    H240174   5.251   3.000  18.512  0.6892  0.1229 -0.0880
 5327TIP3   OH240175   6.086   6.581  18.081 -0.1162 -0.4574 -0.4402
 5327TIP3    H140176   6.103   6.500  18.034 -0.8383 -0.5311 -0.5772
 5327TIP3    H240177   6.172   6.608  18.113  0.5120 -0.0566 -2.3394
 5328TIP3   OH240178   2.385   6.904  17.412 -0.1048  0.4171 -0.2319
 5328TIP3    H140179   2.344   6.927  17.496 -0.0563  0.9286 -0.3479
 5328TIP3    H240180   2.316   6.860  17.363  0.6576 -2.7242  1.2186
 5329TIP3   OH240181   6.600   1.013  17.996  0.4441  0.4169  0.2000
 5329TIP3    H140182   6.632   1.004  18.086  0.3891  0.7597  0.2555
 5329TIP3    H240183   6.680   1.015  17.943  0.5037  0.9229  0.3071
 5330TIP3   OH240184   5.392   2.984  17.970  0.0628  0.1591 -0.0538
 5330TIP3    H140185   5.432   3.043  17.905 -1.5519  0.4558 -0.8510
 5330TIP3    H240186   5.358   2.911  17.918  0.5310 -0.6297  0.7260
 5331TIP3   OH240187   6.238   2.693  17.696 -0.1887 -0.1040 -0.2401
 5331TIP3    H140188   6.170   2.753  17.728 -0.5413  0.7789 -2.4556
 5331TIP3    H240189   6.319   2.742  17.706 -0.1986 -0.1333 -0.0051
 5332TIP3   OH240190   6.954   6.800  18.308  0.2730  0.0435 -0.5804
 5332TIP3    H140191   6.869   6.841  18.294 -0.3181 -0.8354  0.3623
 5332TIP3    H240192   6.955   6.726  18.247  0.2988 -0.0491 -0.4652
 5333TIP3   OH240193   3.709   5.053  18.052 -0.2373 -0.6555 -0.3406
 5333TIP3    H140194   3.793   5.072  18.010  0.8459 -0.8870  1.5958
 5333TIP3    H240195   3.722   4.968  18.094 -1.7278 -1.0795 -0.6921
 5334TIP3   OH240196   5.728   0.033  18.784  0.1157  0.0139 -0.2276
 5334TIP3    H140197   5.803   0.070  18.831  0.5255  0.1292 -0.9539
 5334TIP3    H240198   5.736  -0.061  18.798  1.5451 -0.1731 -1.8973
 5335TIP3   OH240199   1.225   5.642  19.013 -0.2708 -0.1998 -0.1328
 5335TIP3    H140200   1.190   5.557  18.985  1.0305 -0.1679 -2.0824
 5335TIP3    H240201   1.319   5.636  18.995  0.2704  0.7875  2.0681
 5336TIP3   OH240202   6.786   0.898  17.797 -0.0649 -0.0596 -0.1169
 5336TIP3    H140203   6.867   0.846  17.793 -0.4927 -0.8920  1.4431
 5336TIP3    H240204   6.716   0.834  17.780 -0.7251 -0.4645  3.4101
 5337TIP3   OH240205   5.701   2.719  18.733  0.1724  0.1016  0.2414
 5337TIP3    H140206   5.634   2.689  18.794  0.2352 -0.0601  0.2311
 5337TIP3    H240207   5.745   2.791  18.779 -1.9588  2.2945 -0.8744
 5338TIP3   OH240208   6.284   3.145  17.224 -0.3527 -0.4641 -0.2595
 5338TIP3    H140209   6.326   3.059  17.215  0.2400 -0.0463 -1.8027
 5338TIP3    H240210   6.192   3.125  17.239 -0.2572 -1.3863 -0.8071
 5339TIP3   OH240211   0.978   4.843  16.418  0.3015  0.1191  0.0278
 5339TIP3    H140212   1.051   4.825  16.358  0.4384 -0.4542  0.3576
 5339TIP3    H240213   0.910   4.780  16.391  0.3747 -0.1614  0.4921
 5340TIP3   OH240214   4.072   5.316  18.888  0.1306  0.5635  0.2444
 5340TIP3    H140215   4.159   5.279  18.874 -0.9240 -2.0561  0.1437
 5340TIP3    H240216   4.051   5.360  18.805  0.5149 -0.6229 -0.5003
 5341TIP3   OH240217   0.032   6.917  18.141 -0.5080 -0.2759  0.3488
 5341TIP3    H140218   0.071   6.929  18.055  0.6345 -4.6257 -0.0053
 5341TIP3    H240219   0.085   6.971  18.200  0.5728  0.5202 -1.2880
 5342TIP3   OH240220   5.505   4.923  17.361  0.0447  0.4697  0.8078
 5342TIP3    H140221   5.412   4.910  17.379  0.0748 -4.1244 -0.8699
 5342TIP3    H240222   5.514   4.905  17.267  2.5381  1.9949  0.6612
 5343TIP3   OH240223   5.364   1.762  18.983 -0.5639 -0.1325 -0.5455
 5343TIP3    H140224   5.325   1.681  19.015  0.9258 -0.2758  1.1210
 5343TIP3    H240225   5.374   1.816  19.062 -2.4363  2.1411 -1.7468
 5344TIP3   OH240226   0.956   3.893  18.846  0.4884  0.1770 -0.0762
 5344TIP3    H140227   0.872   3.898  18.890  0.8052  0.2886  0.5259
 5344TIP3    H240228   1.017   3.862  18.914  0.7110 -1.0092 -0.7931
 5345TIP3   OH240229   6.858   6.069  18.771  0.1207 -0.3462 -0.0738
 5345TIP3    H140230   6.903   6.150  18.798 -1.4321  0.3282  0.6383
 5345TIP3    H240231   6.899   6.046  18.688 -0.4986  2.1574 -1.1803
 5346TIP3   OH240232   5.757   1.343  18.830 -0.5866  0.0338 -0.0910
 5346TIP3    H140233   5.789   1.265  18.783 -0.1010  0.7155 -0.9268
 5346TIP3    H240234   5.837   1.390  18.853 -0.9209  0.9326 -0.7378
 5347TIP3   OH240235   2.986   0.783  17.709  0.0906  0.3919  0.4763
 5347TIP3    H140236   2.904   0.732  17.709  0.9209 -1.0152 -0.8817
 5347TIP3    H240237   3.055   0.717  17.708  1.2181  1.5331 -1.1165
 5348TIP3   OH240238   3.675   2.337  18.562 -0.3801  0.3945  0.6959
 5348TIP3    H140239   3.674   2.433  18.560 -0.8804  0.3821  0.1475
 5348TIP3    H240240   3.721   2.315  18.643 -0.6303  1.1003  1.0366
 5349TIP3   OH240241   2.370   4.386  17.123 -0.1695  0.0483 -0.1294
 5349TIP3    H140242   2.338   4.404  17.211 -0.5199  1.0572 -0.4491
 5349TIP3    H240243   2.294   4.399  17.067  0.4108  0.9155 -0.7368
 5350TIP3   OH240244   2.073   6.012  17.114 -0.0585 -0.0638  0.0820
 5350TIP3    H140245   2.143   6.007  17.179  0.3012  0.7077 -0.2337
 5350TIP3    H240246   2.042   5.922  17.105  0.3532 -0.2834  0.8101
 5351TIP3   OH240247   3.178   3.070  17.623  0.2793 -0.4857 -0.3649
 5351TIP3    H140248   3.098   3.099  17.668  0.4506 -0.8777  0.2053
 5351TIP3    H240249   3.148   3.003  17.562  0.4885 -2.8805  1.9656
 5352TIP3   OH240250   4.814   2.903  18.021  0.3515  0.1540 -0.3109
 5352TIP3    H140251   4.908   2.914  18.035  0.2037  1.2498 -0.1045
 5352TIP3    H240252   4.804   2.812  17.992  1.4557 -0.0043 -0.2139
 5353TIP3   OH240253   1.080   4.104  17.967 -0.0144  0.6455 -0.2025
 5353TIP3    H140254   1.099   4.103  18.061  1.4450  0.9728 -0.4529
 5353TIP3    H240255   1.057   4.014  17.946  0.4961  0.3807  0.3298
 5354TIP3   OH240256   4.499   1.276  17.068 -0.0089 -0.5782 -0.0086
 5354TIP3    H140257   4.577   1.315  17.028  1.7049 -0.0857  3.4935
 5354TIP3    H240258   4.429   1.295  17.005  1.7513  3.3606 -1.1366
 5355TIP3   OH240259   1.381   2.913  17.996 -0.2834  0.4667  0.2641
 5355TIP3    H140260   1.405   2.942  17.908  0.1697 -0.3856  0.0974
 5355TIP3    H240261   1.420   2.978  18.054  1.1689 -0.0646 -0.0761
 5356TIP3   OH240262   5.907   4.584  17.055 -0.3346  0.5466 -0.6138
 5356TIP3    H140263   5.814   4.608  17.053 -0.1194  1.4327 -0.5759
 5356TIP3    H240264   5.931   4.574  16.963 -0.9213 -1.6422 -0.5948
 5357TIP3   OH240265   4.893   4.699  16.857  0.1857 -0.0160  0.3802
 5357TIP3    H140266   4.873   4.784  16.818  0.0400  0.0354  0.5656
 5357TIP3    H240267   4.974   4.671  16.814  1.1901  1.0050  1.5241
 5358TIP3   OH240268   0.785   3.347  18.544  0.2829 -0.1945 -0.6111
 5358TIP3    H140269   0.794   3.442  18.548  0.0882 -0.2212  0.9908
 5358TIP3    H240270   0.717   3.333  18.478 -1.2314  0.9093  0.6453
 5359TIP3   OH240271   3.325   3.164  18.958 -0.0977 -0.3209  0.4733
 5359TIP3    H140272   3.391   3.094  18.966 -1.6599 -1.7332  1.5841
 5359TIP3    H240273   3.301   3.162  18.865  2.4406  1.2570 -0.3143
 5360TIP3   OH240274   4.357   3.669  17.990 -0.0256  1.0585 -0.0451
 5360TIP3    H140275   4.377   3.631  18.075 -0.5573  1.6570  0.3520
 5360TIP3    H240276   4.301   3.604  17.948 -0.0117  0.8969  0.1822
 5361TIP3   OH240277   6.505   3.717  19.222  0.4571  0.4920 -0.0463
 5361TIP3    H140278   6.470   3.631  19.195  3.4097 -1.1128  0.8188
 5361TIP3    H240279   6.460   3.735  19.305 -1.1477  0.4839 -0.8600
 5362TIP3   OH240280   3.554   0.661  18.501  0.0500 -0.6949  0.0185
 5362TIP3    H140281   3.470   0.681  18.543  1.2360  0.7594  1.8800
 5362TIP3    H240282   3.597   0.746  18.493  1.8174 -1.5329  0.2190
 5363TIP3   OH240283   5.778   6.330  18.792 -0.2753  0.1670 -0.0292
 5363TIP3    H140284   5.825   6.411  18.777  0.7476 -0.2576  0.7939
 5363TIP3    H240285   5.801   6.275  18.717 -2.8086  1.3770 -1.8571
 5364TIP3   OH240286   6.356   5.497  19.243  0.1787 -0.5575 -0.6311
 5364TIP3    H140287   6.333   5.556  19.171 -1.9744  0.7291  0.9621
 5364TIP3    H240288   6.439   5.531  19.277 -0.7815  1.3683 -0.0475
 5365TIP3   OH240289   1.200   1.290  17.192  0.2460  0.1138  0.6699
 5365TIP3    H140290   1.280   1.272  17.142  0.4572  0.3716  0.9091
 5365TIP3    H240291   1.139   1.222  17.165  0.1021  0.6784 -0.4876
 5366TIP3   OH240292   3.642   4.274  19.498 -0.3236  0.7007 -0.5627
 5366TIP3    H140293   3.582   4.341  19.531 -0.5725 -0.2712  1.0375
 5366TIP3    H240294   3.588   4.196  19.486  0.1685  0.4712 -1.3630
 5367TIP3   OH240295   3.437   1.598  19.476  0.7063 -0.7565  0.1870
 5367TIP3    H140296   3.378   1.655  19.429  2.5282  1.5364  0.5004
 5367TIP3    H240297   3.387   1.569  19.553 -0.3307  0.2657 -0.0826
 5368TIP3   OH240298   3.450   1.373  17.657  0.2740 -0.0778  0.3894
 5368TIP3    H140299   3.464   1.458  17.616  1.6696 -0.5215 -0.1018
 5368TIP3    H240300   3.356   1.370  17.673  0.2934  1.9023  1.2055
 5369TIP3   OH240301   3.559   2.839  16.537  0.1761  0.0829 -0.5175
 5369TIP3    H140302   3.508   2.895  16.595 -1.0256 -0.8160 -0.6816
 5369TIP3    H240303   3.540   2.750  16.565  0.2098 -0.3412 -1.7669
 5370TIP3   OH240304   4.336   2.150  18.928 -0.1311 -0.3470  0.7513
 5370TIP3    H140305   4.264   2.168  18.867 -2.2713 -1.5200  2.7594
 5370TIP3    H240306   4.302   2.179  19.013  1.4874 -1.5937  1.8777
 5371TIP3   OH240307   1.772   0.136  18.349 -0.4904  0.0842  0.1264
 5371TIP3    H140308   1.784   0.185  18.268  0.5153 -0.6241 -0.1750
 5371TIP3    H240309   1.772   0.203  18.418 -0.0575  0.5816 -0.3506
 5372TIP3   OH240310   2.944   0.358  17.946  0.0760 -0.0556 -0.1710
 5372TIP3    H140311   3.029   0.375  17.987  1.9979 -1.1743 -3.3245
 5372TIP3    H240312   2.940   0.262  17.941 -1.4074 -0.0132 -0.0735
 5373TIP3   OH240313   0.195   7.193  19.198 -0.1374 -0.0343 -0.0765
 5373TIP3    H140314   0.260   7.128  19.226  0.8629  1.3826  1.0247
 5373TIP3    H240315   0.121   7.178  19.257  0.0500 -0.2331  0.1138
 5374TIP3   OH240316   2.652   6.997  16.736  0.1043  0.1913  0.0182
 5374TIP3    H140317   2.747   6.987  16.742  0.3373  2.1628  0.6032
 5374TIP3    H240318   2.632   6.983  16.644  0.8390 -1.0110  0.0241
 5375TIP3   OH240319   2.627   4.337  19.345  0.1323 -0.0468  0.1423
 5375TIP3    H140320   2.594   4.421  19.314  1.1657 -0.1837 -1.4999
 5375TIP3    H240321   2.711   4.358  19.387  0.0139 -0.1776  0.4522
 5376TIP3   OH240322   0.055   1.393  18.966 -0.3282  0.2554 -0.7092
 5376TIP3    H140323   0.088   1.384  18.876 -0.0057  1.1847 -0.6951
 5376TIP3    H240324   0.104   1.328  19.016  0.7163  0.8722 -0.8990
 5377TIP3   OH240325   3.387   1.251  18.264  0.3538 -0.0034 -0.3824
 5377TIP3    H140326   3.417   1.324  18.210  0.1651  0.1391 -0.2970
 5377TIP3    H240327   3.371   1.291  18.350 -2.6860  0.5356 -1.0668
 5378TIP3   OH240328   0.842   4.812  18.732 -0.3086 -0.5984  0.4183
 5378TIP3    H140329   0.799   4.844  18.812 -0.8517  0.6197 -0.3283
 5378TIP3    H240330   0.857   4.891  18.680 -0.6949 -1.4434 -1.0288
 5379TIP3   OH240331   6.120   6.674  19.104  0.0664 -0.0370 -0.4640
 5379TIP3    H140332   6.047   6.676  19.166 -1.3589  0.1222 -2.0791
 5379TIP3    H240333   6.084   6.634  19.026  1.2267  1.6196 -1.9229
 5380TIP3   OH240334   5.126   5.772  19.092  0.2264 -0.9132 -0.1506
 5380TIP3    H140335   5.158   5.764  19.182  1.1486 -1.0404 -0.4860
 5380TIP3    H240336   5.154   5.692  19.048 -1.2360 -1.3992 -0.2650
 5381TIP3   OH240337   4.358   4.356  18.550 -0.1184  0.0100 -0.3649
 5381TIP3    H140338   4.437   4.388  18.592  0.6969 -1.3237 -0.8229
 5381TIP3    H240339   4.379   4.266  18.523 -2.5176 -1.2952  1.5911
 5382TIP3   OH240340   0.439   6.205  16.936  0.0083  0.3415  0.6522
 5382TIP3    H140341   0.412   6.250  16.856 -0.7214 -0.5447  0.3857
 5382TIP3    H240342   0.386   6.245  17.005 -0.6427 -0.0987  0.4148
 5383TIP3   OH240343   6.341   4.234  19.099  0.4274  0.1086 -0.4140
 5383TIP3    H140344   6.248   4.256  19.110  0.5715  1.4678 -1.6205
 5383TIP3    H240345   6.341   4.163  19.034  0.2163  0.0152 -0.3125
 5384TIP3   OH240346   2.807   1.802  18.674  0.1339 -0.5458  0.0488
 5384TIP3    H140347   2.884   1.781  18.620  1.3449 -0.3930  1.6378
 5384TIP3    H240348   2.797   1.897  18.665 -0.2585 -0.6521 -0.6555
 5385TIP3   OH240349   1.667   1.142  17.492  0.3823 -0.1533 -0.0038
 5385TIP3    H140350   1.600   1.201  17.525 -0.3355 -0.2206 -1.2605
 5385TIP3    H240351   1.734   1.200  17.456  0.2236 -0.0809 -0.1904
 5386TIP3   OH240352   4.572   6.982  17.279  0.1429 -0.4086  0.3167
 5386TIP3    H140353   4.550   6.941  17.362 -0.0253  0.8502  0.9143
 5386TIP3    H240354   4.651   6.936  17.250 -0.8198 -2.0822  0.2497
 5387TIP3   OH240355   5.751   6.231  18.059  0.1554  0.1480 -0.7986
 5387TIP3    H140356   5.777   6.307  18.009 -2.0118  0.9742 -0.7622
 5387TIP3    H240357   5.674   6.196  18.013 -0.1275 -0.7814  0.3171
 5388TIP3   OH240358   0.283   6.832  18.993  0.2777 -0.5612  0.1713
 5388TIP3    H140359   0.274   6.875  19.079 -0.8519 -1.7612  0.6853
 5388TIP3    H240360   0.214   6.872  18.940  1.0595  0.2733 -0.2354
 5389TIP3   OH240361   4.812   1.669  18.047 -0.0275 -0.2753 -0.2339
 5389TIP3    H140362   4.800   1.738  17.981  0.8991  0.0887 -0.0294
 5389TIP3    H240363   4.722   1.645  18.072 -0.3728  0.4643 -0.7176
 5390TIP3   OH240364   0.526   0.696  17.694  0.1888 -0.1933  0.1554
 5390TIP3    H140365   0.490   0.644  17.766  0.3878 -1.5606 -0.6939
 5390TIP3    H240366   0.581   0.635  17.644  0.6457  0.8963 -0.7460
 5391TIP3   OH240367   1.220   3.066  12.385 -0.0551  0.2142 -0.0020
 5391TIP3    H140368   1.139   3.082  12.435 -0.5810  0.5608 -0.9494
 5391TIP3    H240369   1.289   3.106  12.438 -0.5702  0.3702  0.5632
 5392TIP3   OH240370   2.620   4.159  11.107  0.0351  0.0327  0.0101
 5392TIP3    H140371   2.659   4.186  11.189  1.7715 -2.2330  0.0148
 5392TIP3    H240372   2.526   4.152  11.126  0.3584 -0.0875  1.6844
 5393TIP3   OH240373   4.983   5.701  11.993 -0.0582 -0.1457  0.0675
 5393TIP3    H140374   4.903   5.710  11.941 -1.4811 -3.1920  1.4464
 5393TIP3    H240375   5.023   5.620  11.962 -0.1168 -1.1968  2.4819
 5394TIP3   OH240376   3.805   5.690  10.978 -0.4177  0.2354  0.4243
 5394TIP3    H140377   3.804   5.614  10.920 -0.6822  1.1589 -0.8008
 5394TIP3    H240378   3.748   5.754  10.937  1.2836  1.8414  0.4017
 5395TIP3   OH240379   5.646   4.858  11.187  0.3044 -0.6122 -0.2619
 5395TIP3    H140380   5.613   4.815  11.266  0.3654 -0.8827 -0.3831
 5395TIP3    H240381   5.740   4.843  11.189  0.7319  1.6227  0.9946
 5396TIP3   OH240382   0.908   3.545  11.647  0.6295  0.3054 -0.6367
 5396TIP3    H140383   0.978   3.500  11.598  0.2703  0.6414 -1.4876
 5396TIP3    H240384   0.837   3.553  11.584  0.0128  0.4333  0.0696
 5397TIP3   OH240385   0.533   3.763  11.540 -0.1671  0.0430  0.1723
 5397TIP3    H140386   0.462   3.809  11.585 -0.0943 -0.2700  0.6063
 5397TIP3    H240387   0.522   3.671  11.565  0.2591 -0.0378  0.0640
 5398TIP3   OH240388   0.638   7.192  10.254  0.0976 -0.0738  0.4658
 5398TIP3    H140389   0.674   7.181  10.166 -0.2409  0.9423  0.1812
 5398TIP3    H240390   0.598   7.108  10.275  0.0386 -0.2754 -0.4247
 5399TIP3   OH240391   1.305   3.746  11.025 -0.0624 -0.5009 -0.5944
 5399TIP3    H140392   1.284   3.653  11.029  0.6913 -0.6541  0.1458
 5399TIP3    H240393   1.353   3.756  10.943  1.2285 -1.0747  0.0663
 5400TIP3   OH240394   1.332   3.222  12.639  0.1831  0.0490  0.2311
 5400TIP3    H140395   1.373   3.173  12.710 -1.2796  2.0613  2.6656
 5400TIP3    H240396   1.379   3.305  12.636 -1.4605  1.0588  0.7902
 5401TIP3   OH240397   3.591   0.906  11.916  0.0884 -0.1420 -0.3327
 5401TIP3    H140398   3.602   0.831  11.975  0.0733  0.2642  0.1957
 5401TIP3    H240399   3.614   0.982  11.970 -1.6213  0.4097 -0.3165
 5402TIP3   OH240400   0.049   7.354  12.155 -0.0634 -0.3318 -0.5696
 5402TIP3    H140401   0.035   7.397  12.071  1.4367  1.5469  0.0509
 5402TIP3    H240402  -0.030   7.373  12.205 -0.2569  0.0207 -1.0030
 5403TIP3   OH240403   6.438   0.478  10.646 -0.0947  0.4708  0.2461
 5403TIP3    H140404   6.415   0.568  10.624 -2.2599  0.2058  1.1833
 5403TIP3    H240405   6.380   0.425  10.592  0.8046 -0.3809  0.0851
 5404TIP3   OH240406   1.159   6.982  13.123 -0.6533 -0.1897  0.0681
 5404TIP3    H140407   1.087   7.029  13.081 -1.0480 -0.8593 -0.0213
 5404TIP3    H240408   1.230   7.046  13.127 -0.7910  0.0631 -1.1127
 5405TIP3   OH240409   7.427   6.477  12.019 -0.3202  0.2443 -0.4252
 5405TIP3    H140410   7.332   6.481  12.012 -0.4934 -0.5733  1.1102
 5405TIP3    H240411   7.452   6.397  11.972 -0.6492 -0.7573  1.0274
 5406TIP3   OH240412   5.951   7.106  12.173  0.0371  0.3694 -0.5282
 5406TIP3    H140413   6.045   7.126  12.168 -0.1760  1.2020 -1.6340
 5406TIP3    H240414   5.910   7.174  12.121 -1.3631  1.1019  1.4342
 5407TIP3   OH240415   1.674   1.342  11.515 -0.7706  0.6475 -0.1291
 5407TIP3    H140416   1.652   1.421  11.466 -0.7947 -0.1233 -1.4030
 5407TIP3    H240417   1.706   1.374  11.599  0.5663  2.0911 -1.1281
 5408TIP3   OH240418   2.947   1.098  10.468 -0.3005  0.5376 -0.1111
 5408TIP3    H140419   3.010   1.029  10.446 -2.3061 -1.8779  1.2864
 5408TIP3    H240420   2.957   1.111  10.562 -0.3680  1.7753 -0.2567
 5409TIP3   OH240421   3.523   7.450  13.019  0.5129  0.2265 -0.5127
 5409TIP3    H140422   3.542   7.520  13.081 -0.5205  1.2471 -1.3103
 5409TIP3    H240423   3.428   7.451  13.009  0.5917 -0.4343 -1.4981
 5410TIP3   OH240424   7.480   7.423  12.285 -0.1303 -0.5746 -0.0135
 5410TIP3    H140425   7.447   7.501  12.329  0.9410 -0.4413  0.5892
 5410TIP3    H240426   7.407   7.394  12.231 -1.0994 -0.0641  0.9594
 5411TIP3   OH240427   1.960   4.335  11.482  0.1943  0.4857  0.1589
 5411TIP3    H140428   2.003   4.385  11.414  0.3303 -0.2940 -0.3401
 5411TIP3    H240429   1.992   4.372  11.564  2.7159 -0.7938 -0.1691
 5412TIP3   OH240430   4.905   2.210  12.153  0.1475 -0.1520  0.3044
 5412TIP3    H140431   4.949   2.282  12.107 -0.4058 -0.3632 -0.5828
 5412TIP3    H240432   4.953   2.201  12.235  1.2485  0.1640 -0.2801
 5413TIP3   OH240433   2.055   7.004  10.778 -0.1948  0.0974 -0.3121
 5413TIP3    H140434   2.149   7.007  10.794 -0.3692  0.6213  0.6717
 5413TIP3    H240435   2.017   7.056  10.848 -1.3483 -1.6840  0.4743
 5414TIP3   OH240436   7.341   5.637  11.297 -0.3175  0.2939 -0.0960
 5414TIP3    H140437   7.411   5.679  11.348 -1.7961  2.4937  0.2646
 5414TIP3    H240438   7.378   5.553  11.270  1.1858 -0.1949  3.0637
 5415TIP3   OH240439   3.273   1.770  10.226  0.1023  0.0048 -0.4276
 5415TIP3    H140440   3.325   1.849  10.236 -0.4873  0.1291  2.2546
 5415TIP3    H240441   3.187   1.802  10.198 -0.0056  0.2711  0.2032
 5416TIP3   OH240442   5.616   1.175  12.220  0.0656  0.3041  0.1590
 5416TIP3    H140443   5.689   1.130  12.176  0.8961 -0.9127  2.6246
 5416TIP3    H240444   5.647   1.265  12.231 -0.6438  0.9922 -2.6667
 5417TIP3   OH240445   0.006   6.342  11.286 -0.2331  0.1753 -0.4639
 5417TIP3    H140446  -0.051   6.418  11.280 -1.7757 -0.7561  1.1815
 5417TIP3    H240447   0.007   6.321  11.380  1.6596 -0.7281 -0.6473
 5418TIP3   OH240448   1.294   7.473  10.774 -0.0250  0.1816  0.3064
 5418TIP3    H140449   1.334   7.396  10.733 -1.7110 -0.4590 -0.2186
 5418TIP3    H240450   1.223   7.497  10.715 -1.4095  0.3104  1.9552
 5419TIP3   OH240451   2.395   0.725  10.918  0.0528  0.2882  0.4342
 5419TIP3    H140452   2.370   0.649  10.971  0.6999 -0.3260 -0.1120
 5419TIP3    H240453   2.386   0.800  10.977 -0.1515 -0.2648  1.1220
 5420TIP3   OH240454   2.674   7.639  10.694 -0.4855  0.1334 -0.3155
 5420TIP3    H140455   2.719   7.619  10.612 -1.1154 -1.3682 -0.3295
 5420TIP3    H240456   2.620   7.562  10.711  2.9369 -1.7876  3.8238
 5421TIP3   OH240457   0.847   7.632  11.647 -0.0023 -0.3030 -0.2007
 5421TIP3    H140458   0.821   7.642  11.739 -1.8844  2.1352 -0.8874
 5421TIP3    H240459   0.807   7.550  11.620  0.5661 -1.0510  1.1325
 5422TIP3   OH240460   1.042   2.477  12.059 -0.5856  0.3257 -0.3252
 5422TIP3    H140461   1.070   2.415  12.127 -0.1673  0.7141 -0.1327
 5422TIP3    H240462   1.001   2.549  12.108  0.9064  1.2405 -0.3638
 5423TIP3   OH240463   2.184   3.084  11.474  0.4548 -0.4192 -0.6918
 5423TIP3    H140464   2.119   3.150  11.498  1.9468  0.3941  1.4188
 5423TIP3    H240465   2.179   3.018  11.544  2.9094  0.4948  0.4886
 5424TIP3   OH240466   7.037   4.488  12.479 -0.1447  0.3822 -0.3699
 5424TIP3    H140467   7.029   4.416  12.541 -0.1442  1.8735  1.4728
 5424TIP3    H240468   7.128   4.517  12.487  0.0912  0.0673 -1.7282
 5425TIP3   OH240469   0.937   4.849  10.914  0.1748 -0.7772 -0.5710
 5425TIP3    H140470   1.022   4.863  10.872 -0.4876 -0.9222 -2.0181
 5425TIP3    H240471   0.926   4.754  10.914  0.0096 -0.7593 -0.3681
 5426TIP3   OH240472   2.431   0.370  10.961 -0.1198 -0.0879 -0.0383
 5426TIP3    H140473   2.361   0.429  10.987 -0.0542  0.0053 -0.0698
 5426TIP3    H240474   2.439   0.382  10.866  0.2561  0.2556  0.0322
 5427TIP3   OH240475   6.234   4.245  10.988  0.2233  0.6828 -0.1024
 5427TIP3    H140476   6.200   4.282  10.907  0.5101  1.0938 -0.0374
 5427TIP3    H240477   6.185   4.289  11.057 -2.5885 -2.1415 -0.0635
 5428TIP3   OH240478   6.072   7.473  10.978  0.3739 -0.1658 -0.0420
 5428TIP3    H140479   6.120   7.500  11.057 -0.0374  1.8427 -0.4146
 5428TIP3    H240480   6.124   7.401  10.942  2.6127  1.2482  0.1044
 5429TIP3   OH240481   2.821   5.106  11.164 -0.1207  0.0034  0.3343
 5429TIP3    H140482   2.819   5.153  11.081 -1.0617  0.4468  0.5864
 5429TIP3    H240483   2.891   5.148  11.214  1.4502 -1.2233 -0.7485
 5430TIP3   OH240484   2.284   1.202  10.526 -0.3323  0.1625  0.0147
 5430TIP3    H140485   2.273   1.193  10.432  0.2076  1.8739 -0.2512
 5430TIP3    H240486   2.204   1.164  10.563 -0.5907 -0.4522 -1.1272
 5431TIP3   OH240487   3.068   4.215  10.856 -0.1727 -0.7002 -0.6029
 5431TIP3    H140488   3.065   4.140  10.915  2.3323  0.7915  1.6052
 5431TIP3    H240489   2.976   4.240  10.846 -1.0336 -3.6135 -0.9473
 5432TIP3   OH240490   0.726   4.718  11.499  0.3812  0.3399 -0.7542
 5432TIP3    H140491   0.812   4.760  11.498  0.5146  0.0690 -0.7147
 5432TIP3    H240492   0.701   4.710  11.407 -0.4905  2.2242 -0.7201
 5433TIP3   OH240493   5.657   1.620  11.649 -0.1455  0.2055 -0.1122
 5433TIP3    H140494   5.672   1.526  11.636 -1.6099 -0.7107  3.5534
 5433TIP3    H240495   5.565   1.633  11.628 -0.3272  0.4473  0.7600
 5434TIP3   OH240496   5.567   3.256  11.749 -0.1095 -0.4173 -0.0157
 5434TIP3    H140497   5.570   3.343  11.710  1.8341  0.4687  1.9356
 5434TIP3    H240498   5.548   3.272  11.841  1.4254 -1.9500  0.6128
 5435TIP3   OH240499   3.685   0.984  12.155 -0.6047  0.5205 -0.3275
 5435TIP3    H140500   3.602   1.016  12.189 -0.2766  0.2276  0.7928
 5435TIP3    H240501   3.750   1.014  12.218  0.2907  1.6297 -1.7227
 5436TIP3   OH240502   0.116   5.263  12.691  0.2206  0.2440 -0.6852
 5436TIP3    H140503   0.052   5.208  12.646 -0.2361  0.9517 -0.9192
 5436TIP3    H240504   0.185   5.203  12.719 -1.0908 -0.7303  0.6043
 5437TIP3   OH240505   7.598   1.860  11.100 -0.4167 -0.6095 -0.0417
 5437TIP3    H140506   7.605   1.837  11.193  0.0066  0.9255  0.3352
 5437TIP3    H240507   7.515   1.906  11.093  0.1936  0.5336 -0.1024
 5438TIP3   OH240508   3.426   1.034  13.233  0.0910  0.3644 -0.2353
 5438TIP3    H140509   3.441   1.122  13.268  3.8853 -0.2792  0.2704
 5438TIP3    H240510   3.495   0.981  13.273 -0.1327 -2.1578 -2.8669
 5439TIP3   OH240511   0.407   3.211  11.093 -0.2549  0.4775  0.7521
 5439TIP3    H140512   0.323   3.166  11.088  0.0465  0.0313 -1.5462
 5439TIP3    H240513   0.463   3.152  11.143 -0.7182 -0.2383  0.4383
 5440TIP3   OH240514   4.657   1.119  10.587  0.4479 -0.0192  0.0376
 5440TIP3    H140515   4.727   1.182  10.602 -0.4752  1.2078 -0.5552
 5440TIP3    H240516   4.612   1.152  10.509 -0.3065 -1.2140 -0.0578
 5441TIP3   OH240517   0.024   0.802  11.363  0.2194  0.0962  0.1092
 5441TIP3    H140518   0.058   0.719  11.395  0.0930 -0.0530 -0.1443
 5441TIP3    H240519   0.067   0.868  11.418  3.0557  0.1157 -1.9249
 5442TIP3   OH240520   3.589   7.522  12.329 -0.0600  0.3221 -0.7513
 5442TIP3    H140521   3.538   7.599  12.302 -1.5449 -0.4630 -0.3043
 5442TIP3    H240522   3.579   7.519  12.424 -0.1456 -0.5017 -0.7795
 5443TIP3   OH240523   2.794   7.335  10.680  0.4432 -0.5149 -0.0342
 5443TIP3    H140524   2.858   7.390  10.726 -0.5932 -0.9683  2.0772
 5443TIP3    H240525   2.758   7.391  10.612  2.0582  0.1784 -0.3718
 5444TIP3   OH240526   5.361   0.846  11.998 -0.5528 -0.4293  0.2513
 5444TIP3    H140527   5.438   0.789  11.999 -0.7221 -0.6618  0.0759
 5444TIP3    H240528   5.317   0.828  12.081 -1.2604 -1.4529 -0.3371
 5445TIP3   OH240529   2.750   4.308  11.340  0.7287  0.1116 -0.3880
 5445TIP3    H140530   2.741   4.398  11.373 -0.3076  0.3152 -1.1713
 5445TIP3    H240531   2.833   4.308  11.293  0.3684  0.9050 -1.0670
 5446TIP3   OH240532   1.918   7.154  10.950 -0.0395 -0.1325  0.1464
 5446TIP3    H140533   1.857   7.224  10.928 -0.5087 -0.5367  0.1547
 5446TIP3    H240534   1.869   7.097  11.009  0.1003 -0.8464 -0.4169
 5447TIP3   OH240535   5.935   4.363  12.502 -0.6209 -0.0136  0.2069
 5447TIP3    H140536   5.979   4.396  12.580 -1.0429 -1.6377  1.1820
 5447TIP3    H240537   5.851   4.331  12.533  0.0954 -2.8225 -0.4147
 5448TIP3   OH240538   4.843   5.806  12.512 -0.0855  0.0599  0.1227
 5448TIP3    H140539   4.936   5.814  12.533  0.0360  1.5204 -0.8239
 5448TIP3    H240540   4.817   5.722  12.548  1.5243 -0.2177  0.6976
 5449TIP3   OH240541   7.455   5.114  11.066  0.1557  0.9343  0.2018
 5449TIP3    H140542   7.379   5.169  11.081  0.6251  1.9768 -1.1322
 5449TIP3    H240543   7.477   5.127  10.974  2.4293  1.3056  0.7411
 5450TIP3   OH240544   6.249   1.603  10.501  0.1861 -0.1506 -0.2210
 5450TIP3    H140545   6.292   1.518  10.495  3.3609  1.2268  0.8867
 5450TIP3    H240546   6.194   1.608  10.423  2.1167 -2.0851 -1.8341
 5451TIP3   OH240547   4.881   3.305  11.468 -0.4573 -0.5152 -0.0853
 5451TIP3    H140548   4.923   3.381  11.429 -1.2672  0.1683  0.3536
 5451TIP3    H240549   4.800   3.339  11.506 -0.7395 -1.5604  0.2763
 5452TIP3   OH240550   7.604   1.825  12.159  0.1678 -0.6564  0.0548
 5452TIP3    H140551   7.594   1.914  12.125 -0.8355 -1.1682 -1.0812
 5452TIP3    H240552   7.689   1.796  12.126 -0.3633 -0.7905 -1.2902
 5453TIP3   OH240553   3.546   0.275  12.235  0.0525 -0.4472 -0.1735
 5453TIP3    H140554   3.514   0.365  12.246  1.0096 -0.1582  0.3390
 5453TIP3    H240555   3.640   0.281  12.252 -0.0155 -1.7119  0.7628
 5454TIP3   OH240556   1.157   2.397  11.814 -0.0158 -0.0803  0.4932
 5454TIP3    H140557   1.176   2.327  11.876 -0.1616  0.3492  1.0307
 5454TIP3    H240558   1.114   2.464  11.866  1.8867  1.2651  0.4307
 5455TIP3   OH240559   1.441   7.142  11.694  0.5374 -0.2103  0.3998
 5455TIP3    H140560   1.389   7.220  11.673  0.9575  0.1500  0.6781
 5455TIP3    H240561   1.417   7.078  11.627  0.2301  0.1797  0.1349
 5456TIP3   OH240562   4.365   5.843  12.037  0.0037  0.1192 -0.0340
 5456TIP3    H140563   4.404   5.929  12.021  1.2357 -0.4448 -0.1538
 5456TIP3    H240564   4.367   5.799  11.952  2.1525 -1.1087  0.5883
 5457TIP3   OH240565   2.578   1.047  10.881  0.1476 -0.1416  0.2495
 5457TIP3    H140566   2.484   1.042  10.864  0.0733 -0.5860  0.7894
 5457TIP3    H240567   2.596   1.141  10.887  0.2875  0.1286 -2.8182
 5458TIP3   OH240568   5.067   5.839  11.170  0.1301  0.1289 -0.5883
 5458TIP3    H140569   5.050   5.833  11.264  0.3236 -0.9617 -0.6015
 5458TIP3    H240570   5.029   5.923  11.143 -2.4156 -0.7509 -0.0332
 5459TIP3   OH240571   6.771   0.146  12.636 -0.2849 -0.0110 -0.0134
 5459TIP3    H140572   6.685   0.111  12.614 -1.6525  2.2158  1.3436
 5459TIP3    H240573   6.753   0.234  12.670  2.6702  1.0921 -0.9866
 5460TIP3   OH240574   6.090   7.051  10.857  0.0513 -0.6229  0.2324
 5460TIP3    H140575   5.996   7.047  10.839  0.0111 -1.0395  0.5037
 5460TIP3    H240576   6.132   7.047  10.772 -0.1948  0.6829  0.0225
 5461TIP3   OH240577   4.550   6.904  11.565  0.0019 -0.1360  0.3034
 5461TIP3    H140578   4.604   6.921  11.488  0.8703  0.3781  1.0091
 5461TIP3    H240579   4.491   6.980  11.570 -0.5699 -0.5372 -0.2782
 5462TIP3   OH240580   7.607   3.390  11.495  0.5100 -0.3252  0.0652
 5462TIP3    H140581   7.574   3.328  11.560 -1.8401 -0.0225 -0.7501
 5462TIP3    H240582   7.540   3.459  11.492  1.8069  0.9388 -0.8791
 5463TIP3   OH240583   5.345   5.766  11.140  0.4039  0.1912 -0.0920
 5463TIP3    H140584   5.258   5.778  11.101 -0.0222 -1.0942  0.3907
 5463TIP3    H240585   5.329   5.759  11.234  1.1416  0.8579  0.0883
 5464TIP3   OH240586   3.979   6.580  12.146  0.1590 -0.5892  0.2062
 5464TIP3    H140587   4.058   6.633  12.152  0.1621 -0.6377  0.6356
 5464TIP3    H240588   3.938   6.607  12.064  0.4534 -0.3351  0.1410
 5465TIP3   OH240589   6.537   6.000  11.528 -0.1364 -0.5054  0.0974
 5465TIP3    H140590   6.567   6.042  11.448  0.1422 -0.3079  0.3026
 5465TIP3    H240591   6.617   5.978  11.576 -0.3062  0.5063  0.8926
 5466TIP3   OH240592   2.717   7.456  11.618  0.0176 -0.3469  0.2983
 5466TIP3    H140593   2.810   7.474  11.600  0.4139 -1.1191  1.4346
 5466TIP3    H240594   2.676   7.452  11.532  1.0567 -0.1073 -0.2295
 5467TIP3   OH240595   2.635   5.871  12.825  0.2225  0.2102  0.5468
 5467TIP3    H140596   2.555   5.857  12.877  0.1231 -0.9122  0.1198
 5467TIP3    H240597   2.696   5.911  12.886 -0.8902  1.7538  0.6952
 5468TIP3   OH240598   6.198   0.098  12.601  0.0533 -0.3727 -0.2753
 5468TIP3    H140599   6.238   0.040  12.666 -0.6617 -2.3084 -1.4848
 5468TIP3    H240600   6.270   0.129  12.547  0.4221 -0.2470  0.2847
 5469TIP3   OH240601   6.681   2.627  11.274  0.6006 -0.1195  0.4358
 5469TIP3    H140602   6.666   2.708  11.324  0.1199 -0.3099  0.6081
 5469TIP3    H240603   6.712   2.657  11.189  0.2283  0.2608  0.4282
 5470TIP3   OH240604   0.849   2.657  13.269 -0.3094  0.5056  0.2536
 5470TIP3    H140605   0.760   2.640  13.297 -0.5398  1.0875 -0.0812
 5470TIP3    H240606   0.850   2.751  13.247 -0.5202 -0.0872 -2.8453
 5471TIP3   OH240607   3.386   4.690  12.504  0.4205  0.4774 -0.3839
 5471TIP3    H140608   3.457   4.721  12.560  1.4162 -2.4917  0.1757
 5471TIP3    H240609   3.318   4.661  12.564  0.0082  0.5072 -0.8284
 5472TIP3   OH240610   1.434   4.791  12.547 -0.1451 -0.0217 -0.5166
 5472TIP3    H140611   1.496   4.724  12.575 -1.7167 -1.1966  0.3589
 5472TIP3    H240612   1.441   4.859  12.614  1.3306  0.6442 -1.3096
 5473TIP3   OH240613   7.524   3.762  11.985 -0.2448 -0.2273 -0.5659
 5473TIP3    H140614   7.539   3.766  11.891  0.6964  0.3051 -0.4039
 5473TIP3    H240615   7.568   3.839  12.020  0.2116 -0.9082  0.4150
 5474TIP3   OH240616   3.968   5.583  10.429 -0.1414  0.3561 -0.2090
 5474TIP3    H140617   4.040   5.643  10.449 -0.2344  0.1523  0.8265
 5474TIP3    H240618   3.994   5.540  10.348 -0.3449  2.2218 -1.3322
 5475TIP3   OH240619   6.757   5.602  10.817  0.6889 -0.4707  0.4222
 5475TIP3    H140620   6.785   5.601  10.909 -0.9092  0.5682  0.9631
 5475TIP3    H240621   6.662   5.614  10.821  0.5107 -0.9843 -1.3743
 5476TIP3   OH240622   6.461   2.609  10.911 -0.0334 -0.6256  0.6542
 5476TIP3    H140623   6.502   2.523  10.904 -0.6663 -0.9270  0.5870
 5476TIP3    H240624   6.506   2.652  10.983  0.5339 -0.8749  0.4509
 5477TIP3   OH240625   0.822   3.188  11.528  0.1593  0.4575 -0.2850
 5477TIP3    H140626   0.828   3.198  11.623 -0.2723  1.7717 -0.3883
 5477TIP3    H240627   0.730   3.202  11.507  0.4414  1.3096 -1.0194
 5478TIP3   OH240628   5.573   2.074  10.959  0.0709 -0.3666  0.1217
 5478TIP3    H140629   5.493   2.093  11.009  0.3229 -0.6774  0.6529
 5478TIP3    H240630   5.603   2.159  10.929 -1.3751 -0.3796 -1.5341
 5479TIP3   OH240631   2.845   6.658  10.446  0.8386  0.1644  0.4618
 5479TIP3    H140632   2.755   6.686  10.434  0.7868  0.0666  0.6167
 5479TIP3    H240633   2.858   6.591  10.379  0.9808  0.5953  0.0554
 5480TIP3   OH240634   6.770   0.722  11.667  0.3052 -0.1170  0.5785
 5480TIP3    H140635   6.694   0.777  11.684  0.8130  0.2902  1.6371
 5480TIP3    H240636   6.792   0.738  11.575  0.5333  1.5872  0.8996
 5481TIP3   OH240637   2.475   6.384  11.399  0.1233 -0.0211 -0.6856
 5481TIP3    H140638   2.570   6.393  11.393  0.0251  0.8408 -1.1442
 5481TIP3    H240639   2.443   6.472  11.421 -0.3404 -0.9948  3.0792
 5482TIP3   OH240640   1.260   2.414  12.344 -0.5385 -0.1990 -0.4276
 5482TIP3    H140641   1.177   2.368  12.360 -0.4233 -0.0090  0.8436
 5482TIP3    H240642   1.320   2.378  12.410  0.2212  0.1033 -0.9419
 5483TIP3   OH240643   1.322   1.819  13.010  0.1840 -0.5611  0.4971
 5483TIP3    H140644   1.363   1.869  13.080 -0.1603  1.5685 -0.7142
 5483TIP3    H240645   1.237   1.794  13.044  0.6251 -0.9052  1.3640
 5484TIP3   OH240646   3.181   0.129  12.128  0.0428  0.2884 -0.3988
 5484TIP3    H140647   3.153   0.178  12.206 -0.5162  1.3458 -1.2434
 5484TIP3    H240648   3.108   0.136  12.068  0.5753 -0.3008 -1.1261
 5485TIP3   OH240649   7.107   2.462  10.753 -0.3065  0.2569 -0.1041
 5485TIP3    H140650   7.144   2.398  10.692  0.5252  0.5450  0.0878
 5485TIP3    H240651   7.118   2.547  10.710 -0.7310  0.3533 -0.0324
 5486TIP3   OH240652   3.013   6.226  13.188  0.0714  0.6253 -0.2385
 5486TIP3    H140653   3.047   6.303  13.143  0.1465  2.0711  2.0760
 5486TIP3    H240654   2.932   6.257  13.230  0.0670 -0.5640  0.6881
 5487TIP3   OH240655   1.100   1.980  10.520  0.0963 -0.1275 -0.2083
 5487TIP3    H140656   1.020   1.962  10.472  0.3225  0.0103 -0.6387
 5487TIP3    H240657   1.159   1.908  10.498 -0.3613 -0.9522  1.1552
 5488TIP3   OH240658   2.358   6.094  10.706 -0.2647 -0.5656  0.0756
 5488TIP3    H140659   2.443   6.076  10.666 -0.7469 -0.4516 -1.0417
 5488TIP3    H240660   2.307   6.014  10.692 -0.4990 -0.4629  0.3227
 5489TIP3   OH240661   0.808   3.047  11.833  0.2447  0.1300 -0.1051
 5489TIP3    H140662   0.715   3.063  11.850  0.1664  2.7571 -2.2596
 5489TIP3    H240663   0.848   3.134  11.839  3.0570 -1.1600  2.8428
 5490TIP3   OH240664   1.432   4.317  12.057 -0.1099  0.3881  0.1263
 5490TIP3    H140665   1.451   4.377  11.985 -0.4883 -1.1741 -1.3126
 5490TIP3    H240666   1.457   4.367  12.135  0.0984  2.2113 -1.0302
 5491TIP3   OH240667   4.636   1.226  11.450 -0.2152  0.6295  0.1034
 5491TIP3    H140668   4.718   1.268  11.478 -0.1528  0.9246 -0.4862
 5491TIP3    H240669   4.582   1.298  11.419 -0.4720  0.3732 -0.0501
 5492TIP3   OH240670   3.762   5.130  11.568 -0.2626  0.1237 -0.3601
 5492TIP3    H140671   3.835   5.170  11.616 -0.5668 -0.1750  0.3522
 5492TIP3    H240672   3.781   5.036  11.568  1.3011  0.3092 -3.4269
 5493TIP3   OH240673   4.346   1.715  10.662  0.0722  0.0580  0.1019
 5493TIP3    H140674   4.284   1.713  10.589 -2.2065  1.3578  1.9038
 5493TIP3    H240675   4.401   1.638  10.648 -1.6303 -0.9067 -1.8373
 5494TIP3   OH240676   4.687   2.513  13.119  0.2958 -0.6462 -0.0336
 5494TIP3    H140677   4.689   2.592  13.065 -0.2991 -0.5141  0.1353
 5494TIP3    H240678   4.688   2.441  13.056 -1.6196 -0.4933 -0.2894
 5495TIP3   OH240679   5.528   1.732  10.768 -0.0935 -0.0690  0.0989
 5495TIP3    H140680   5.459   1.665  10.766  0.5090 -0.6926 -0.8713
 5495TIP3    H240681   5.606   1.686  10.739  0.1695  1.2399 -1.3845
 5496TIP3   OH240682   0.900   4.539  11.587  0.2280  0.1134 -0.1407
 5496TIP3    H140683   0.882   4.480  11.660  0.3233  1.3024  0.8851
 5496TIP3    H240684   0.824   4.598  11.585  0.0521 -0.1350 -1.2501
 5497TIP3   OH240685   4.230   3.423  10.482  0.5924 -0.3024 -0.3355
 5497TIP3    H140686   4.192   3.343  10.518  1.2434 -0.6764 -0.4589
 5497TIP3    H240687   4.168   3.492  10.506 -0.0829 -0.8728 -0.4075
 5498TIP3   OH240688   2.183   5.453  11.923  0.0097  0.0825 -0.1664
 5498TIP3    H140689   2.164   5.441  12.016  1.0162 -0.6686 -0.0452
 5498TIP3    H240690   2.270   5.492  11.921 -0.7090  1.7735 -0.7709
 5499TIP3   OH240691   1.019   7.107  10.421  0.1101  0.4450  0.5514
 5499TIP3    H140692   0.935   7.091  10.465 -0.6239  0.2742 -0.8642
 5499TIP3    H240693   1.027   7.202  10.416 -1.8486  0.5946 -2.5530
 5500TIP3   OH240694   0.052   6.038  11.291 -0.3131  0.1317 -0.0976
 5500TIP3    H140695   0.124   6.050  11.352  1.2229 -1.8360 -1.3999
 5500TIP3    H240696   0.042   6.123  11.248  0.8320  0.6014  0.5393
 5501TIP3   OH240697   6.939   7.442  11.999  0.0091  0.0538 -0.0527
 5501TIP3    H140698   6.959   7.518  12.054  1.0989 -0.6889  0.6082
 5501TIP3    H240699   7.023   7.399  11.986 -0.5451 -0.8741 -0.6813
 5502TIP3   OH240700   5.810   3.479  12.430  0.5348 -0.6774 -0.2952
 5502TIP3    H140701   5.808   3.505  12.522  1.6342 -0.8944 -0.1954
 5502TIP3    H240702   5.785   3.386  12.431 -1.7381 -0.1301 -0.4830
 5503TIP3   OH240703   2.311   3.443  11.714 -0.0045 -0.1606  0.2502
 5503TIP3    H140704   2.406   3.442  11.730 -0.2254  0.0278  1.7247
 5503TIP3    H240705   2.279   3.363  11.754 -0.5775  0.1875  0.4995
 5504TIP3   OH240706   3.763   4.666  12.910 -0.1257  0.0634 -0.0841
 5504TIP3    H140707   3.708   4.715  12.970  1.2603  0.6115  0.7968
 5504TIP3    H240708   3.817   4.611  12.967  1.7409  1.1328 -0.7304
 5505TIP3   OH240709   0.286   0.591  12.354  0.3175  0.0154 -0.2213
 5505TIP3    H140710   0.329   0.638  12.426  1.2902  0.4378 -1.0684
 5505TIP3    H240711   0.194   0.619  12.359  0.2692 -0.3079  1.1282
 5506TIP3   OH240712   7.287   5.570  12.822  0.9169  0.4863 -0.0723
 5506TIP3    H140713   7.369   5.522  12.835  0.3906 -0.8505 -1.3129
 5506TIP3    H240714   7.219   5.504  12.832  0.0238  1.4241  0.2111
 5507TIP3   OH240715   2.913   4.408  11.558 -0.0534 -0.6902 -0.8069
 5507TIP3    H140716   2.861   4.487  11.547  0.8250  0.7139  3.2606
 5507TIP3    H240717   3.001   4.432  11.528  0.0761 -0.2584 -0.1096
 5508TIP3   OH240718   0.798   6.951  11.255 -0.8862  0.2494  0.2078
 5508TIP3    H140719   0.736   7.020  11.280 -0.5521  1.0398 -1.0539
 5508TIP3    H240720   0.856   6.993  11.192  0.0082 -0.9022  0.2278
 5509TIP3   OH240721   4.435   0.780  12.515  0.1247  0.1154  0.1053
 5509TIP3    H140722   4.525   0.754  12.538 -0.1545 -2.1088 -1.0262
 5509TIP3    H240723   4.380   0.715  12.558 -0.9008  0.8061 -0.1267
 5510TIP3   OH240724   1.815   2.137  12.042 -0.1941  0.0805  0.2289
 5510TIP3    H140725   1.885   2.202  12.041 -0.8321  0.8101 -1.0005
 5510TIP3    H240726   1.755   2.167  12.110 -0.5140  0.8404 -0.3716
 5511TIP3   OH240727   4.604   5.820  11.042  0.0446 -0.0423  0.2796
 5511TIP3    H140728   4.651   5.829  11.125 -2.3558  3.7634  1.4948
 5511TIP3    H240729   4.532   5.760  11.061  0.6188 -0.7325  0.3195
 5512TIP3   OH240730   3.293   1.613  11.968 -0.4267  0.0340 -0.4843
 5512TIP3    H140731   3.225   1.567  12.018  0.2858 -0.3437  0.1753
 5512TIP3    H240732   3.288   1.703  11.999 -0.6875  0.0275 -0.5048
 5513TIP3   OH240733   2.788   2.677  12.617 -0.4760 -0.1037  0.2376
 5513TIP3    H140734   2.808   2.746  12.681  2.3163  2.1762 -2.7927
 5513TIP3    H240735   2.709   2.708  12.572 -0.1815  0.2853 -0.0143
 5514TIP3   OH240736   2.723   4.606  12.778  0.6854 -0.0011  0.2340
 5514TIP3    H140737   2.803   4.628  12.730  0.9046 -1.0281  0.1181
 5514TIP3    H240738   2.693   4.525  12.739 -0.5639  0.4968  0.1123
 5515TIP3   OH240739   5.217   7.562  12.603  0.6499  0.0172  0.2994
 5515TIP3    H140740   5.268   7.631  12.646  0.0550 -0.7124  2.2625
 5515TIP3    H240741   5.271   7.483  12.614  0.3629 -0.2350 -0.0858
 5516TIP3   OH240742   5.187   3.860  11.584 -0.2433 -0.0462 -0.2835
 5516TIP3    H140743   5.272   3.894  11.613  0.0503 -0.2305 -0.9011
 5516TIP3    H240744   5.166   3.790  11.646 -0.5886  0.8841  0.6675
 5517TIP3   OH240745   0.262   4.338  19.271 -0.4435 -0.1936 -0.2829
 5517TIP3    H140746   0.335   4.297  19.225  1.3851 -0.3326  2.5661
 5517TIP3    H240747   0.217   4.266  19.314 -1.9489 -0.0207 -1.4470
 5518TIP3   OH240748   3.858   6.225  11.685  0.1608  0.1980  0.9392
 5518TIP3    H140749   3.890   6.150  11.635 -2.4175 -0.3906  0.0576
 5518TIP3    H240750   3.855   6.193  11.776  3.0907  0.6842  1.3039
 5519TIP3   OH240751   0.701   7.595  12.257 -0.0912 -0.2966  0.3092
 5519TIP3    H140752   0.683   7.640  12.174 -1.6776  0.0701  0.8097
 5519TIP3    H240753   0.698   7.664  12.323 -2.2308 -1.0177  1.0534
 5520TIP3   OH240754   3.283   2.985  11.917  0.3202  0.2687 -0.0796
 5520TIP3    H140755   3.353   2.989  11.851  1.1483 -1.8705  0.5545
 5520TIP3    H240756   3.267   2.891  11.928 -3.2345  0.6757 -0.7253
 5521TIP3   OH240757   0.652   0.130  12.080 -0.8309 -0.5403  0.4658
 5521TIP3    H140758   0.657   0.219  12.113 -0.9634 -0.3529 -0.0130
 5521TIP3    H240759   0.562   0.121  12.048 -0.8118 -0.8365  0.4842
 5522TIP3   OH240760   2.051   1.436  10.986 -0.0137  0.2923  0.2575
 5522TIP3    H140761   2.018   1.353  11.022 -1.3968  0.9652  0.6158
 5522TIP3    H240762   2.126   1.410  10.933 -0.4506 -1.2056  0.3060
 5523TIP3   OH240763   1.552   7.018  10.400  0.0966  0.0643  0.1597
 5523TIP3    H140764   1.510   6.953  10.345  1.8644  1.1245 -2.6499
 5523TIP3    H240765   1.620   6.970  10.448 -1.2682 -0.8215  1.2534
 5524TIP3   OH240766   4.895   6.589  11.835  0.7965 -0.1679  0.0606
 5524TIP3    H140767   4.808   6.617  11.806  1.3440  0.6192 -0.8954
 5524TIP3    H240768   4.919   6.651  11.903  1.4565  0.9591 -1.1404
 5525TIP3   OH240769   6.960   4.747  12.586 -0.3501 -0.0947 -0.2835
 5525TIP3    H140770   6.984   4.667  12.634 -0.1590 -0.6256 -1.2329
 5525TIP3    H240771   6.902   4.716  12.517 -0.9014  0.7074 -0.1880
 5526TIP3   OH240772   3.986   0.682  12.148  0.0775  0.3536  0.4296
 5526TIP3    H140773   3.921   0.674  12.079 -0.3020  0.5534  0.7561
 5526TIP3    H240774   4.063   0.720  12.105  0.0069  0.0417  0.0260
 5527TIP3   OH240775   0.159   3.063  10.474 -0.0273 -0.0597 -0.2659
 5527TIP3    H140776   0.179   2.993  10.412 -0.0027 -1.7218  1.5175
 5527TIP3    H240777   0.140   3.018  10.556 -0.7774  2.0047  0.7801
 5528TIP3   OH240778   0.043   4.099  11.018  0.4696 -0.4559  0.9232
 5528TIP3    H140779   0.127   4.127  10.982  0.3481  1.7824  2.1845
 5528TIP3    H240780  -0.022   4.150  10.969  0.1210  0.5086  2.3467
 5529TIP3   OH240781   2.025   5.725  17.063 -0.0768 -0.2376  0.2393
 5529TIP3    H140782   2.101   5.707  17.119 -0.7540 -3.9637  0.1795
 5529TIP3    H240783   2.060   5.724  16.974  0.2518  1.3583  0.3048
 5530TIP3   OH240784   1.399   4.626  11.607 -0.3439  0.2239  0.0021
 5530TIP3    H140785   1.329   4.560  11.603 -1.1081  0.8433  1.9281
 5530TIP3    H240786   1.376   4.689  11.539 -1.6472  0.3904  0.5596
 5531TIP3   OH240787   1.155   1.210  10.768 -0.0079  0.0631  0.6450
 5531TIP3    H140788   1.215   1.140  10.794  0.4746 -0.9665 -2.6777
 5531TIP3    H240789   1.209   1.270  10.717 -1.4453 -0.2074 -1.3424
 5532TIP3   OH240790   5.434   2.621  12.243 -0.1267  0.0470  0.8318
 5532TIP3    H140791   5.463   2.554  12.181 -0.4437 -0.7708  1.5348
 5532TIP3    H240792   5.481   2.700  12.217 -0.3857 -0.2234 -0.5501
 5533TIP3   OH240793   6.362   3.315  11.180 -0.0614 -0.5807 -0.1149
 5533TIP3    H140794   6.368   3.406  11.154  0.5004 -0.3859  0.6391
 5533TIP3    H240795   6.453   3.289  11.197 -0.2633 -1.1303  0.1525
 5534TIP3   OH240796   1.393   2.939  10.553  0.3234 -0.3859 -0.0734
 5534TIP3    H140797   1.328   3.004  10.581  0.8298  0.1047 -0.0112
 5534TIP3    H240798   1.348   2.855  10.562  0.9324 -0.4857  3.8738
 5535TIP3   OH240799   5.909   6.045  12.251  0.2294  0.4386 -0.1595
 5535TIP3    H140800   5.920   5.973  12.188  1.9499 -2.3886  3.0279
 5535TIP3    H240801   5.827   6.026  12.295  1.2289 -0.3028  1.4563
 5536TIP3   OH240802   7.009   3.696  10.864 -0.0027  0.2867 -0.3918
 5536TIP3    H140803   6.927   3.654  10.891  0.9547 -2.0993 -0.9109
 5536TIP3    H240804   7.004   3.698  10.768  0.8708 -0.6550 -0.4709
 5537TIP3   OH240805   0.111   1.363  11.272 -0.5644 -0.2636  0.3723
 5537TIP3    H140806   0.131   1.424  11.201  0.8686 -1.0982  0.0120
 5537TIP3    H240807   0.049   1.301  11.234 -2.6665  1.3634  0.9788
 5538TIP3   OH240808   3.183   3.043  10.558 -0.6164  0.0793 -0.0546
 5538TIP3    H140809   3.100   3.008  10.591 -0.1304 -0.7893  0.2914
 5538TIP3    H240810   3.179   3.030  10.464 -0.3947 -1.0674  0.0759
 5539TIP3   OH240811   2.820   5.121  11.627 -0.6704 -0.8418  0.0022
 5539TIP3    H140812   2.820   5.027  11.608  2.0825 -0.4822 -2.5744
 5539TIP3    H240813   2.913   5.144  11.633 -1.2799  1.5663  1.7788
 5540TIP3   OH240814   1.584   5.188  12.316 -0.0605  0.5262  0.0226
 5540TIP3    H140815   1.509   5.164  12.371  0.6158 -1.1605  0.2773
 5540TIP3    H240816   1.582   5.284  12.313 -1.1038  0.5924  1.5867
 5541TIP3   OH240817   4.751   7.314  10.914 -0.3245  0.7856  0.7930
 5541TIP3    H140818   4.682   7.347  10.971 -1.6669 -1.8939  0.9043
 5541TIP3    H240819   4.704   7.280  10.837  1.0396  0.5542  0.0338
 5542TIP3   OH240820   4.682   3.267  12.916 -0.3986  0.1046  0.2344
 5542TIP3    H140821   4.695   3.193  12.975 -2.1771  0.1439  0.7384
 5542TIP3    H240822   4.693   3.230  12.828  2.2175  0.0374  0.5357
 5543TIP3   OH240823   0.764   0.676  11.922  0.6033 -0.1848 -0.2194
 5543TIP3    H140824   0.729   0.711  12.004  0.0806  1.6230 -1.1726
 5543TIP3    H240825   0.688   0.636  11.879  1.0256 -1.8376  0.4636
 5544TIP3   OH240826   3.840   2.146  12.529 -0.1069  0.8291  0.2542
 5544TIP3    H140827   3.931   2.144  12.497 -0.1168 -0.5388  0.2498
 5544TIP3    H240828   3.843   2.205  12.605  1.0489 -0.1162  0.9790
 5545TIP3   OH240829   5.533   3.057  12.289  0.2303 -0.6956  0.3953
 5545TIP3    H140830   5.507   2.976  12.247  1.5802 -0.6994 -0.5034
 5545TIP3    H240831   5.562   3.113  12.217 -1.7533  1.0352  0.8578
 5546TIP3   OH240832   0.816   2.100  10.593  0.8573 -0.0695  0.1490
 5546TIP3    H140833   0.854   2.089  10.506  0.9970 -0.4459  0.2575
 5546TIP3    H240834   0.770   2.017  10.610 -1.5385  0.9836 -0.7338
 5547TIP3   OH240835   3.633   4.287  11.736 -0.4345 -0.3122 -0.2562
 5547TIP3    H140836   3.551   4.334  11.748  0.0946  0.7692 -0.7561
 5547TIP3    H240837   3.660   4.308  11.647 -0.2484 -1.6944 -0.5536
 5548TIP3   OH240838   2.498   5.115  11.792 -0.2019  0.2451 -0.0683
 5548TIP3    H140839   2.468   5.025  11.775 -1.4378  0.6899 -0.3148
 5548TIP3    H240840   2.423   5.170  11.770  1.0950  1.4871 -1.5613
 5549TIP3   OH240841   3.652   4.833  12.012 -0.1519 -0.7564  0.2308
 5549TIP3    H140842   3.638   4.738  12.005  1.9591 -0.9794 -3.2525
 5549TIP3    H240843   3.730   4.849  11.959  0.7136  2.7550  2.2495
 5550TIP3   OH240844   0.010   2.521  10.114  0.0665  0.1129  0.0319
 5550TIP3    H140845  -0.073   2.529  10.160  0.4622  1.7079  0.5367
 5550TIP3    H240846  -0.014   2.500  10.024 -0.9615  1.5913 -0.0668
 5551TIP3   OH240847   5.650   4.263  11.435  0.6180  0.0045  0.6557
 5551TIP3    H140848   5.556   4.284  11.435  0.1205 -1.9174  1.8321
 5551TIP3    H240849   5.693   4.344  11.460 -0.6686  1.0768 -0.4374
 5552TIP3   OH240850   2.346   3.998  11.182 -0.1632  0.4059 -0.6579
 5552TIP3    H140851   2.330   3.918  11.233 -1.0380  1.3927  0.6832
 5552TIP3    H240852   2.283   4.061  11.217  3.0218  2.9040  1.0938
 5553TIP3   OH240853   2.148   7.325  10.948 -0.4007 -0.3921 -0.2889
 5553TIP3    H140854   2.122   7.390  10.883  0.1297 -0.0609 -0.1736
 5553TIP3    H240855   2.065   7.291  10.982 -0.6814  0.0959 -0.4777
 5554TIP3   OH240856   2.605   6.182  12.900  0.4489 -0.0434 -0.1869
 5554TIP3    H140857   2.534   6.236  12.933 -0.5655 -1.2449 -0.3430
 5554TIP3    H240858   2.584   6.167  12.808  0.2415 -1.4082  0.0653
 5555TIP3   OH240859   0.725   7.545  10.962 -0.2995 -0.8477 -0.1453
 5555TIP3    H140860   0.781   7.497  10.900 -1.9083 -1.3960 -1.2174
 5555TIP3    H240861   0.700   7.625  10.916  0.4199 -0.0798  0.7380
 5556TIP3   OH240862   3.728   3.079  10.696 -0.3084  0.3026  0.1266
 5556TIP3    H140863   3.765   3.134  10.766  0.2584 -0.4899  0.4600
 5556TIP3    H240864   3.724   2.991  10.734 -0.5047 -0.0359 -0.6630
 5557TIP3   OH240865   1.946   1.201  11.089  0.4533  0.6387  0.0059
 5557TIP3    H140866   2.003   1.160  11.153 -0.2530  1.2642  1.0586
 5557TIP3    H240867   1.860   1.163  11.106 -0.0474  1.9089  0.4483
 5558TIP3   OH240868   2.079   1.611  11.257  0.2801 -0.3924  0.2412
 5558TIP3    H140869   2.147   1.649  11.201 -0.3903  1.2431  0.4818
 5558TIP3    H240870   2.079   1.518  11.233  0.3429  0.1389 -2.1466
 5559TIP3   OH240871   2.570   0.710  11.715  0.4237 -0.5333 -0.4026
 5559TIP3    H140872   2.612   0.662  11.643 -0.3149 -0.9368 -0.5719
 5559TIP3    H240873   2.522   0.780  11.672 -0.3116 -0.9913 -0.3397
 5560TIP3   OH240874   7.211   3.034  11.623  0.6805  0.1376 -0.0622
 5560TIP3    H140875   7.195   2.958  11.680  0.5300  0.6301  0.5661
 5560TIP3    H240876   7.124   3.060  11.592  0.4057  1.5472  1.7031
 5561TIP3   OH240877   2.771   1.993  12.142  0.3711 -0.5957  0.0867
 5561TIP3    H140878   2.855   1.993  12.097  0.6353  0.9242  0.5278
 5561TIP3    H240879   2.780   1.928  12.212  0.5873 -1.6344 -0.8803
 5562TIP3   OH240880   5.723   4.275  10.403 -0.0168  0.0507  0.1142
 5562TIP3    H140881   5.791   4.329  10.364 -0.4845  1.2067  0.8725
 5562TIP3    H240882   5.646   4.291  10.349 -0.1975  0.2740  0.4347
 5563TIP3   OH240883   4.981   4.349  12.560  0.7177  0.4743 -0.0254
 5563TIP3    H140884   5.026   4.360  12.643  0.1170  2.6651  0.0886
 5563TIP3    H240885   4.919   4.277  12.574  0.9401  0.5264  1.2760
 5564TIP3   OH240886   2.658   0.569  11.495  0.5844  0.2465 -0.0587
 5564TIP3    H140887   2.730   0.611  11.448 -0.2016 -0.8484 -2.3914
 5564TIP3    H240888   2.663   0.477  11.468 -3.6514  0.6455 -3.2138
 5565TIP3   OH240889   2.335   6.985  11.617 -0.1860 -0.5826 -0.0863
 5565TIP3    H140890   2.361   6.986  11.709 -0.6027 -1.9281  0.0620
 5565TIP3    H240891   2.240   6.970  11.618 -0.3586  0.3126 -0.7275
 5566TIP3   OH240892   2.704   6.403  12.397 -0.3021 -0.2427 -0.5103
 5566TIP3    H140893   2.722   6.490  12.432  0.0052  0.8372 -3.1598
 5566TIP3    H240894   2.609   6.393  12.406 -0.7633  1.5342 -2.4827
 5567TIP3   OH240895   1.467   3.576  12.782  0.3362 -0.4668 -0.2309
 5567TIP3    H140896   1.378   3.547  12.804 -1.2504  0.3005 -4.6577
 5567TIP3    H240897   1.467   3.670  12.800  0.3424 -0.5133  0.0123
 5568TIP3   OH240898   6.523   1.538  12.514  0.3516 -0.6441 -0.6326
 5568TIP3    H140899   6.510   1.533  12.609  0.1274 -0.7898 -0.6704
 5568TIP3    H240900   6.616   1.559  12.504  0.5323 -1.3004 -0.3932
 5569TIP3   OH240901   1.169   3.432  11.578  0.7250 -0.1164 -0.1935
 5569TIP3    H140902   1.202   3.471  11.659 -1.5260  0.9713  0.2891
 5569TIP3    H240903   1.213   3.481  11.508  1.3104  0.2176  0.3999
 5570TIP3   OH240904   4.154   7.434  11.481  0.1711 -0.1254 -0.1966
 5570TIP3    H140905   4.061   7.422  11.466  0.0539  0.9144 -0.3109
 5570TIP3    H240906   4.165   7.423  11.576 -0.0328 -0.4144 -0.2046
 5571TIP3   OH240907   4.125   5.237  10.698 -0.0254  0.1220  0.2050
 5571TIP3    H140908   4.186   5.231  10.771  0.0541  0.7793  0.1957
 5571TIP3    H240909   4.109   5.146  10.673 -2.0294 -0.2847  2.6529
 5572TIP3   OH240910   0.743   0.397  11.760 -0.6915 -0.8593  0.0752
 5572TIP3    H140911   0.739   0.400  11.665  1.0510 -1.4951 -0.0531
 5572TIP3    H240912   0.681   0.463  11.789 -2.8610 -2.1132 -1.4391
 5573TIP3   OH240913   6.521   4.063  10.611  0.2295 -0.2235 -0.0367
 5573TIP3    H140914   6.509   4.067  10.706  1.1981 -0.3728  0.0992
 5573TIP3    H240915   6.587   4.130  10.592  0.2732 -0.4094 -0.5608
 5574TIP3   OH240916   5.646   4.016  12.425  0.0230 -0.0585  0.0582
 5574TIP3    H140917   5.645   4.106  12.394  0.1158 -0.1748 -0.2804
 5574TIP3    H240918   5.577   4.013  12.491  0.9211  0.6002  1.0546
 5575TIP3   OH240919   1.386   2.631  11.846 -0.2788 -0.4458 -0.4479
 5575TIP3    H140920   1.468   2.628  11.896  0.7369 -1.6069 -2.0712
 5575TIP3    H240921   1.319   2.650  11.911  1.3930  1.7045  0.7768
 5576TIP3   OH240922   2.801   4.891  11.312 -0.0519 -0.1087 -0.1059
 5576TIP3    H140923   2.712   4.894  11.347  0.0328 -0.0441  0.1017
 5576TIP3    H240924   2.807   4.968  11.256 -0.8030 -1.1696 -1.7447
 5577TIP3   OH240925   4.358   6.283  12.412 -0.2358  0.0328  0.4319
 5577TIP3    H140926   4.302   6.306  12.337 -0.1852 -0.1301  0.3421
 5577TIP3    H240927   4.425   6.225  12.374  1.0492  1.6078  0.1918
 5578TIP3   OH240928   2.301   7.093  12.210  0.4575  0.2855  0.5168
 5578TIP3    H140929   2.239   7.029  12.246  0.9665 -0.9534 -0.7264
 5578TIP3    H240930   2.250   7.173  12.201 -0.3654 -0.0954  1.5373
 5579TIP3   OH240931   6.854   0.362  13.066  0.0603  0.0521 -0.2338
 5579TIP3    H140932   6.819   0.275  13.046 -0.8633  0.2329  0.5338
 5579TIP3    H240933   6.785   0.405  13.116  1.3630  0.4517  1.3062
 5580TIP3   OH240934   3.664   4.571  12.454 -0.7141  0.1060 -0.1933
 5580TIP3    H140935   3.668   4.560  12.549 -0.9248 -0.3448 -0.2325
 5580TIP3    H240936   3.743   4.526  12.422  1.9441  4.1279  0.0557
 5581TIP3   OH240937   5.474   1.894  12.151 -0.2343 -0.6963 -0.1166
 5581TIP3    H140938   5.479   1.899  12.056  0.9925 -1.6880 -0.1254
 5581TIP3    H240939   5.381   1.876  12.168 -0.6971  0.6730 -1.0372
 5582TIP3   OH240940   2.432   3.240  12.140 -0.3331  0.0475  0.0114
 5582TIP3    H140941   2.446   3.317  12.196  0.6275 -0.3386  0.3041
 5582TIP3    H240942   2.450   3.165  12.197  3.3000 -0.3587 -1.4044
 5583TIP3   OH240943   4.541   1.731  11.356 -0.1751  0.0472 -0.0520
 5583TIP3    H140944   4.503   1.645  11.372  2.0653 -0.8799  0.8401
 5583TIP3    H240945   4.557   1.766  11.444 -1.6462  1.6979 -0.3975
 5584TIP3   OH240946   4.164   4.068  12.613 -0.0227  0.6122 -0.2913
 5584TIP3    H140947   4.213   4.128  12.669 -0.7259  1.5541 -0.6655
 5584TIP3    H240948   4.125   4.005  12.675  0.1654  0.9433  0.1686
 5585TIP3   OH240949   4.574   1.353  11.932 -0.1670 -0.3703  0.0187
 5585TIP3    H140950   4.651   1.345  11.876 -0.8475 -2.1061 -0.7315
 5585TIP3    H240951   4.580   1.280  11.994 -1.7968 -1.3290 -0.8632
 5586TIP3   OH240952   0.192   7.526  13.210  0.1127 -0.0978 -0.1393
 5586TIP3    H140953   0.126   7.502  13.145 -0.0746 -0.3303  0.1326
 5586TIP3    H240954   0.235   7.443  13.232 -0.0256 -0.0726  0.2468
 5587TIP3   OH240955   2.696   1.282  10.979  0.0158  0.5950  0.0896
 5587TIP3    H140956   2.753   1.321  10.913 -0.8652  0.5465 -0.7273
 5587TIP3    H240957   2.633   1.350  11.000 -1.3385 -0.2466 -1.1073
 5588TIP3   OH240958   5.871   5.685  10.717 -0.1554  0.3333 -0.2029
 5588TIP3    H140959   5.862   5.704  10.624  2.5567 -0.4010 -0.6977
 5588TIP3    H240960   5.816   5.607  10.731  0.8586 -0.6679 -1.6278
 5589TIP3   OH240961   5.453   4.013  12.638  0.1108 -0.3236  0.4130
 5589TIP3    H140962   5.369   4.057  12.633  0.2802 -0.0921 -0.6154
 5589TIP3    H240963   5.430   3.920  12.648 -0.2811 -0.3176 -0.3342
 5590TIP3   OH240964   1.171   6.503  12.411  0.1792 -0.3971  0.7681
 5590TIP3    H140965   1.173   6.419  12.365  0.4187  0.3367 -0.5964
 5590TIP3    H240966   1.185   6.480  12.503  1.3072 -1.7521  0.2866
 5591TIP3   OH240967   1.637   1.905  11.680  0.1158  0.5851 -0.5385
 5591TIP3    H140968   1.558   1.850  11.672  0.1933  0.5471 -1.0726
 5591TIP3    H240969   1.634   1.963  11.604  0.3445  0.9259 -0.2916
 5592TIP3   OH240970   6.927   2.166  12.234 -0.0304 -0.3249 -0.1790
 5592TIP3    H140971   6.949   2.250  12.273  1.1780  0.7518 -2.9519
 5592TIP3    H240972   7.011   2.130  12.205 -0.8647 -0.6977 -2.3402
 5593TIP3   OH240973   1.510   3.892  11.155  0.2805 -0.1947  0.1891
 5593TIP3    H140974   1.547   3.810  11.187  0.1211  0.2368  1.5584
 5593TIP3    H240975   1.455   3.866  11.081  1.8872 -1.0396 -0.7627
 5594TIP3   OH240976   3.329   3.190  10.277 -0.4854  0.1947  0.3016
 5594TIP3    H140977   3.264   3.123  10.257  0.1551 -0.3167 -0.1085
 5594TIP3    H240978   3.278   3.270  10.289 -1.3473 -0.5065  1.6262
 5595TIP3   OH240979   4.880   2.164  11.478 -0.7705  0.0354 -0.2262
 5595TIP3    H140980   4.806   2.137  11.533 -1.2551  1.5280 -0.1023
 5595TIP3    H240981   4.846   2.237  11.427  0.1905 -0.2437 -1.2942
 5596TIP3   OH240982   4.313   2.856  12.525  0.3814 -0.7331 -0.0885
 5596TIP3    H140983   4.336   2.763  12.525  0.2560 -0.7644  0.0638
 5596TIP3    H240984   4.327   2.884  12.435 -0.0953 -1.0278 -0.2596
 5597TIP3   OH240985   3.474   5.365  10.082 -0.0702 -0.5722  0.1660
 5597TIP3    H140986   3.472   5.280  10.127  0.2225 -0.4209  0.4720
 5597TIP3    H240987   3.536   5.352  10.010  0.3976 -0.4683  0.5387
 5598TIP3   OH240988   0.588   1.088  12.094  1.1032 -0.5073  0.0878
 5598TIP3    H140989   0.495   1.110  12.097  1.0824 -0.6404  0.6757
 5598TIP3    H240990   0.628   1.157  12.041  0.7269 -0.2348  0.1538
 5599TIP3   OH240991   3.694   7.073  11.061  0.0357 -0.1136  0.1514
 5599TIP3    H140992   3.645   6.991  11.062 -0.6625  0.2900  1.5097
 5599TIP3    H240993   3.773   7.053  11.010  0.1352 -1.7939  0.8928
 5600TIP3   OH240994   6.334   4.648  10.773 -0.3663  0.4004  0.2850
 5600TIP3    H140995   6.310   4.680  10.687  0.7441  2.1985  0.5816
 5600TIP3    H240996   6.336   4.552  10.764  1.6696  0.5544 -2.2651
 5601TIP3   OH240997   4.643   3.284  10.887 -0.5931 -0.5049  0.2867
 5601TIP3    H140998   4.649   3.364  10.939  1.4387  1.0596 -2.1082
 5601TIP3    H240999   4.731   3.245  10.893 -0.9667 -1.4661 -0.2021
 5602TIP3   OH241000   7.394   5.092  12.109 -0.0249  0.6516 -0.2765
 5602TIP3    H141001   7.378   5.001  12.137 -0.6098  0.8391  0.0168
 5602TIP3    H241002   7.458   5.126  12.172  0.4792  0.3306 -0.6095
 5603TIP3   OH241003   5.090   1.618  12.270  0.0516  0.0039  0.3064
 5603TIP3    H141004   5.034   1.567  12.328  0.2003 -0.9691 -0.3752
 5603TIP3    H241005   5.032   1.684  12.232 -0.0513  0.6226  1.5045
 5604TIP3   OH241006   2.261   3.600  11.174 -0.1531  0.0778  0.3692
 5604TIP3    H141007   2.283   3.648  11.254  1.4347  1.2485 -0.7034
 5604TIP3    H241008   2.322   3.527  11.172  0.6782  0.7681 -0.3656
 5605TIP3   OH241009   0.282   7.246  13.174 -0.7058  0.1196 -0.0709
 5605TIP3    H141010   0.245   7.167  13.134 -2.1227  1.5265 -1.7271
 5605TIP3    H241011   0.324   7.292  13.101  0.0198  0.9385  0.8380
 5606TIP3   OH241012   1.115   1.243  13.195  0.3086  0.6217  0.2134
 5606TIP3    H141013   1.205   1.276  13.197  0.1755  0.9875  0.1450
 5606TIP3    H241014   1.125   1.149  13.177  0.6483  0.7659 -0.3755
 5607TIP3   OH241015   5.887   7.088  11.884 -0.1220 -0.1743 -0.0224
 5607TIP3    H141016   5.864   7.161  11.942 -0.1895  0.3187 -0.6427
 5607TIP3    H241017   5.885   7.127  11.796 -0.6561 -1.0467 -0.4109
 5608TIP3   OH241018   1.625   3.171  10.382 -0.1656 -0.5901  0.0687
 5608TIP3    H141019   1.626   3.242  10.447 -0.4948 -0.9603  0.4891
 5608TIP3    H241020   1.603   3.214  10.300  1.5427  0.1035 -0.0680
 5609TIP3   OH241021   0.797   7.638  11.912 -0.3391  0.0111 -0.6849
 5609TIP3    H141022   0.890   7.650  11.933  0.1903 -1.9278 -1.6721
 5609TIP3    H241023   0.751   7.696  11.973  1.4493 -0.0332  0.8058
 5610TIP3   OH241024   6.351   3.624  13.186 -0.5190 -0.4022 -0.0832
 5610TIP3    H141025   6.328   3.531  13.195 -0.0692 -0.5145 -0.0693
 5610TIP3    H241026   6.278   3.662  13.137 -0.3280 -0.9313 -0.7909
 5611TIP3   OH241027   3.281   1.053  12.882  0.4575 -0.1499  0.4227
 5611TIP3    H141028   3.195   1.061  12.922  0.1667  0.7565 -0.3592
 5611TIP3    H241029   3.308   0.962  12.900 -0.6918 -0.4703  0.5740
 5612TIP3   OH241030   2.924   3.188  10.198  0.2213  0.1003  0.2723
 5612TIP3    H141031   2.980   3.242  10.144  0.5924 -1.3563 -0.8513
 5612TIP3    H241032   2.871   3.250  10.248  0.6001  1.4851 -0.9972
 5613TIP3   OH241033   4.635   3.382  12.375  0.2028 -0.6968  0.1102
 5613TIP3    H141034   4.727   3.406  12.360  0.4246 -1.6393 -0.0925
 5613TIP3    H241035   4.586   3.454  12.336  0.8245  1.5012  3.0412
 5614TIP3   OH241036   3.594   1.292  10.438  0.4203  0.4673  0.3063
 5614TIP3    H141037   3.616   1.371  10.388 -0.9881  0.6478 -0.0699
 5614TIP3    H241038   3.508   1.266  10.405 -0.1677  0.0941  2.0310
 5615TIP3   OH241039   6.607   1.776  10.973 -0.3443  0.1305  0.4506
 5615TIP3    H141040   6.560   1.810  11.050  0.1782 -0.6030  1.1056
 5615TIP3    H241041   6.586   1.838  10.904 -0.1266  1.3063  1.3976
 5616TIP3   OH241042   2.801   7.036  11.575  0.1302  0.3620 -0.5643
 5616TIP3    H141043   2.895   7.034  11.559  0.1383 -1.0967 -0.4654
 5616TIP3    H241044   2.791   7.079  11.660  0.8385 -0.9287  0.1979
 5617TIP3   OH241045   0.801   7.655  10.451  0.6460 -0.2271  0.1090
 5617TIP3    H141046   0.807   7.748  10.427  1.4676 -0.2501  0.2176
 5617TIP3    H241047   0.774   7.656  10.543  0.6602 -0.0947  0.1118
 5618TIP3   OH241048   0.200   3.896  12.169  0.2244  0.2358  0.2039
 5618TIP3    H141049   0.134   3.955  12.132 -0.1974 -0.3125  0.0611
 5618TIP3    H241050   0.220   3.835  12.098  1.5175  0.8939 -0.0328
 5619TIP3   OH241051   5.834   3.099  11.903 -0.5318  0.3001  0.2465
 5619TIP3    H141052   5.830   3.004  11.915  0.7939  0.1918  0.0560
 5619TIP3    H241053   5.843   3.111  11.809  1.2833  0.4750  0.3993
 5620TIP3   OH241054   0.508   4.715  10.584  0.2662  0.3852 -0.3503
 5620TIP3    H141055   0.458   4.743  10.507  0.9106 -0.3344 -1.0411
 5620TIP3    H241056   0.527   4.623  10.569  1.2602  0.4806  0.2081
 5621TIP3   OH241057   4.665   6.251  12.025 -0.2438  0.0171  0.4912
 5621TIP3    H141058   4.730   6.292  11.969  1.1084 -0.9840  1.2509
 5621TIP3    H241059   4.617   6.324  12.065  0.9755  0.7996  0.5491
 5622TIP3   OH241060   0.890   4.613  10.613 -0.0335 -0.2140  1.0494
 5622TIP3    H141061   0.804   4.606  10.572  0.2766  1.0070  0.1042
 5622TIP3    H241062   0.931   4.689  10.570  1.5979 -0.8898  1.3168
 5623TIP3   OH241063   0.826   7.041  11.819 -0.1244 -0.5967  0.3505
 5623TIP3    H141064   0.757   7.058  11.755 -1.3214 -0.1398  1.7013
 5623TIP3    H241065   0.907   7.072  11.777 -0.7424 -1.0499 -1.2230
 5624TIP3   OH241066   1.588   1.077  12.670  0.0934  0.0363 -0.2491
 5624TIP3    H141067   1.608   1.058  12.578 -0.8193  0.7172 -0.6016
 5624TIP3    H241068   1.674   1.084  12.712  0.5609 -3.2275 -0.3757
 5625TIP3   OH241069   7.554   0.983  11.538 -0.1366  1.1130  0.0738
 5625TIP3    H141070   7.538   0.993  11.444 -0.4533 -4.0310 -0.7068
 5625TIP3    H241071   7.490   0.917  11.566  2.8484 -0.9112  2.7593
 5626TIP3   OH241072   3.650   2.423  11.680  0.2785 -0.3560 -0.2281
 5626TIP3    H141073   3.715   2.434  11.750 -0.7457  0.5407  0.6046
 5626TIP3    H241074   3.612   2.337  11.697  0.3454 -0.3346  0.0420
 5627TIP3   OH241075   6.166   6.918  11.076 -0.0322 -0.3801 -0.0532
 5627TIP3    H141076   6.149   6.970  10.997 -0.7454 -2.1719 -1.1405
 5627TIP3    H241077   6.260   6.924  11.089  0.1412 -0.2882 -1.2191
 5628TIP3   OH241078   6.172   0.436  10.496 -0.1099  0.2367  0.0465
 5628TIP3    H141079   6.078   0.416  10.496  0.1181 -0.9860 -1.4456
 5628TIP3    H241080   6.179   0.524  10.459 -0.6605  0.3043  0.0993
 5629TIP3   OH241081   2.287   1.539  11.604 -0.3001  0.0589  0.3156
 5629TIP3    H141082   2.349   1.581  11.663  0.3770 -1.5710  0.8375
 5629TIP3    H241083   2.217   1.602  11.593  1.0679  1.6449  0.3343
 5630TIP3   OH241084   2.443   0.108  13.172  0.5019 -0.3867  0.4548
 5630TIP3    H141085   2.354   0.120  13.141  1.2795  1.3488 -1.3133
 5630TIP3    H241086   2.470   0.023  13.137 -0.0347 -0.3388 -0.0751
 5631TIP3   OH241087   7.173   6.273  12.121  0.5192 -0.6150  0.1753
 5631TIP3    H141088   7.081   6.249  12.108  0.2779  0.3799 -0.0082
 5631TIP3    H241089   7.179   6.365  12.094  1.1843 -0.1353  1.7912
 5632TIP3   OH241090   4.466   1.508  12.590 -0.5924  0.3058 -0.2696
 5632TIP3    H141091   4.528   1.563  12.541 -1.3721  1.5647  0.1097
 5632TIP3    H241092   4.452   1.556  12.672 -0.3439 -1.0997  0.6136
 5633TIP3   OH241093   0.577   3.379  12.500 -0.0330  0.0725 -0.0736
 5633TIP3    H141094   0.539   3.371  12.412 -0.5188 -2.0608  0.2794
 5633TIP3    H241095   0.668   3.405  12.485 -0.3536  0.6368 -1.1538
 5634TIP3   OH241096   3.992   0.711  10.497  0.1088  0.2844  0.1361
 5634TIP3    H141097   3.965   0.670  10.415  0.6752  1.2573 -0.5605
 5634TIP3    H241098   4.088   0.717  10.490  0.0758  1.2976  0.4080
 5635TIP3   OH241099   2.741   0.147  10.360 -0.6067 -0.2989  0.2347
 5635TIP3    H141100   2.784   0.185  10.283 -1.5429  1.3244  0.4695
 5635TIP3    H241101   2.791   0.182  10.434 -1.4856  0.5217  0.4539
 5636TIP3   OH241102   4.652   3.804  11.270  0.4775 -0.6194  0.0968
 5636TIP3    H141103   4.643   3.709  11.280  0.5603 -0.8483 -1.7123
 5636TIP3    H241104   4.575   3.840  11.314 -0.5124 -1.6447 -0.7362
 5637TIP3   OH241105   7.450   0.270  10.835  0.4314 -0.0094  1.0392
 5637TIP3    H141106   7.488   0.184  10.854 -0.9193 -0.7964  0.3259
 5637TIP3    H241107   7.505   0.331  10.884  2.1018 -1.1521  0.6840
 5638TIP3   OH241108   3.026   7.071  12.616  0.3335  0.1127 -0.5713
 5638TIP3    H141109   3.113   7.109  12.627  0.4662 -0.1631 -0.6693
 5638TIP3    H241110   3.020   7.006  12.686 -0.3217  1.0757  0.3127
 5639TIP3   OH241111   4.168   5.536  11.468  0.0222  0.6094  0.7361
 5639TIP3    H141112   4.228   5.608  11.450 -0.0263  0.4874  0.0401
 5639TIP3    H241113   4.123   5.562  11.549  0.8450  0.7963  1.1433
 5640TIP3   OH241114   2.637   3.792  11.315  0.2140  0.0822 -0.4605
 5640TIP3    H141115   2.651   3.755  11.402 -0.6155 -0.1874 -0.4293
 5640TIP3    H241116   2.668   3.882  11.321 -0.2030  0.1810  0.2209
 5641TIP3   OH241117   2.048   0.214  11.000  0.1458 -0.4406  0.1173
 5641TIP3    H141118   2.017   0.289  10.949 -2.7072 -0.8382  1.0905
 5641TIP3    H241119   2.060   0.248  11.088  1.6475 -0.5418 -0.0217
 5642TIP3   OH241120   4.092   5.431  12.343 -0.5077 -0.3666  0.9490
 5642TIP3    H141121   4.140   5.514  12.339 -1.7416  0.3915  1.1550
 5642TIP3    H241122   4.014   5.451  12.395 -0.7441 -1.7077  1.1449
 5643TIP3   OH241123   0.226   0.120  13.278 -0.2800 -0.0203 -0.3869
 5643TIP3    H141124   0.143   0.160  13.253 -0.0400  0.7553  0.0332
 5643TIP3    H241125   0.222   0.031  13.241 -0.8270  0.3735 -1.3158
 5644TIP3   OH241126   4.934   4.144  11.866  0.0776 -0.0341 -0.1833
 5644TIP3    H141127   4.983   4.218  11.901 -0.3033 -0.2157  0.7695
 5644TIP3    H241128   4.941   4.153  11.771  0.2323  1.0914 -0.0752
 5645TIP3   OH241129   5.052   6.191  11.696 -0.3208  0.0165  0.6037
 5645TIP3    H141130   5.007   6.108  11.679 -0.6272  0.0375  1.2497
 5645TIP3    H241131   5.041   6.242  11.616  1.8712 -1.4301 -0.7104
 5646TIP3   OH241132   5.721   7.557  12.086  0.2004  0.0923 -0.0591
 5646TIP3    H141133   5.631   7.539  12.111  0.3564 -0.6844 -0.0350
 5646TIP3    H241134   5.714   7.602  12.002 -0.1985 -0.1556 -0.1610
 5647TIP3   OH241135   5.241   2.438  10.553 -0.3752  0.6458 -0.0781
 5647TIP3    H141136   5.171   2.477  10.606  0.1595  1.3644  0.1186
 5647TIP3    H241137   5.221   2.345  10.551 -0.6751  0.6734  0.9962
 5648TIP3   OH241138   2.673   0.881  10.667 -0.7636  0.2922 -0.1210
 5648TIP3    H141139   2.767   0.896  10.682 -0.6407 -0.9178  0.4098
 5648TIP3    H241140   2.630   0.947  10.721 -0.2283 -0.9028  1.8853
 5649TIP3   OH241141   1.192   1.075  11.396 -0.3920  0.3354  1.2779
 5649TIP3    H141142   1.153   1.159  11.372  0.2030  0.0886 -0.7073
 5649TIP3    H241143   1.237   1.045  11.317  0.5513 -1.2266  2.3388
 5650TIP3   OH241144   0.830   4.902  12.177  0.5630 -0.0337 -0.0939
 5650TIP3    H141145   0.805   4.868  12.091 -1.2761 -0.2486  0.4966
 5650TIP3    H241146   0.754   4.953  12.206  1.5522  0.8905  0.9748
 5651TIP3   OH241147   1.484   1.880  11.325  0.0815  0.3899 -0.2316
 5651TIP3    H141148   1.459   1.910  11.238  0.4535  1.6140  0.0674
 5651TIP3    H241149   1.534   1.799  11.310 -1.2060 -0.2873 -1.0336
 5652TIP3   OH241150   4.066   0.200  12.403 -0.0027  0.3893 -0.3271
 5652TIP3    H141151   4.158   0.184  12.383  0.0172  0.0963 -0.0015
 5652TIP3    H241152   4.031   0.114  12.426  0.0293  0.7427  1.1121
 5653TIP3   OH241153   1.748   4.886  11.806  0.4703  0.4392  0.3711
 5653TIP3    H141154   1.695   4.959  11.773  0.8894 -0.1103 -1.6739
 5653TIP3    H241155   1.686   4.813  11.814  0.4755  0.4229  0.2597
 5654TIP3   OH241156   7.000   3.817  12.505 -0.2029  0.5698 -0.0961
 5654TIP3    H141157   6.944   3.880  12.549  2.5737  1.0039  3.1927
 5654TIP3    H241158   7.016   3.856  12.418 -1.6222  2.4357  0.4201
 5655TIP3   OH241159   1.755   0.728  12.186  0.2680  0.5952  0.0104
 5655TIP3    H141160   1.752   0.642  12.230 -0.5526  1.5438  1.9385
 5655TIP3    H241161   1.667   0.763  12.199  0.5070  1.6069 -1.0427
 5656TIP3   OH241162   0.430   1.585  11.612 -0.5644 -0.5095  0.1526
 5656TIP3    H141163   0.383   1.658  11.653  0.4111  1.0956 -1.4544
 5656TIP3    H241164   0.382   1.568  11.531  0.6949  0.0963 -0.7421
 5657TIP3   OH241165   4.014   7.382  10.556 -0.1439  0.7401 -0.0563
 5657TIP3    H141166   3.978   7.409  10.640  1.5622  1.2810  0.5395
 5657TIP3    H241167   3.948   7.409  10.492 -1.2401  0.7673  1.0473
 5658TIP3   OH241168   6.270   1.467  11.608 -0.3788 -0.1507 -0.2850
 5658TIP3    H141169   6.190   1.449  11.658  0.1130  1.8067  1.3018
 5658TIP3    H241170   6.341   1.449  11.669  0.5428 -2.8006 -1.9633
 5659TIP3   OH241171   3.413   3.837  12.002  0.3766 -0.3054  0.2415
 5659TIP3    H141172   3.497   3.843  12.047  1.7562  0.0920 -2.2129
 5659TIP3    H241173   3.403   3.922  11.958 -1.4564 -0.2501  0.6826
 5660TIP3   OH241174   3.845   2.960  10.488  0.2007  0.5718 -0.1382
 5660TIP3    H141175   3.810   3.016  10.557  0.9734 -0.4991  1.1539
 5660TIP3    H241176   3.767   2.924  10.445 -0.2870  0.9178  0.4411
 5661TIP3   OH241177   0.344   3.223  12.147  0.0906 -0.2080 -0.1099
 5661TIP3    H141178   0.264   3.207  12.096  0.1823 -1.3886  0.1032
 5661TIP3    H241179   0.324   3.302  12.197  0.2480  1.4126 -2.4371
 5662TIP3   OH241180   5.707   5.509  10.847  0.1850 -0.0209  0.1602
 5662TIP3    H141181   5.727   5.434  10.903 -1.6953 -0.0179  0.9119
 5662TIP3    H241182   5.675   5.576  10.907 -1.5679  0.1016 -0.8568
 5663TIP3   OH241183   3.894   1.243  11.965 -0.2029 -0.3422 -0.5053
 5663TIP3    H141184   3.804   1.253  11.998  0.1583 -1.4884  0.9039
 5663TIP3    H241185   3.903   1.149  11.948  1.2492 -0.4959  0.9455
 5664TIP3   OH241186   3.194   3.062  12.172 -0.4961  0.6252 -0.1626
 5664TIP3    H141187   3.176   3.155  12.154 -1.7356  0.1124 -1.7636
 5664TIP3    H241188   3.243   3.032  12.095  0.3380  0.0419  0.5774
 5665TIP3   OH241189   7.171   3.676  11.450 -0.1565  0.6714  0.6261
 5665TIP3    H141190   7.136   3.732  11.381 -0.0035  0.7785  0.6372
 5665TIP3    H241191   7.093   3.643  11.495 -0.2283  1.2468  0.9211
 5666TIP3   OH241192   3.127   2.985  10.293 -0.3997  0.5566 -0.3829
 5666TIP3    H141193   3.065   3.055  10.269 -0.0281  1.0501  0.0832
 5666TIP3    H241194   3.074   2.906  10.294 -0.4851  0.5257 -2.6711
 5667TIP3   OH241195   6.379   3.943  12.272  0.7610 -0.2981 -0.1400
 5667TIP3    H141196   6.422   3.905  12.196  2.3445  0.8518  0.1275
 5667TIP3    H241197   6.318   3.875  12.302 -0.7613 -0.3742 -3.0406
 5668TIP3   OH241198   0.846   0.414  13.067 -0.0579  0.4408  0.2063
 5668TIP3    H141199   0.888   0.476  13.127 -0.9769 -0.6982  2.1070
 5668TIP3    H241200   0.889   0.331  13.085 -1.9428 -0.4107  1.0162
 5669TIP3   OH241201   1.641   2.328  12.476  0.2643  0.1115 -0.1967
 5669TIP3    H141202   1.636   2.294  12.387 -2.3508  0.4456 -0.2650
 5669TIP3    H241203   1.549   2.338  12.503  0.9692  1.3613  2.0131
 5670TIP3   OH241204   3.878   1.220  10.425 -0.2445 -0.1623  0.2603
 5670TIP3    H141205   3.838   1.291  10.375 -0.8854 -0.3340  0.5133
 5670TIP3    H241206   3.970   1.222  10.400 -0.3826  0.3283 -0.2395
 5671TIP3   OH241207   2.360   2.811  11.063  0.2735  0.0106 -0.5455
 5671TIP3    H141208   2.298   2.739  11.071  0.7423 -0.3785 -0.3864
 5671TIP3    H241209   2.329   2.877  11.126 -0.6582  0.3280 -1.3121
 5672TIP3   OH241210   5.470   4.315  11.734  0.3423 -0.3197  0.1816
 5672TIP3    H141211   5.478   4.223  11.760 -0.6788 -0.5637 -0.2991
 5672TIP3    H241212   5.391   4.318  11.680 -0.4218  1.1035  1.3081
 5673TIP3   OH241213   0.881   0.685  11.661 -0.2687  0.1665 -0.5003
 5673TIP3    H141214   0.874   0.639  11.744  2.8473  0.3034 -0.0651
 5673TIP3    H241215   0.883   0.616  11.595  0.5008 -0.1341 -0.1709
 5674TIP3   OH241216   5.194   2.493  12.302  0.5627 -0.0219  0.4241
 5674TIP3    H141217   5.164   2.578  12.335 -0.4342  0.1805 -0.9085
 5674TIP3    H241218   5.259   2.516  12.236 -1.2977 -0.1052 -1.5777
 5675TIP3   OH241219   6.879   3.031  12.990  0.3521 -0.1076  0.6523
 5675TIP3    H141220   6.802   3.087  12.990  1.0510  0.8725  0.8328
 5675TIP3    H241221   6.948   3.083  13.030  0.0817 -2.4759  4.7114
 5676TIP3   OH241222   3.553   0.582  10.558 -0.2700 -0.2600 -0.0205
 5676TIP3    H141223   3.606   0.562  10.481 -0.9244 -0.0331 -0.5329
 5676TIP3    H241224   3.609   0.640  10.611  0.4081 -0.8860 -0.0339
 5677TIP3   OH241225   4.352   2.267  11.330 -0.0771 -0.4084  0.1427
 5677TIP3    H141226   4.377   2.358  11.346  0.5867 -0.5403 -0.1259
 5677TIP3    H241227   4.288   2.247  11.399  0.0901  0.1283  0.4550
 5678TIP3   OH241228   3.581   0.792  10.826  0.1673  0.5574  0.0531
 5678TIP3    H141229   3.610   0.883  10.833 -0.5294  0.9039 -1.2920
 5678TIP3    H241230   3.653   0.747  10.781 -0.6049  1.0427 -1.7184
 5679TIP3   OH241231   3.930   3.989  11.775 -0.2313 -0.1591 -0.2690
 5679TIP3    H141232   4.012   3.939  11.773  0.7265  1.3176  0.4470
 5679TIP3    H241233   3.920   4.015  11.867 -1.3940 -0.1216 -0.3923
 5680TIP3   OH241234   0.517   0.299  11.018  0.7236 -0.1199  0.4177
 5680TIP3    H141235   0.608   0.327  11.024  0.2291  1.3637  1.6138
 5680TIP3    H241236   0.473   0.368  10.969  0.4119 -1.3568 -1.1181
 5681TIP3   OH241237   3.054   0.988  11.216 -0.7155  0.2180 -0.0857
 5681TIP3    H141238   2.996   0.977  11.141 -1.1641 -0.3772  0.3287
 5681TIP3    H241239   3.125   0.925  11.201 -0.6328  0.3306 -0.1682
 5682TIP3   OH241240   0.459   1.027  12.787 -0.0079  0.0557  0.3418
 5682TIP3    H141241   0.527   1.070  12.838  0.0404 -0.1105  0.4176
 5682TIP3    H241242   0.506   0.972  12.725  0.0049  1.7748 -1.2678
 5683TIP3   OH241243   4.691   2.799  11.049  0.2470 -0.3132 -0.3261
 5683TIP3    H141244   4.657   2.722  11.093  2.6038 -1.6365 -0.6739
 5683TIP3    H241245   4.649   2.798  10.963 -0.7179 -0.4345  0.1346
 5684TIP3   OH241246   3.449   3.016  11.035 -0.0593  0.0354  0.0146
 5684TIP3    H141247   3.429   2.978  11.120  0.8172 -0.2907  0.0890
 5684TIP3    H241248   3.364   3.040  10.998 -0.6050 -1.5448  0.1695
 5685TIP3   OH241249   6.623   2.642  11.592  0.7044 -0.5230  0.9863
 5685TIP3    H141250   6.583   2.729  11.592  0.8542 -0.4527  0.7971
 5685TIP3    H241251   6.626   2.617  11.684 -2.6867 -1.8864  0.8542
 5686TIP3   OH241252   3.774   0.289  10.307 -0.2093 -0.0970 -0.2253
 5686TIP3    H141253   3.781   0.238  10.226  1.6075 -0.8777  0.3594
 5686TIP3    H241254   3.703   0.248  10.356 -1.2460  0.3092 -1.3423
 5687TIP3   OH241255   4.540   5.840  10.582 -0.0541  0.7397  0.1493
 5687TIP3    H141256   4.485   5.912  10.614 -0.0394  0.8817 -0.1434
 5687TIP3    H241257   4.596   5.818  10.656  1.2194  2.2682 -0.3225
 5688TIP3   OH241258   4.470   4.474  11.710  0.4737 -0.7883  0.1448
 5688TIP3    H141259   4.426   4.557  11.690  1.4952 -0.3323 -0.3479
 5688TIP3    H241260   4.516   4.491  11.792 -0.5711 -1.3943  0.8772
 5689TIP3   OH241261   3.496   6.509  11.563 -0.4636  0.6577 -0.3348
 5689TIP3    H141262   3.505   6.551  11.478  1.9927  0.0284 -0.4705
 5689TIP3    H241263   3.548   6.563  11.622  0.2833 -0.5172  0.1171
 5690TIP3   OH241264   5.532   1.667  11.209  0.1846 -0.3505 -0.3436
 5690TIP3    H141265   5.567   1.712  11.132 -2.1589 -1.4205 -2.1387
 5690TIP3    H241266   5.588   1.590  11.220  0.9281  0.1500 -0.5240
 5691TIP3   OH241267   7.481   5.974  11.007  0.3423 -0.0064 -0.4644
 5691TIP3    H141268   7.569   5.946  11.032  0.6941 -0.5707 -2.2164
 5691TIP3    H241269   7.436   5.894  10.981 -0.5058  0.3549 -0.1420
 5692TIP3   OH241270   1.527   5.892  11.310  0.4099  0.4877  0.2357
 5692TIP3    H141271   1.489   5.804  11.305  1.0239 -0.0034  2.8278
 5692TIP3    H241272   1.609   5.885  11.261 -1.0231  0.5898 -2.3535
 5693TIP3   OH241273   1.945   0.666  10.966  0.3455  0.0378  0.8461
 5693TIP3    H141274   2.016   0.665  11.031  0.4104  1.1893  0.8044
 5693TIP3    H241275   1.954   0.750  10.921 -0.0860 -0.4770 -0.2431
 5694TIP3   OH241276   3.696   1.117  11.097  0.5211  0.2833  0.3278
 5694TIP3    H141277   3.717   1.027  11.121  0.8147  0.3196  0.2020
 5694TIP3    H241278   3.643   1.109  11.018  1.6013  0.2751 -0.4099
 5695TIP3   OH241279   1.149   2.783  13.009  0.2321 -0.3868  0.0829
 5695TIP3    H141280   1.092   2.838  13.062  0.7625  0.8342 -0.5868
 5695TIP3    H241281   1.236   2.822  13.018  0.3374 -0.1360 -1.6620
 5696TIP3   OH241282   2.122   4.067  10.973  0.8924  0.0293  0.9917
 5696TIP3    H141283   2.129   3.974  10.991  1.7088 -0.1722 -0.3130
 5696TIP3    H241284   2.075   4.073  10.890  0.5423  0.8010  1.2271
 5697TIP3   OH241285   1.729   0.661  12.491  0.0944 -0.6534  0.0970
 5697TIP3    H141286   1.750   0.612  12.570 -0.0710 -2.2675 -0.8060
 5697TIP3    H241287   1.669   0.603  12.443  2.1827 -0.9122 -2.4056
 5698TIP3   OH241288   1.201   0.420  10.421  0.0702 -0.3323 -0.0629
 5698TIP3    H141289   1.125   0.361  10.418  0.3117 -0.6394 -0.1648
 5698TIP3    H241290   1.268   0.376  10.369  1.3639 -1.5598  2.4474
 5699TIP3   OH241291   6.883   6.951  10.505  0.3258 -0.6601 -0.2334
 5699TIP3    H141292   6.883   7.028  10.562  1.6748 -0.3870 -0.5731
 5699TIP3    H241293   6.823   6.889  10.548 -1.9739  1.0930 -0.6994
 5700TIP3   OH241294   6.485   4.184  12.793  0.1776  0.2889  0.1863
 5700TIP3    H141295   6.514   4.274  12.802  0.0055  0.4839 -1.0992
 5700TIP3    H241296   6.447   4.179  12.705 -3.1570 -0.0656  1.4884
 5701TIP3   OH241297   2.432   3.584  10.940  0.7130 -0.1280 -0.1493
 5701TIP3    H141298   2.369   3.551  11.004 -1.7228  0.7918 -1.8962
 5701TIP3    H241299   2.436   3.678  10.956  1.0016 -0.0612 -0.5843
 5702TIP3   OH241300   5.302   1.562  11.258  0.2361 -0.2942 -0.0891
 5702TIP3    H141301   5.267   1.591  11.342  0.7891 -0.7200  0.2974
 5702TIP3    H241302   5.394   1.589  11.259 -0.0856  0.9138 -1.1378
 5703TIP3   OH241303   4.296   5.232  12.727 -0.2073  0.3508  0.4946
 5703TIP3    H141304   4.330   5.274  12.807 -1.2914  1.2248  0.5135
 5703TIP3    H241305   4.202   5.248  12.729 -0.2071  0.7502 -1.1784
 5704TIP3   OH241306   2.602   6.420  10.613  0.2770 -0.4380  0.0227
 5704TIP3    H141307   2.693   6.434  10.639  0.5812 -0.6865 -0.8654
 5704TIP3    H241308   2.561   6.380  10.690  0.5304  1.0570  0.9559
 5705TIP3   OH241309   4.528   2.602  10.648  0.2502  0.4300  0.0244
 5705TIP3    H141310   4.603   2.629  10.594 -0.1337  0.7662 -0.3499
 5705TIP3    H241311   4.452   2.641  10.604 -0.6246 -2.8690 -1.7262
 5706TIP3   OH241312   7.646   5.487  12.015 -0.8075  0.4329  0.5795
 5706TIP3    H141313   7.658   5.548  11.941  0.8698  0.9431  1.2165
 5706TIP3    H241314   7.595   5.537  12.079  0.5793  1.2318  1.1076
 5707TIP3   OH241315   0.448   1.996  10.318 -0.0862 -0.4634  0.0196
 5707TIP3    H141316   0.512   2.064  10.299 -0.5417  0.0245  0.2122
 5707TIP3    H241317   0.454   1.983  10.413 -0.6435 -0.0352  0.1177
 5708TIP3   OH241318   6.916   5.724  11.976  0.2572 -0.5098  0.1252
 5708TIP3    H141319   6.946   5.783  12.045 -0.9884  0.0468  0.2204
 5708TIP3    H241320   6.826   5.751  11.959 -0.5341 -2.7008  0.4917
 5709TIP3   OH241321   0.765   3.018  11.190  0.1094 -0.3288 -0.4907
 5709TIP3    H141322   0.803   3.104  11.175  1.4343 -0.8840 -0.4472
 5709TIP3    H241323   0.802   2.963  11.122 -1.5291 -0.6580 -1.1579
 5710TIP3   OH241324   3.824   5.997  11.522 -0.1191  0.3173 -0.3041
 5710TIP3    H141325   3.733   6.016  11.498 -0.1085 -0.6426 -1.1479
 5710TIP3    H241326   3.860   5.953  11.445  0.8793  0.1058  0.2755
 5711TIP3   OH241327   2.877   1.977  11.128 -0.4466  0.4989  0.4311
 5711TIP3    H141328   2.924   2.027  11.062  0.0122 -1.0386 -0.4627
 5711TIP3    H241329   2.942   1.915  11.163 -0.9595  0.5540  1.5585
 5712TIP3   OH241330   1.246   3.581  12.091  0.0504  0.5547  0.2667
 5712TIP3    H141331   1.223   3.498  12.132  0.1950  0.5797  0.3998
 5712TIP3    H241332   1.340   3.573  12.071  0.0753  0.7028  0.3210
 5713TIP3   OH241333   4.307   5.848  11.672  0.0539  0.0332 -0.7482
 5713TIP3    H141334   4.338   5.842  11.582 -1.7960 -0.6961 -1.3981
 5713TIP3    H241335   4.357   5.783  11.721 -0.8298 -1.5520 -1.8797
 5714TIP3   OH241336   5.411   4.051  11.617 -0.7347 -0.2434 -0.2838
 5714TIP3    H141337   5.434   4.126  11.562 -1.2471  0.9185  1.0055
 5714TIP3    H241338   5.495   4.011  11.640 -0.1851  1.5664  1.1597
 5715TIP3   OH241339   4.732   3.800  12.047  0.2297 -0.0979  0.0619
 5715TIP3    H141340   4.653   3.767  12.005  1.3045 -0.1253 -2.0676
 5715TIP3    H241341   4.795   3.728  12.039  1.5059  1.0975 -1.4633
 5716TIP3   OH241342   3.627   3.110  12.420 -0.3089 -0.1626 -0.0699
 5716TIP3    H141343   3.707   3.158  12.403 -0.6728  1.3497  2.1174
 5716TIP3    H241344   3.559   3.159  12.374 -0.4137  0.4379  0.6994
 5717TIP3   OH241345   3.481   3.529  11.298 -0.8750  0.5107  0.1116
 5717TIP3    H141346   3.397   3.540  11.343 -1.6992  0.7531 -1.4386
 5717TIP3    H241347   3.467   3.566  11.211 -0.3445 -2.7777 -1.5141
 5718TIP3   OH241348   1.191   5.003  10.726  0.6458  0.0955 -0.3116
 5718TIP3    H141349   1.144   5.082  10.697  0.2315  0.1739  0.5376
 5718TIP3    H241350   1.280   5.034  10.743 -0.0853  1.0021  2.4279
 5719TIP3   OH241351   0.368   0.352  10.763  0.1572  0.4914  0.5157
 5719TIP3    H141352   0.307   0.419  10.793 -1.2826 -0.1070 -0.9118
 5719TIP3    H241353   0.330   0.269  10.791 -0.1891  0.0517 -1.1335
 5720TIP3   OH241354   1.877   2.377  10.967  0.7114  0.1206 -0.2366
 5720TIP3    H141355   1.971   2.389  10.959  0.7558  1.0114  1.3439
 5720TIP3    H241356   1.839   2.434  10.900  1.2806 -1.6914 -2.2311
 5721TIP3   OH241357   0.931   1.833  10.732  0.2566 -0.3716  0.0048
 5721TIP3    H141358   1.000   1.834  10.666 -0.1927  1.3269 -0.4727
 5721TIP3    H241359   0.859   1.786  10.690 -0.0354  0.7157 -0.7529
 5722TIP3   OH241360   4.702   5.594  12.604 -0.4283  0.0484  0.2248
 5722TIP3    H141361   4.671   5.626  12.689  0.1613 -1.7550  1.1910
 5722TIP3    H241362   4.661   5.508  12.596 -0.2251  0.0703 -1.1924
 5723TIP3   OH241363   7.319   0.194  12.195  0.3442  0.0352  0.2946
 5723TIP3    H141364   7.338   0.266  12.256  1.2144  0.1453 -0.0865
 5723TIP3    H241365   7.237   0.219  12.154 -0.4299 -0.2015  1.6468
 5724TIP3   OH241366   7.215   5.551  11.021  0.1755 -0.0483 -0.6220
 5724TIP3    H141367   7.133   5.556  10.972  0.4134 -0.5022 -1.0778
 5724TIP3    H241368   7.190   5.568  11.112 -0.4405 -0.3260 -0.7361
 5725TIP3   OH241369   5.843   3.555  12.692 -0.0821 -0.0450 -1.0125
 5725TIP3    H141370   5.756   3.583  12.721 -0.5429  0.3370 -2.6691
 5725TIP3    H241371   5.903   3.604  12.748 -0.8780 -1.2098  1.0086
 5726TIP3   OH241372   2.108   3.952  11.470  0.2158  0.0762 -0.0227
 5726TIP3    H141373   2.148   3.890  11.531 -1.7454  1.9218  3.4258
 5726TIP3    H241374   2.183   3.996  11.428  1.6744 -1.0529  1.2967
 5727TIP3   OH241375   3.643   2.641  10.944 -0.4754  0.0383  0.5870
 5727TIP3    H141376   3.697   2.716  10.968 -0.3862 -0.6275  2.7125
 5727TIP3    H241377   3.560   2.679  10.914  0.2423  0.9953 -0.2697
 5728TIP3   OH241378   4.360   6.437  12.774 -0.3526  0.1557 -0.0376
 5728TIP3    H141379   4.452   6.418  12.790  0.3953  2.9904 -0.3849
 5728TIP3    H241380   4.313   6.392  12.844  1.1906 -1.7558 -0.1384
 5729TIP3   OH241381   2.590   1.557  10.766  0.3627  0.3074  0.0093
 5729TIP3    H141382   2.681   1.528  10.762 -0.4210 -2.6922  0.9034
 5729TIP3    H241383   2.540   1.483  10.731 -1.7624  1.9038 -0.5591
 5730TIP3   OH241384   3.404   6.029  12.759 -0.0846 -0.6107 -0.1405
 5730TIP3    H141385   3.366   6.004  12.843 -0.9501 -3.5102 -1.2767
 5730TIP3    H241386   3.464   5.958  12.737  1.5081  0.9710 -1.1884
 5731TIP3   OH241387   5.281   1.196  10.886 -0.5138  0.6513 -0.0991
 5731TIP3    H141388   5.266   1.268  10.824  1.1545  0.3760 -0.8782
 5731TIP3    H241389   5.356   1.225  10.938 -0.5760 -0.0330  0.3835
 5732TIP3   OH241390   6.032   5.325  11.920 -0.4472  0.7844  0.0288
 5732TIP3    H141391   6.104   5.389  11.925  0.1104  0.1806 -0.1645
 5732TIP3    H241392   5.957   5.372  11.955  0.1953  1.2129  0.8986
 5733TIP3   OH241393   5.528   2.846  12.108  0.6909 -0.1539  0.0213
 5733TIP3    H141394   5.616   2.840  12.070  0.5888 -0.2061 -0.2084
 5733TIP3    H241395   5.469   2.832  12.034  0.4951 -0.9862  0.3185
 5734TIP3   OH241396   2.258   6.508  12.706  0.5852  0.1115  0.0005
 5734TIP3    H141397   2.172   6.468  12.695  1.0944 -0.6723 -1.3660
 5734TIP3    H241398   2.307   6.447  12.761  0.6918 -0.1129 -0.3407
 5735TIP3   OH241399   3.530   1.925  11.214  0.0255 -0.0981  0.4667
 5735TIP3    H141400   3.518   1.882  11.299 -0.1669 -1.6496 -0.3110
 5735TIP3    H241401   3.608   1.884  11.177 -0.4043 -0.0830 -0.4848
 5736TIP3   OH241402   1.479   3.251  12.332  0.3774 -0.0183  0.2177
 5736TIP3    H141403   1.488   3.308  12.408  3.5646 -1.6997  1.3358
 5736TIP3    H241404   1.416   3.295  12.276  0.1230  2.8264  2.4740
 5737TIP3   OH241405   0.777   7.540  12.871 -0.3679  0.0209 -0.3680
 5737TIP3    H141406   0.734   7.464  12.908 -1.7451  0.8198 -0.2499
 5737TIP3    H241407   0.738   7.615  12.917  1.1323  0.7918 -0.2863
 5738TIP3   OH241408   5.431   0.396  10.850 -0.4447  0.3497  0.1956
 5738TIP3    H141409   5.359   0.421  10.793 -0.2726  1.4888  0.4454
 5738TIP3    H241410   5.510   0.423  10.802 -0.2939  1.1894  0.8843
 5739TIP3   OH241411   0.665   4.958  11.657  0.0207  0.2821 -0.1633
 5739TIP3    H141412   0.631   5.020  11.592  0.7370  0.2758 -0.5527
 5739TIP3    H241413   0.636   4.872  11.625 -1.5068  0.4394  0.7077
 5740TIP3   OH241414   1.086   3.970  11.135  0.5075  0.2651  0.3095
 5740TIP3    H141415   1.118   4.021  11.210  0.7145 -0.4320  0.7020
 5740TIP3    H241416   1.134   4.005  11.060  0.4728  0.8098  0.5338
 5741TIP3   OH241417   6.037   1.697  10.308 -0.5146 -0.3340  0.1874
 5741TIP3    H141418   6.006   1.756  10.376 -2.1820 -0.9168 -0.0218
 5741TIP3    H241419   5.959   1.675  10.257  0.0130 -2.7155  0.2554
 5742TIP3   OH241420   5.784   2.143  10.607 -0.0716 -0.5615  0.1313
 5742TIP3    H141421   5.747   2.224  10.572  1.1796 -0.2119 -0.4324
 5742TIP3    H241422   5.711   2.080  10.606 -0.3146 -0.3127 -2.2726
 5743TIP3   OH241423   1.529   5.168  16.562  0.1585  0.3905  0.3689
 5743TIP3    H141424   1.590   5.102  16.597 -3.0901 -1.6679  2.7157
 5743TIP3    H241425   1.557   5.250  16.603  1.7319 -0.3389  0.8385
 5744TIP3   OH241426   6.198   7.187  12.976  0.2994 -0.8896  0.2732
 5744TIP3    H141427   6.160   7.211  13.061  1.4559 -3.4551  1.6289
 5744TIP3    H241428   6.259   7.258  12.956 -0.1295 -0.1492  1.4951
 5745TIP3   OH241429   6.732   0.742  12.152  0.3772 -0.2333 -0.0766
 5745TIP3    H141430   6.665   0.714  12.089  0.3661  1.0194 -0.6380
 5745TIP3    H241431   6.688   0.806  12.208  0.6928 -0.5318  0.5263
 5746TIP3   OH241432   0.894   1.100  11.290  0.5765 -0.2426  0.1749
 5746TIP3    H141433   0.939   1.025  11.250 -1.1089 -0.6023 -1.1787
 5746TIP3    H241434   0.954   1.173  11.278  1.1331 -0.8471 -0.8716
 5747TIP3   OH241435   5.994   7.161  11.129  0.3083  0.0968  0.2183
 5747TIP3    H141436   5.935   7.207  11.069 -0.0996 -1.2680 -0.4690
 5747TIP3    H241437   6.013   7.079  11.085  1.7209 -0.0313  1.0220
 5748TIP3   OH241438   6.461   1.240  10.963 -0.9087  0.5507  0.3414
 5748TIP3    H141439   6.510   1.306  11.012  0.3305  0.6317 -0.9356
 5748TIP3    H241440   6.452   1.277  10.875 -0.1507 -0.9685 -0.4070
 5749TIP3   OH241441   4.001   4.168  10.633  0.3526 -0.1980  0.3051
 5749TIP3    H141442   3.932   4.127  10.685  1.4686 -1.9562  0.4805
 5749TIP3    H241443   4.079   4.162  10.688  1.0509  0.0576 -0.6342
 5750TIP3   OH241444   5.824   5.982  10.601  0.3594  0.1880  0.4074
 5750TIP3    H141445   5.738   5.939  10.599  0.0782  0.7764 -0.3834
 5750TIP3    H241446   5.805   6.073  10.624  0.8306  0.2059  0.7512
 5751TIP3   OH241447   7.266   2.566  10.981  0.0956  0.1988  0.2175
 5751TIP3    H141448   7.203   2.563  10.909 -0.7566 -0.9395  0.9917
 5751TIP3    H241449   7.329   2.497  10.961 -0.1494 -0.1268  0.5698
 5752TIP3   OH241450   0.113   1.654  12.447  0.0291  0.6011  0.3654
 5752TIP3    H141451   0.152   1.739  12.467  0.9513  0.3452 -0.2400
 5752TIP3    H241452   0.067   1.629  12.527  0.7421  1.1404  0.9622
 5753TIP3   OH241453   0.459   4.136  11.807 -0.3059 -0.1363 -0.1391
 5753TIP3    H141454   0.389   4.173  11.862  0.4629  0.4143  0.4956
 5753TIP3    H241455   0.512   4.212  11.783  1.0722 -0.7496  0.8513
 5754TIP3   OH241456   6.465   5.944  10.959 -0.2661 -0.9514  0.1808
 5754TIP3    H141457   6.375   5.974  10.951 -0.1817 -0.8609 -0.5312
 5754TIP3    H241458   6.516   6.024  10.970 -0.3641 -1.0643  1.6674
 5755TIP3   OH241459   2.614   0.601  10.240 -0.6029 -0.4027 -0.2129
 5755TIP3    H141460   2.657   0.622  10.323  0.3958 -0.6735 -0.6376
 5755TIP3    H241461   2.570   0.682  10.214 -1.0575 -0.3630  0.6505
 5756TIP3   OH241462   7.545   1.556  11.012 -0.0161  0.2195  0.0981
 5756TIP3    H141463   7.464   1.545  10.963 -0.1952 -2.0763  0.8039
 5756TIP3    H241464   7.534   1.640  11.057 -1.1292  0.8917 -1.3387
 5757TIP3   OH241465   2.168   6.290  10.582 -0.6582 -0.5892 -0.5457
 5757TIP3    H141466   2.233   6.227  10.612 -2.3648 -1.8155  0.7836
 5757TIP3    H241467   2.104   6.239  10.534 -1.0922  0.4394 -1.1041
 5758TIP3   OH241468   6.029   7.559  10.716  0.3187  0.7470 -0.0478
 5758TIP3    H141469   6.013   7.653  10.715  0.7840  0.8595  1.1844
 5758TIP3    H241470   6.025   7.535  10.809 -1.8033 -0.8216 -0.4734
 5759TIP3   OH241471   2.034   7.287  11.338  0.1414 -0.1694 -0.4384
 5759TIP3    H141472   2.046   7.317  11.248  0.1149  1.0348 -0.0557
 5759TIP3    H241473   2.111   7.233  11.355  0.8133  0.6538 -0.7625
 5760TIP3   OH241474   7.260   1.203  11.597  0.2361  0.0151  0.0193
 5760TIP3    H141475   7.343   1.241  11.625 -0.6049  1.8078  0.2287
 5760TIP3    H241476   7.202   1.278  11.585 -0.4956 -0.9157 -3.1294
 5761TIP3   OH241477   3.146   2.446  10.500 -0.0316  0.1052  0.3065
 5761TIP3    H141478   3.229   2.451  10.547 -0.4377  0.3676  1.0188
 5761TIP3    H241479   3.132   2.352  10.486  1.3923  0.1488 -1.6986
 5762TIP3   OH241480   5.231   2.700  11.347 -0.3175 -0.0243  0.0004
 5762TIP3    H141481   5.294   2.769  11.369  0.7980 -1.0751  0.2363
 5762TIP3    H241482   5.177   2.691  11.426 -1.6783  1.7570 -0.6365
 5763TIP3   OH241483   0.617   7.349  12.989 -0.4450  0.0293  0.8057
 5763TIP3    H141484   0.526   7.367  12.965 -0.3749 -0.0130  0.4917
 5763TIP3    H241485   0.633   7.261  12.956  0.8861  1.4115 -2.8451
 5764TIP3   OH241486   4.953   0.473  11.263 -0.2479 -0.0365  0.2610
 5764TIP3    H141487   4.980   0.532  11.334 -0.2772 -0.1925  0.4030
 5764TIP3    H241488   4.872   0.433  11.295 -1.6983  1.8140 -0.9234
 5765TIP3   OH241489   7.626   1.026  10.705 -0.0777 -0.2446  0.7632
 5765TIP3    H141490   7.658   0.995  10.620 -1.7923 -2.9306  1.0017
 5765TIP3    H241491   7.706   1.053  10.751  0.8124  2.8093 -2.1111
 5766TIP3   OH241492   4.170   2.846  10.083 -0.2537 -0.0050  0.4333
 5766TIP3    H141493   4.119   2.874  10.159  1.9381  1.4738  1.4536
 5766TIP3    H241494   4.186   2.927  10.034 -0.4414 -0.7327 -0.8929
 5767TIP3   OH241495   0.221   7.274  11.530  0.0240  0.3157 -0.1742
 5767TIP3    H141496   0.215   7.248  11.438 -1.2788  0.2620 -0.0901
 5767TIP3    H241497   0.161   7.348  11.538 -1.1690 -0.6993  0.9594
 5768TIP3   OH241498   5.018   7.011  11.327  0.1670  0.4878  0.0532
 5768TIP3    H141499   5.053   7.063  11.255  1.8653  0.4758  0.8199
 5768TIP3    H241500   4.985   7.075  11.389 -0.2851  0.5431 -0.2454
 5769TIP3   OH241501   6.421   2.621  12.420 -0.8107 -0.2591  0.2720
 5769TIP3    H141502   6.410   2.686  12.490  0.4910 -0.0098  0.2673
 5769TIP3    H241503   6.333   2.609  12.384 -1.4473 -0.1335  1.7193
 5770TIP3   OH241504   6.697   7.427  12.639 -0.0720  0.2101 -0.5445
 5770TIP3    H141505   6.791   7.433  12.654 -0.1222 -3.3782  2.7195
 5770TIP3    H241506   6.658   7.447  12.724 -2.0165 -1.4623 -0.9723
 5771TIP3   OH241507   5.417   5.596  12.752 -0.2423  0.0340  0.6595
 5771TIP3    H141508   5.445   5.504  12.752 -1.0117 -0.2032  0.5657
 5771TIP3    H241509   5.324   5.593  12.776 -1.1490  0.5064 -2.4181
 5772TIP3   OH241510   1.633   2.979  12.137  0.3553 -1.0879 -0.0256
 5772TIP3    H141511   1.546   2.958  12.104 -0.1897 -2.2438  1.9364
 5772TIP3    H241512   1.667   3.045  12.078 -2.8429  1.2739  0.5390
 5773TIP3   OH241513   7.525   6.908  12.712 -0.5975 -0.1775 -0.5949
 5773TIP3    H141514   7.453   6.963  12.743 -1.0738 -0.6414 -0.8583
 5773TIP3    H241515   7.591   6.970  12.682 -1.2242  0.2579 -1.1065
 5774TIP3   OH241516   1.282   3.558  11.335  0.1299 -0.3418  0.2354
 5774TIP3    H141517   1.343   3.574  11.262 -1.0092 -1.0842 -0.9172
 5774TIP3    H241518   1.284   3.639  11.386  0.2178  0.5689 -1.1735
 5775TIP3   OH241519   5.939   4.868  11.234 -0.2372 -0.0830  0.0027
 5775TIP3    H141520   6.026   4.869  11.276 -0.0015 -3.0657 -0.2241
 5775TIP3    H241521   5.955   4.902  11.146  0.9684 -1.5784 -0.4018
 5776TIP3   OH241522   6.741   2.786  12.928 -0.2165 -0.0229 -0.1499
 5776TIP3    H141523   6.665   2.792  12.986 -0.7919 -0.0420 -0.8860
 5776TIP3    H241524   6.792   2.865  12.947  0.8454 -1.1479  2.0480
 5777TIP3   OH241525   6.290   4.499  11.259 -0.0740  0.2648 -0.0713
 5777TIP3    H141526   6.255   4.511  11.348 -0.6752 -0.2855 -0.2271
 5777TIP3    H241527   6.218   4.460  11.210  0.1484  0.8475 -0.8883
 5778TIP3   OH241528   5.107   3.287  10.705  0.4087  0.1092 -0.6235
 5778TIP3    H141529   5.053   3.356  10.667 -0.6780  0.1173  0.8667
 5778TIP3    H241530   5.197   3.319  10.693  0.0145  0.9720 -1.4666
 5779TIP3   OH241531   3.608   2.707  11.689  0.1926  0.1950  0.1474
 5779TIP3    H141532   3.632   2.615  11.700 -0.8970  0.2209  4.9255
 5779TIP3    H241533   3.512   2.707  11.690  0.1704  1.3781  1.2328
 5780TIP3   OH241534   3.464   2.173  10.445 -0.0362  0.0019  0.4983
 5780TIP3    H141535   3.504   2.219  10.371 -0.4714  0.0461  0.2883
 5780TIP3    H241536   3.490   2.224  10.521 -0.2312  0.4063  0.3002
 5781TIP3   OH241537   1.768   2.699  10.970 -0.5242  0.2846 -0.6293
 5781TIP3    H141538   1.801   2.773  10.920 -1.8607  1.0672 -0.4141
 5781TIP3    H241539   1.756   2.629  10.905  0.9313  0.1730 -0.7948
 5782TIP3   OH241540   5.655   5.642  11.842 -0.0531 -0.3970  0.1702
 5782TIP3    H141541   5.719   5.712  11.832  0.7968 -0.9526  1.4934
 5782TIP3    H241542   5.624   5.625  11.753  0.8853  0.5731 -0.3623
 5783TIP3   OH241543   1.181   6.917  11.232  0.3871  0.1467 -0.2971
 5783TIP3    H141544   1.266   6.880  11.256 -0.4282 -1.6123  0.0973
 5783TIP3    H241545   1.141   6.942  11.315  0.8518  1.8149 -0.5516
 5784TIP3   OH241546   3.426   3.770  13.248 -0.2046  0.4904  0.4944
 5784TIP3    H141547   3.366   3.696  13.250 -1.0325  1.0633 -1.2680
 5784TIP3    H241548   3.480   3.759  13.326 -1.3026 -1.1187  1.0774
 5785TIP3   OH241549   3.933   4.474  11.690 -0.0948  0.0992 -0.6394
 5785TIP3    H141550   3.944   4.392  11.642 -0.2213 -0.5398  0.4138
 5785TIP3    H241551   3.915   4.448  11.780  0.8091  1.3001 -0.0866
 5786TIP3   OH241552   2.171   1.239  11.656 -0.2257  0.6148  0.1984
 5786TIP3    H141553   2.125   1.322  11.657 -0.6457  0.4025  1.7907
 5786TIP3    H241554   2.257   1.259  11.618 -0.2653  1.8062  0.7110
 5787TIP3   OH241555   1.793   1.315  13.392  0.1817 -0.0652  0.1206
 5787TIP3    H141556   1.834   1.231  13.375 -0.1457 -0.5283  1.4855
 5787TIP3    H241557   1.865   1.372  13.418  0.0399 -0.8936  2.5782
 5788TIP3   OH241558   2.410   3.525  10.654 -0.2012  0.0451  0.0087
 5788TIP3    H141559   2.371   3.604  10.616  2.5177  1.8655  0.6886
 5788TIP3    H241560   2.392   3.533  10.748 -1.9009 -1.4366 -0.1355
 5789TIP3   OH241561   4.897   0.192  12.226 -0.4489  0.3277  0.0453
 5789TIP3    H141562   4.967   0.169  12.165 -0.5053 -0.0930  0.1373
 5789TIP3    H241563   4.926   0.275  12.265  0.1214  0.0334  0.2672
 5790TIP3   OH241564   2.764   0.364  10.167  0.1631  0.0877 -0.4051
 5790TIP3    H141565   2.858   0.379  10.171  0.2190  1.0285 -3.3279
 5790TIP3    H241566   2.724   0.446  10.196  0.3486  1.0426 -2.6625
 5791TIP3   OH241567   7.471   3.803  10.588 -0.3447 -0.3853 -0.4962
 5791TIP3    H141568   7.499   3.712  10.594  0.9610  0.0924  1.5341
 5791TIP3    H241569   7.548   3.850  10.558 -1.0698  0.0728 -1.7260
 5792TIP3   OH241570   7.395   0.783  11.647  0.2897 -0.0954  0.0216
 5792TIP3    H141571   7.388   0.728  11.569  0.8817 -0.6372  0.3458
 5792TIP3    H241572   7.438   0.728  11.712 -0.2915  0.3195  0.7735
 5793TIP3   OH241573   2.386   6.668  11.414 -0.2363  0.4212  0.7119
 5793TIP3    H141574   2.362   6.641  11.325  1.0526 -0.3729  0.5731
 5793TIP3    H241575   2.444   6.742  11.402  0.6854 -0.2683  0.8344
 5794TIP3   OH241576   4.152   6.152  10.637  0.0239  0.4906 -0.2664
 5794TIP3    H141577   4.085   6.220  10.645 -0.3247  0.2453 -1.0244
 5794TIP3    H241578   4.116   6.077  10.685 -0.1135  0.4566 -0.4228
 5795TIP3   OH241579   0.086   0.953  10.454 -0.1844  0.1601 -0.2188
 5795TIP3    H141580   0.162   0.971  10.509 -0.9237  2.0627  0.2855
 5795TIP3    H241581   0.122   0.914  10.374  1.4737  2.0266 -0.4735
 5796TIP3   OH241582   5.593   7.077  10.685  0.0855 -0.2383 -0.0687
 5796TIP3    H141583   5.535   7.051  10.756 -1.1442 -0.1743 -1.0070
 5796TIP3    H241584   5.535   7.121  10.622  0.8336 -1.5502 -1.7710
 5797TIP3   OH241585   5.753   4.360  10.672 -0.1617 -0.3976 -0.1075
 5797TIP3    H141586   5.730   4.377  10.581  0.4111 -0.0719 -0.2020
 5797TIP3    H241587   5.782   4.269  10.674  0.2358 -0.2813 -0.3457
 5798TIP3   OH241588   3.965   0.535  11.819  0.5613  0.2801  0.2202
 5798TIP3    H141589   3.910   0.542  11.896 -0.4238  1.2791 -0.5412
 5798TIP3    H241590   3.980   0.441  11.809 -1.0267 -0.0302  0.4496
 5799TIP3   OH241591   2.271   2.158  11.124 -0.0181 -0.1119  0.0254
 5799TIP3    H141592   2.341   2.223  11.129 -0.0157 -0.0817 -0.3325
 5799TIP3    H241593   2.222   2.168  11.205 -0.2681  0.6316 -0.2079
 5800TIP3   OH241594   4.566   6.471  12.172  0.4689 -0.1917 -0.0048
 5800TIP3    H141595   4.619   6.506  12.243  0.2315  1.0935 -0.4377
 5800TIP3    H241596   4.565   6.540  12.106  0.5275 -1.2791 -1.1876
 5801TIP3   OH241597   1.628   3.732  11.857  0.2742  0.2899  0.1732
 5801TIP3    H141598   1.607   3.669  11.926  1.3258 -0.5384 -0.2398
 5801TIP3    H241599   1.574   3.704  11.783  2.9461 -2.1559 -1.0572
 5802TIP3   OH241600   7.332   1.366  11.181 -0.3078  0.3297 -0.0325
 5802TIP3    H141601   7.330   1.457  11.211  0.9855 -0.0715  1.3815
 5802TIP3    H241602   7.412   1.361  11.127 -0.1214 -0.0794  0.2828
 5803TIP3   OH241603   3.787   0.151  12.962 -0.3793  0.2935  1.4032
 5803TIP3    H141604   3.809   0.072  13.011 -2.6865 -0.4810  1.2743
 5803TIP3    H241605   3.707   0.184  13.002 -0.6423  1.3624  0.0954
 5804TIP3   OH241606   7.590   5.203  11.505  0.5823  0.4486  0.2703
 5804TIP3    H141607   7.604   5.227  11.596  0.8723  0.5121  0.2075
 5804TIP3    H241608   7.677   5.205  11.465  0.5989 -0.5731  0.2286
 5805TIP3   OH241609   1.291   4.812  11.809 -0.3461  0.2398  0.0952
 5805TIP3    H141610   1.218   4.752  11.825 -1.4966  1.0501 -1.7785
 5805TIP3    H241611   1.357   4.758  11.766 -0.8484  0.0295 -0.4242
 5806TIP3   OH241612   0.833   3.494  12.329  0.1257 -0.7774  0.4976
 5806TIP3    H141613   0.859   3.438  12.255  1.5633  2.1421 -1.3890
 5806TIP3    H241614   0.916   3.525  12.365 -0.5552  1.5592  0.2261
 5807TIP3   OH241615   1.324   4.192  12.473 -0.3724 -0.1372  0.0423
 5807TIP3    H141616   1.330   4.186  12.378 -0.9384  1.6996 -0.1495
 5807TIP3    H241617   1.311   4.102  12.502  1.5688 -0.9784 -1.4637
 5808TIP3   OH241618   6.393   5.481  11.011  0.2957  0.2197  0.6351
 5808TIP3    H141619   6.414   5.554  10.954  1.0149  0.2640  0.9506
 5808TIP3    H241620   6.477   5.448  11.041  0.0964 -1.7994 -0.7898
 5809TIP3   OH241621   7.589   6.473  10.585 -0.5416 -0.2221  0.5604
 5809TIP3    H141622   7.538   6.528  10.644 -0.6771  2.3847 -1.7898
 5809TIP3    H241623   7.679   6.507  10.591 -0.0785 -1.4398  0.9176
 5810TIP3   OH241624   7.325   0.312  10.581 -0.6089 -0.8566 -0.1303
 5810TIP3    H141625   7.398   0.274  10.630  0.5631 -0.4366 -1.4707
 5810TIP3    H241626   7.348   0.405  10.572 -0.7664 -0.9252 -1.4400
 5811TIP3   OH241627   7.019   1.870  11.434  0.0029  0.8942 -0.0696
 5811TIP3    H141628   6.941   1.824  11.406  1.3375  0.5528 -3.7049
 5811TIP3    H241629   7.015   1.955  11.390  2.1532  0.4140 -1.3417
 5812TIP3   OH241630   1.381   1.052  10.499 -0.4185 -0.2127  0.3193
 5812TIP3    H141631   1.373   1.123  10.562  2.0938  0.9567 -0.5225
 5812TIP3    H241632   1.324   1.078  10.426  0.9783  1.4089 -0.2855
 5813TIP3   OH241633   6.215   4.201  12.622 -0.2054 -0.0945 -0.1176
 5813TIP3    H141634   6.151   4.188  12.551 -0.1651 -0.8557 -0.0243
 5813TIP3    H241635   6.295   4.161  12.590  0.3485  1.1898 -0.3829
 5814TIP3   OH241636   2.293   4.940  12.236 -0.2160 -0.3194  0.3704
 5814TIP3    H141637   2.224   4.961  12.173  1.0089  1.5947 -0.4081
 5814TIP3    H241638   2.261   4.972  12.320 -0.5647 -0.0561  0.1355
 5815TIP3   OH241639   4.259   2.204  10.645  0.2802 -0.4296  0.2599
 5815TIP3    H141640   4.216   2.152  10.713 -0.6650  0.9310  0.7505
 5815TIP3    H241641   4.321   2.143  10.605  0.4939 -1.4264  1.9735
 5816TIP3   OH241642   4.374   0.446  11.169 -0.5193  0.2307  0.5633
 5816TIP3    H141643   4.428   0.522  11.190 -0.6439  0.5105 -0.0799
 5816TIP3    H241644   4.341   0.415  11.253  0.4896  0.1684  0.9473
 5817TIP3   OH241645   7.627   7.222  11.232  0.1652  0.4093  0.0534
 5817TIP3    H141646   7.543   7.251  11.267  0.8968  2.3978  0.2969
 5817TIP3    H241647   7.620   7.238  11.138  0.7955  2.1052  0.2642
 5818TIP3   OH241648   2.986   2.914  12.094 -0.1204  0.0241  0.0460
 5818TIP3    H141649   3.052   2.852  12.063 -0.7477 -1.0195  0.7293
 5818TIP3    H241650   3.036   2.978  12.145  0.3903 -0.6757  0.4396
 5819TIP3   OH241651   5.891   0.409  10.573 -0.4797  0.4204 -0.0362
 5819TIP3    H141652   5.869   0.487  10.623  0.4151  0.5401  0.1836
 5819TIP3    H241653   5.810   0.358  10.571 -0.3312 -0.0319  2.3423
 5820TIP3   OH241654   5.763   3.181  11.031  0.0984  0.0659  0.3035
 5820TIP3    H141655   5.717   3.177  10.947 -0.0357 -0.7626  0.4060
 5820TIP3    H241656   5.855   3.188  11.008 -0.0090  0.8872  0.0950
 5821TIP3   OH241657   7.402   2.735  11.925  0.6470 -0.0131 -0.3381
 5821TIP3    H141658   7.406   2.642  11.902 -2.4899 -0.2318 -0.3970
 5821TIP3    H241659   7.353   2.775  11.854 -0.2759  1.1900  0.9225
 5822TIP3   OH241660   5.107   6.196  11.311  0.3265  0.7213  0.4538
 5822TIP3    H141661   5.152   6.233  11.387  0.5771 -0.3476  0.8371
 5822TIP3    H241662   5.175   6.151  11.262 -0.0943  0.1661  0.3710
 5823TIP3   OH241663   5.595   0.286  11.325  0.0883 -0.1234  0.1806
 5823TIP3    H141664   5.529   0.305  11.259 -0.2967  0.6675  0.7697
 5823TIP3    H241665   5.559   0.212  11.374 -0.0439 -0.1373  0.0622
 5824TIP3   OH241666   0.341   0.704  12.598  0.1870  0.0316 -0.0848
 5824TIP3    H141667   0.285   0.782  12.607  0.0936  0.1608 -1.5265
 5824TIP3    H241668   0.392   0.702  12.679 -0.2948  1.2033  0.2772
 5825TIP3   OH241669   2.935   5.285  12.093 -0.0980  0.2022  0.2779
 5825TIP3    H141670   2.895   5.207  12.133 -0.0843 -0.0835 -0.2626
 5825TIP3    H241671   3.027   5.281  12.119 -0.2758  0.5040  0.9716
 5826TIP3   OH241672   5.913   0.815  11.925 -0.3000  0.5206 -0.0983
 5826TIP3    H141673   5.969   0.882  11.965 -0.4714  0.4562  0.2580
 5826TIP3    H241674   5.928   0.823  11.831  0.6995  0.1528  0.0209
 5827TIP3   OH241675   3.339   7.004  11.515 -0.1665  0.0330  0.0119
 5827TIP3    H141676   3.382   6.919  11.513 -0.5966 -0.1713 -1.7504
 5827TIP3    H241677   3.368   7.043  11.597 -1.3019 -2.4859  1.7422
 5828TIP3   OH241678   1.541   6.309  12.776 -0.1741 -0.5327 -0.0779
 5828TIP3    H141679   1.561   6.222  12.743  0.8650 -0.3808  0.0939
 5828TIP3    H241680   1.611   6.327  12.840 -0.0337  0.6438 -0.5290
 5829TIP3   OH241681   3.631   6.834  12.434  0.0379  0.0418 -0.3944
 5829TIP3    H141682   3.679   6.860  12.513 -1.6399 -1.5333  1.2859
 5829TIP3    H241683   3.696   6.792  12.379  1.1370  0.5363  0.4751
 5830TIP3   OH241684   6.891   5.937  11.410  0.1127 -0.0789  0.3036
 5830TIP3    H141685   6.986   5.932  11.408  0.0580 -1.0403 -0.3109
 5830TIP3    H241686   6.863   5.918  11.320 -0.6924 -0.8270  0.6911
 5831TIP3   OH241687   3.828   4.372  11.921  0.1164 -0.0808  0.5899
 5831TIP3    H141688   3.772   4.339  11.851  1.6361  0.7513 -1.1265
 5831TIP3    H241689   3.770   4.425  11.975 -0.9072  0.2373 -0.7504
 5832TIP3   OH241690   1.848   1.322  12.480 -0.0846  0.0353  0.6856
 5832TIP3    H141691   1.869   1.230  12.499 -0.1917 -0.3230 -0.7549
 5832TIP3    H241692   1.754   1.321  12.460 -0.3351  0.6710  1.7793
 5833TIP3   OH241693   0.688   7.307  12.121 -0.8933  0.1546  0.3283
 5833TIP3    H141694   0.688   7.305  12.025 -1.7028  1.4363  0.2739
 5833TIP3    H241695   0.702   7.399  12.143 -1.9884  0.0923  1.4079
 5834TIP3   OH241696   6.741   2.364  12.962 -0.3048 -0.5233 -0.4414
 5834TIP3    H141697   6.834   2.379  12.944 -0.5698  0.5558 -1.0412
 5834TIP3    H241698   6.737   2.276  12.997  1.1900  0.0649  1.3923
 5835TIP3   OH241699   7.589   7.543  10.664  0.7278 -0.6909 -0.7426
 5835TIP3    H141700   7.677   7.505  10.665  1.0705  0.1010 -0.0987
 5835TIP3    H241701   7.583   7.592  10.745  1.2804  2.8385 -2.6403
 5836TIP3   OH241702   6.599   4.837  13.002 -0.3131 -0.0189  0.2324
 5836TIP3    H141703   6.566   4.901  13.065  0.3262 -0.4388  1.0086
 5836TIP3    H241704   6.551   4.856  12.921 -1.8804 -0.1100  1.1079
 5837TIP3   OH241705   3.572   0.737  11.703 -0.4207 -0.1766  0.4512
 5837TIP3    H141706   3.616   0.765  11.623  0.8282 -0.8577  0.8830
 5837TIP3    H241707   3.596   0.803  11.769 -1.7632  0.6053  0.2128
 5838TIP3   OH241708   2.278   0.169  11.919  0.3100  0.4346 -0.7874
 5838TIP3    H141709   2.364   0.188  11.957  0.0518  0.3654 -0.1475
 5838TIP3    H241710   2.293   0.166  11.825  1.1109 -0.0924 -0.6513
 5839TIP3   OH241711   3.823   6.934  12.598 -0.3133  0.2882 -0.0410
 5839TIP3    H141712   3.773   6.977  12.667  0.5108 -1.2110  1.5696
 5839TIP3    H241713   3.898   6.895  12.643 -0.7458 -2.4201 -1.4068
 5840TIP3   OH241714   4.545   7.433  11.083 -0.8997  0.0159  0.1618
 5840TIP3    H141715   4.483   7.478  11.026 -0.7525 -1.0360 -0.8668
 5840TIP3    H241716   4.495   7.409  11.160 -2.1513 -1.8542 -1.1398
 5841TIP3   OH241717   4.755   5.719  11.824  0.4994  0.0774  0.0338
 5841TIP3    H141718   4.764   5.737  11.731  0.0932 -1.1545 -0.2594
 5841TIP3    H241719   4.722   5.801  11.861 -2.7802 -0.4266 -1.4730
 5842TIP3   OH241720   6.192   1.605  11.344  0.7220  0.0550  0.2931
 5842TIP3    H141721   6.183   1.511  11.363 -0.4716  0.0420 -0.2819
 5842TIP3    H241722   6.112   1.644  11.380  0.5592  0.6571 -0.7050
 5843TIP3   OH241723   4.871   3.182  11.734 -0.3599 -0.2808 -0.1631
 5843TIP3    H141724   4.928   3.224  11.798 -0.7416 -1.0485  0.7163
 5843TIP3    H241725   4.896   3.220  11.650 -0.3358  1.2717  0.5270
 5844TIP3   OH241726   6.004   4.414  12.139  0.2487 -0.1482 -0.1909
 5844TIP3    H141727   6.092   4.388  12.114  0.1408 -1.2272  0.5012
 5844TIP3    H241728   5.986   4.492  12.086  0.8725 -1.0416 -1.7670
 5845TIP3   OH241729   6.560   4.499  10.692  0.3812  0.2124 -0.3597
 5845TIP3    H141730   6.514   4.518  10.774  1.5040 -0.5303  0.4891
 5845TIP3    H241731   6.601   4.581  10.667  0.5385  0.2986  0.1716
 5846TIP3   OH241732   2.641   7.406  12.532 -0.2888 -0.2779  0.4926
 5846TIP3    H141733   2.736   7.393  12.527 -0.2961 -0.0083 -2.9966
 5846TIP3    H241734   2.612   7.403  12.441 -3.4258  1.3213  1.2963
 5847TIP3   OH241735   5.746   4.730  10.944 -0.1557  0.5143  0.4586
 5847TIP3    H141736   5.841   4.744  10.945 -0.2847  1.4065  0.5060
 5847TIP3    H241737   5.723   4.716  11.036 -0.0295 -0.0266  0.4130
 5848TIP3   OH241738   0.967   2.945  10.662 -0.5639  0.0795 -0.2828
 5848TIP3    H141739   1.054   2.964  10.627 -0.4686  0.4649  0.1471
 5848TIP3    H241740   0.908   2.960  10.589 -0.1807 -1.2933 -0.9102
 5849TIP3   OH241741   1.690   4.280  11.582  0.4408 -0.1340  0.1365
 5849TIP3    H141742   1.784   4.269  11.591  0.6132  1.1556  0.0829
 5849TIP3    H241743   1.674   4.275  11.488  0.7187  1.3538 -0.0195
 5850TIP3   OH241744   5.235   4.050  12.968 -0.2140  0.3198  0.4204
 5850TIP3    H141745   5.236   3.961  13.004  0.5866  0.0110 -0.3143
 5850TIP3    H241746   5.178   4.045  12.892 -0.3773  0.5041  0.5297
 5851TIP3   OH241747   1.515   4.210  11.781 -0.2214 -0.2201 -0.2440
 5851TIP3    H141748   1.569   4.244  11.709 -0.8630 -0.3935 -0.8270
 5851TIP3    H241749   1.522   4.277  11.849  1.0785 -0.4513 -0.1210
 5852TIP3   OH241750   0.782   6.650  12.074 -0.1234 -0.6199  0.7657
 5852TIP3    H141751   0.782   6.745  12.064  0.1317 -0.6358  0.6124
 5852TIP3    H241752   0.861   6.631  12.124  0.4258 -0.8451 -0.1529
 5853TIP3   OH241753   3.472   2.141  12.099  0.3690 -0.3929  0.3251
 5853TIP3    H141754   3.555   2.153  12.144 -0.3319 -1.6486  2.0489
 5853TIP3    H241755   3.406   2.147  12.168 -0.9195 -0.3011 -0.8682
 5854TIP3   OH241756   0.202   3.927  10.455  0.0404 -0.3553 -0.6946
 5854TIP3    H141757   0.275   3.906  10.514 -0.2294  1.3716  0.3154
 5854TIP3    H241758   0.125   3.926  10.512 -0.7268 -1.9546 -1.7135
 5855TIP3   OH241759   6.274   3.334  11.691 -0.0813 -0.5233 -0.3985
 5855TIP3    H141760   6.293   3.366  11.779 -0.5081  0.5294 -0.6765
 5855TIP3    H241761   6.179   3.339  11.683 -0.0090 -0.0456 -1.1154
 5856TIP3   OH241762   4.984   5.508  11.403  0.0217 -0.0470  0.0244
 5856TIP3    H141763   4.981   5.601  11.381 -1.3491 -0.1530 -0.3486
 5856TIP3    H241764   4.950   5.464  11.324  0.7534 -0.8660  0.1565
 5857TIP3   OH241765   2.969   2.945  11.323 -0.0406  0.1888  0.3730
 5857TIP3    H141766   2.960   3.028  11.276 -2.2177 -0.1676  0.0517
 5857TIP3    H241767   2.883   2.905  11.316  0.5166 -1.3685  1.9179
 5858TIP3   OH241768   6.009   2.179  10.452  0.1699 -0.1995  0.0331
 5858TIP3    H141769   5.935   2.170  10.512  0.7697 -0.6634  0.7145
 5858TIP3    H241770   5.975   2.149  10.368 -0.6642  0.4018  0.1449
 5859TIP3   OH241771   4.680   3.376  13.392 -0.7213  0.1046  0.4677
 5859TIP3    H141772   4.686   3.441  13.322 -0.9329 -0.5619 -0.1844
 5859TIP3    H241773   4.606   3.321  13.368 -0.8229 -0.1129  1.2392
 5860TIP3   OH241774   3.654   3.792  12.660 -0.0723 -0.1833 -0.6146
 5860TIP3    H141775   3.711   3.796  12.583  0.7531  0.3465 -0.0007
 5860TIP3    H241776   3.714   3.779  12.734 -0.8836 -1.1485 -0.0984
 5861TIP3   OH241777   2.903   2.169  11.733 -0.2318 -0.1316  0.1887
 5861TIP3    H141778   2.852   2.249  11.728  1.8442  1.1658 -1.8479
 5861TIP3    H241779   2.883   2.122  11.652 -1.6152 -1.9293  1.4505
 5862TIP3   OH241780   5.108   1.088  11.047 -0.0150 -0.1793  0.0676
 5862TIP3    H141781   5.172   1.108  10.978  0.0440 -2.0527 -0.4671
 5862TIP3    H241782   5.160   1.047  11.116 -0.4693 -0.6754  0.1126
 5863TIP3   OH241783   4.557   1.395  12.872  0.9612  0.0967  0.0229
 5863TIP3    H141784   4.477   1.417  12.824  0.5323  0.3339  0.8290
 5863TIP3    H241785   4.536   1.314  12.918  1.1061  0.2720  0.4038
 5864TIP3   OH241786   2.616   2.792  10.658 -0.0829 -0.3187 -0.5795
 5864TIP3    H141787   2.615   2.853  10.584  1.9740  0.6313  0.1098
 5864TIP3    H241788   2.586   2.709  10.620  1.0335  0.1043 -2.5348
 5865TIP3   OH241789   3.904   5.193  10.970 -0.2649 -0.5719  0.7654
 5865TIP3    H141790   3.872   5.110  10.933  0.9865 -0.6301 -0.2226
 5865TIP3    H241791   3.874   5.260  10.909  1.8623 -0.6741 -0.4553
 5866TIP3   OH241792   5.230   3.144  10.990  0.0488 -0.3601 -0.0732
 5866TIP3    H141793   5.248   3.228  10.948 -1.8260  0.0173 -0.1966
 5866TIP3    H241794   5.266   3.153  11.078  0.5205  0.2807 -0.3178
 5867TIP3   OH241795   7.589   6.592  11.203  0.3055 -0.2511 -0.1042
 5867TIP3    H141796   7.497   6.573  11.183  0.3940 -2.4416  1.2377
 5867TIP3    H241797   7.594   6.687  11.206 -2.5533 -0.0497  2.3870
 5868TIP3   OH241798   5.614   4.684  11.604 -0.7185 -0.1937  0.0397
 5868TIP3    H141799   5.579   4.666  11.691  0.7288  0.7530  0.8661
 5868TIP3    H241800   5.691   4.627  11.597 -1.3522 -0.9497 -1.0144
 5869TIP3   OH241801   5.445   2.309  10.747  0.1813 -0.4146 -0.2911
 5869TIP3    H141802   5.401   2.234  10.708  1.0605 -0.5792 -0.9878
 5869TIP3    H241803   5.476   2.360  10.672 -0.8510  0.9278  0.1518
 5870TIP3   OH241804   5.451   4.412  13.167 -0.6776 -0.0551 -0.3848
 5870TIP3    H141805   5.539   4.376  13.166 -0.8888 -0.6519  0.7417
 5870TIP3    H241806   5.463   4.505  13.147  0.3797  0.1766  1.1360
 5871TIP3   OH241807   5.866   2.732  10.890 -0.1123  0.1539 -0.0736
 5871TIP3    H141808   5.884   2.655  10.943  0.0138  0.2976  0.0926
 5871TIP3    H241809   5.791   2.773  10.932 -0.7828 -0.3846 -0.6990
 5872TIP3   OH241810   5.333   0.969  11.186  0.1934 -0.0613  0.0920
 5872TIP3    H141811   5.333   0.910  11.261  0.6592 -0.2229 -0.0322
 5872TIP3    H241812   5.377   0.920  11.117 -0.7373 -0.1297 -0.4645
 5873TIP3   OH241813   4.838   0.785  13.226 -0.0878  0.3846 -0.1090
 5873TIP3    H141814   4.931   0.800  13.213 -0.1503  1.1861  0.3330
 5873TIP3    H241815   4.824   0.696  13.194  0.5964  0.6861 -1.2877
 5874TIP3   OH241816   0.633   0.219  12.847 -0.3960 -0.8327 -0.4618
 5874TIP3    H141817   0.583   0.297  12.869  0.3010 -0.3957 -0.3998
 5874TIP3    H241818   0.660   0.183  12.931 -1.8744 -1.9350 -0.4187
 5875TIP3   OH241819   5.532   2.958  11.803  0.0318  0.1018 -0.3412
 5875TIP3    H141820   5.535   3.001  11.718  1.5592  0.5135 -0.1170
 5875TIP3    H241821   5.609   2.992  11.849 -0.8878  0.0502  1.2838
 5876TIP3   OH241822   5.456   6.782  12.941  0.0096 -0.1885 -0.2565
 5876TIP3    H141823   5.527   6.773  13.003 -0.7631  0.0754  0.6834
 5876TIP3    H241824   5.387   6.723  12.973 -0.5166  0.1735 -0.6844
 5877TIP3   OH241825   3.556   1.566  12.083  0.6239 -0.3642  0.2510
 5877TIP3    H141826   3.460   1.570  12.077  0.5006 -2.1110  0.6066
 5877TIP3    H241827   3.584   1.657  12.069 -1.0577  0.1428 -0.1251
 5878TIP3   OH241828   6.827   4.102  10.639  0.5511 -0.4486  0.3447
 5878TIP3    H141829   6.815   4.178  10.583 -0.9717  0.3839  1.7072
 5878TIP3    H241830   6.854   4.138  10.723 -1.0047 -1.3071  1.2607
 5879TIP3   OH241831   1.757   1.687  11.838 -0.2715  0.1760  0.3719
 5879TIP3    H141832   1.766   1.758  11.775 -0.5431 -0.2080 -0.1095
 5879TIP3    H241833   1.736   1.730  11.921 -0.3473  0.6555  0.1044
 5880TIP3   OH241834   6.100   6.550  12.125 -0.0179  0.6785  0.0517
 5880TIP3    H141835   6.112   6.645  12.132 -0.3510  0.6297  1.5943
 5880TIP3    H241836   6.007   6.539  12.104  0.3689  0.7123 -1.9345
 5881TIP3   OH241837   0.755   3.560  10.631 -0.0162  0.3863  0.3844
 5881TIP3    H141838   0.771   3.471  10.600 -0.8573  0.1145  0.7043
 5881TIP3    H241839   0.830   3.580  10.686  1.5548  0.8991 -1.8035
 5882TIP3   OH241840   6.102   6.146  10.908  0.2239 -0.2212 -0.7285
 5882TIP3    H141841   6.122   6.059  10.941 -1.3192 -0.5939 -0.7286
 5882TIP3    H241842   6.125   6.143  10.815  1.1269 -0.2895 -0.5159
 5883TIP3   OH241843   1.847   0.625  10.593 -0.4513  0.3935  0.6484
 5883TIP3    H141844   1.881   0.586  10.513  0.2991 -0.7059  1.4668
 5883TIP3    H241845   1.894   0.580  10.664 -2.0663  0.3490  1.7528
 5884TIP3   OH241846   4.606   1.179  11.051 -0.3920  0.1415  0.2377
 5884TIP3    H141847   4.615   1.169  10.957 -0.4674  1.1763  0.1146
 5884TIP3    H241848   4.690   1.149  11.086 -0.1224  0.3754 -0.2033
 5885TIP3   OH241849   6.266   2.776  12.847  0.0997  0.5527  0.2321
 5885TIP3    H141850   6.242   2.698  12.896  0.3635  0.4051  0.1282
 5885TIP3    H241851   6.191   2.835  12.857 -1.1646 -0.6335 -1.6848
 5886TIP3   OH241852   5.188   6.910  11.762 -0.4604 -0.4447 -0.2289
 5886TIP3    H141853   5.275   6.904  11.800 -0.0308  3.0299 -0.3629
 5886TIP3    H241854   5.129   6.908  11.838 -0.0373  0.0545  0.1222
 5887TIP3   OH241855   6.125   4.284  10.305 -0.3644  0.3530 -0.1781
 5887TIP3    H141856   6.162   4.252  10.223 -0.9506 -0.0043 -0.3058
 5887TIP3    H241857   6.174   4.238  10.373 -3.1098 -3.2011 -0.3341
 5888TIP3   OH241858   4.896   0.669  10.764 -0.2325 -0.4885  0.2646
 5888TIP3    H141859   4.891   0.580  10.729  0.8807 -0.4605 -0.0009
 5888TIP3    H241860   4.866   0.661  10.855 -1.7952 -0.8107 -0.2531
 5889TIP3   OH241861   7.156   2.037  10.520 -0.2415 -0.3644  0.6110
 5889TIP3    H141862   7.084   2.023  10.459  0.1109 -1.2602  0.3958
 5889TIP3    H241863   7.160   1.957  10.572  1.7832 -1.1456 -0.6307
 5890TIP3   OH241864   6.667   6.724  12.456 -0.6106 -0.0846  0.1901
 5890TIP3    H141865   6.694   6.681  12.538 -2.3214 -0.6390  0.5115
 5890TIP3    H241866   6.630   6.807  12.484  0.8613  0.7561 -0.2593
 5891TIP3   OH241867   5.400   0.162  10.689  0.0526  0.1471  0.3694
 5891TIP3    H141868   5.343   0.135  10.617 -0.5094  1.4816  0.2831
 5891TIP3    H241869   5.377   0.104  10.761 -0.6253 -0.0607 -0.0115
 5892TIP3   OH241870   3.579   1.410  11.534  0.7058 -0.6235 -0.1328
 5892TIP3    H141871   3.639   1.433  11.463 -0.1986  0.1371 -0.6739
 5892TIP3    H241872   3.493   1.435  11.501  0.3866  0.8080  1.6828
 5893TIP3   OH241873   2.158   6.867  12.881  0.8464 -0.0187  0.4717
 5893TIP3    H141874   2.076   6.818  12.888  0.1498  1.0090 -0.1992
 5893TIP3    H241875   2.142   6.947  12.931  1.7981 -0.2393  1.1485
 5894TIP3   OH241876   2.927   3.497  10.157  0.3573  0.5279  0.2302
 5894TIP3    H141877   2.967   3.574  10.117  1.2585  0.2897  0.6423
 5894TIP3    H241878   2.874   3.532  10.229 -1.0884  0.9385 -1.0021
 5895TIP3   OH241879   6.197   0.275  11.208  0.1962 -0.8370 -0.1583
 5895TIP3    H141880   6.116   0.244  11.167 -0.7444  1.2022  0.0266
 5895TIP3    H241881   6.252   0.301  11.134 -0.8830  1.3757 -0.2527
 5896TIP3   OH241882   2.470   5.518  11.961  0.0169 -0.0380 -0.4400
 5896TIP3    H141883   2.521   5.437  11.963  1.0995  0.6165  1.9242
 5896TIP3    H241884   2.519   5.579  12.016 -3.1217  0.7340  1.8163
 5897TIP3   OH241885   6.172   0.103  12.930  0.2039  0.3726 -0.4030
 5897TIP3    H141886   6.244   0.160  12.905  1.3071 -0.9482 -0.3678
 5897TIP3    H241887   6.214   0.026  12.968 -1.2061 -0.5788 -0.6691
 5898TIP3   OH241888   2.777   2.282  12.165 -0.0824 -0.4777  1.0587
 5898TIP3    H141889   2.769   2.195  12.124  1.5976  0.6179 -1.8742
 5898TIP3    H241890   2.848   2.272  12.228 -0.6466 -1.4525  1.5775
 5899TIP3   OH241891   1.955   6.726  11.812  0.6875  0.4765 -0.3586
 5899TIP3    H141892   1.923   6.777  11.886  0.6043  0.3519 -0.3075
 5899TIP3    H241893   1.898   6.750  11.739  0.4454  0.2206 -0.2568
 5900TIP3   OH241894   2.507   7.097  12.573  0.0326 -0.0510 -0.1866
 5900TIP3    H141895   2.520   7.014  12.619 -0.0071  0.1081  0.1154
 5900TIP3    H241896   2.517   7.164  12.641  1.4101  0.2655 -0.6776
 5901TIP3   OH241897   2.790   2.423  11.430 -0.4091 -0.1251  0.0098
 5901TIP3    H141898   2.803   2.331  11.407 -0.8458 -0.3628  0.6809
 5901TIP3    H241899   2.723   2.454  11.369 -0.0800 -0.1767 -0.3821
 5902TIP3   OH241900   7.370   2.720  12.385 -0.4312  0.2983  0.0124
 5902TIP3    H141901   7.429   2.753  12.317  2.5760 -2.0096  1.2492
 5902TIP3    H241902   7.332   2.798  12.425  1.7787  1.9384 -0.9156
 5903TIP3   OH241903   3.891   5.472  12.026 -0.2271  0.3621 -0.3260
 5903TIP3    H141904   3.848   5.555  12.048 -0.3214  0.1704  0.2431
 5903TIP3    H241905   3.983   5.494  12.018 -0.4279  0.8187 -1.7588
 5904TIP3   OH241906   0.242   2.348  10.509 -0.1545  0.6370  0.0678
 5904TIP3    H141907   0.308   2.402  10.553  1.1740 -1.3093  0.5574
 5904TIP3    H241908   0.244   2.380  10.418  1.3848  0.7307  0.0979
 5905TIP3   OH241909   5.760   3.492  10.959 -0.8976 -0.0051 -0.0636
 5905TIP3    H141910   5.672   3.478  10.994 -1.3488  0.6703 -0.9058
 5905TIP3    H241911   5.754   3.466  10.867 -0.2811  0.2845 -0.1925
 5906TIP3   OH241912   0.030   2.907  11.005  0.0992  0.3314  0.4516
 5906TIP3    H141913  -0.063   2.883  11.002  0.1630  0.0885  0.3887
 5906TIP3    H241914   0.077   2.824  10.992  0.3291  0.7271 -1.5428
 5907TIP3   OH241915   5.086   2.152  11.084 -0.5539 -0.4663 -0.4857
 5907TIP3    H141916   5.056   2.162  10.994 -2.3324  1.2732  0.2129
 5907TIP3    H241917   5.017   2.194  11.137  1.5197  0.6443  1.5078
 5908TIP3   OH241918   6.934   2.545  12.622  0.3356 -0.1014 -0.1130
 5908TIP3    H141919   6.870   2.615  12.636  0.7072 -0.0724  1.5312
 5908TIP3    H241920   7.013   2.576  12.665  1.0109 -0.8274 -0.8029
 5909TIP3   OH241921   7.105   1.801  11.705  0.1451 -0.6520 -0.5257
 5909TIP3    H141922   7.200   1.796  11.705  0.3354  1.7170  0.2021
 5909TIP3    H241923   7.085   1.878  11.651 -1.0703  1.2271  2.3435
 5910TIP3   OH241924   4.930   2.733  12.295  0.1897  0.3642 -0.0225
 5910TIP3    H141925   5.001   2.707  12.238  0.3567 -0.3030  0.4834
 5910TIP3    H241926   4.865   2.772  12.236  1.0147  1.0882 -0.4674
 5911TIP3   OH241927   2.086   6.794  11.298 -0.2207 -0.6199  0.5392
 5911TIP3    H141928   2.068   6.780  11.391  0.2217 -0.6651  0.6191
 5911TIP3    H241929   2.048   6.717  11.256 -0.1174 -0.7691  0.7165
 5912TIP3   OH241930   7.336   3.581  10.353  0.7934  0.2612  0.7540
 5912TIP3    H141931   7.407   3.519  10.367  0.3120 -0.5006 -0.0273
 5912TIP3    H241932   7.314   3.612  10.441  0.0781 -1.8126  1.3840
 5913TIP3   OH241933   4.743   4.072  12.080  0.6062  0.1315 -0.1985
 5913TIP3    H141934   4.802   4.101  12.010  0.6669 -0.3839 -0.3596
 5913TIP3    H241935   4.729   3.979  12.063  0.9242 -0.0860  0.6863
 5914TIP3   OH241936   1.079   4.915  11.153  0.3052 -0.1392 -0.1107
 5914TIP3    H141937   1.027   4.925  11.073  0.8362  0.0907 -0.4314
 5914TIP3    H241938   1.070   4.822  11.176 -1.3461  0.1567  0.6025
 5915TIP3   OH241939   1.555   7.028  11.900  0.0670 -0.0900 -0.5923
 5915TIP3    H141940   1.622   7.097  11.909 -0.2438  0.1086  0.2682
 5915TIP3    H241941   1.497   7.060  11.831 -0.9215  1.2466  0.7854
 5916TIP3   OH241942   2.459   0.393  10.332 -0.4113 -0.2927  0.3504
 5916TIP3    H141943   2.526   0.457  10.308 -2.0087  0.8590 -1.3018
 5916TIP3    H241944   2.493   0.310  10.299 -0.5103  0.5422 -1.9757
 5917TIP3   OH241945   5.734   7.654  11.828  0.1552 -0.6546 -0.0331
 5917TIP3    H141946   5.743   7.715  11.754 -0.9837  0.1286  0.4607
 5917TIP3    H241947   5.805   7.591  11.814  0.7590  0.2040 -1.0963
 5918TIP3   OH241948   7.642   4.702  11.534 -0.4643  0.1502  0.1209
 5918TIP3    H141949   7.660   4.619  11.490  1.3196  0.4206  0.2858
 5918TIP3    H241950   7.697   4.766  11.489 -0.1822  0.8292  1.3859
 5919TIP3   OH241951   7.243   2.389  11.511  0.3173  0.2277 -0.1941
 5919TIP3    H141952   7.323   2.436  11.539  0.1056  0.4375  0.0682
 5919TIP3    H241953   7.172   2.439  11.550 -0.1022  1.4848 -2.3994
 5920TIP3   OH241954   5.507   7.137  12.317 -0.2543  0.1056  0.5974
 5920TIP3    H141955   5.553   7.079  12.256 -0.7207 -0.2643  0.5906
 5920TIP3    H241956   5.433   7.085  12.349 -1.5111  1.1384 -0.4727
 5921TIP3   OH241957   6.873   1.753  10.484 -0.2159 -0.0083 -0.0894
 5921TIP3    H141958   6.794   1.797  10.515 -0.6322 -0.6914 -0.1500
 5921TIP3    H241959   6.870   1.666  10.525  1.0632  0.3290  0.7561
 5922TIP3   OH241960   2.285   7.450  11.402 -0.0669 -0.2287  0.3267
 5922TIP3    H141961   2.190   7.456  11.398 -0.0441 -0.0121 -0.0408
 5922TIP3    H241962   2.315   7.521  11.344  0.3380  0.6870  1.6100
 5923TIP3   OH241963   4.670   5.887  11.292 -0.0836 -0.5050  0.0895
 5923TIP3    H141964   4.599   5.827  11.317 -0.2070 -0.0502  0.8851
 5923TIP3    H241965   4.646   5.970  11.333  0.3090 -0.0230 -0.6314
 5924TIP3   OH241966   7.269   1.133  10.648  0.3781  0.3869 -0.8918
 5924TIP3    H141967   7.197   1.187  10.680  0.5331  0.5702 -0.8553
 5924TIP3    H241968   7.341   1.150  10.709 -0.2783 -1.6397  0.5515
 5925TIP3   OH241969   5.841   0.358  11.253 -0.1005  0.0244  0.1021
 5925TIP3    H141970   5.756   0.325  11.282  0.3120  0.6184  2.1109
 5925TIP3    H241971   5.842   0.341  11.158 -1.5513 -1.9739  0.3769
 5926TIP3   OH241972   0.054   0.123  12.118 -0.6469  0.2296 -0.2107
 5926TIP3    H141973   0.089   0.034  12.114 -1.3284 -0.0724  0.2926
 5926TIP3    H241974   0.069   0.151  12.209 -2.2598 -0.1484  0.1928
 5927TIP3   OH241975   2.091   2.589  11.600  0.0517 -0.1512 -0.2957
 5927TIP3    H141976   2.059   2.615  11.687  0.8929  0.9315 -0.2890
 5927TIP3    H241977   2.026   2.626  11.539 -0.9050 -1.4823 -0.1272
 5928TIP3   OH241978   4.443   4.055  11.073 -0.1344 -0.4453  0.1484
 5928TIP3    H141979   4.393   4.134  11.052 -0.9387 -1.1041 -0.5074
 5928TIP3    H241980   4.530   4.071  11.037 -0.6606 -0.3571 -1.1409
 5929TIP3   OH241981   0.639   6.344  10.856  0.4078  0.2264 -0.6934
 5929TIP3    H141982   0.648   6.437  10.876 -0.0986  0.1432 -0.0597
 5929TIP3    H241983   0.545   6.331  10.843  0.3712 -0.3764  0.1233
 5930TIP3   OH241984   6.531   6.515  11.031  0.4699  0.1549 -0.1270
 5930TIP3    H141985   6.458   6.572  11.009 -0.0205 -0.5149 -0.2621
 5930TIP3    H241986   6.549   6.467  10.949 -0.4763 -1.3690  0.5060
 5931TIP3   OH241987   4.312   1.447  11.955  0.4280  0.2343 -0.3049
 5931TIP3    H141988   4.338   1.523  12.008 -1.0561  1.5567 -1.3687
 5931TIP3    H241989   4.390   1.391  11.953  1.6165  1.7767  0.4175
 5932TIP3   OH241990   1.978   6.032  11.884 -0.0236 -0.2725 -0.3951
 5932TIP3    H141991   1.999   6.095  11.815 -3.8927  0.0179 -1.5426
 5932TIP3    H241992   2.020   5.950  11.856 -1.1444 -0.0446 -2.9305
 5933TIP3   OH241993   5.334   2.871  12.859  0.1648 -0.5548 -0.4345
 5933TIP3    H141994   5.396   2.854  12.930 -0.1264 -2.3885 -0.5742
 5933TIP3    H241995   5.285   2.948  12.888  1.1747 -0.2654  0.5730
 5934TIP3   OH241996   4.474   1.639  12.078  0.0228  0.1954 -0.1088
 5934TIP3    H141997   4.466   1.665  12.169 -1.1225 -0.1016 -0.1200
 5934TIP3    H241998   4.554   1.587  12.075  0.3885  0.6999  0.5981
 5935TIP3   OH241999   3.581   5.239  11.079 -0.0869  0.1659 -0.5982
 5935TIP3    H142000   3.592   5.167  11.017 -2.5195 -1.0843  0.2858
 5935TIP3    H242001   3.506   5.288  11.047 -1.3509 -0.4582  1.1876
 5936TIP3   OH242002   6.870   5.339  10.724  0.3102 -0.1397 -0.2605
 5936TIP3    H142003   6.835   5.413  10.773 -1.7104 -0.8278 -0.5657
 5936TIP3    H242004   6.830   5.262  10.765  1.9167 -1.0599 -0.3133
 5937TIP3   OH242005   3.075   4.464  11.156  1.1943  0.9182 -0.6057
 5937TIP3    H142006   3.156   4.444  11.110  1.3911  0.2053  0.0318
 5937TIP3    H242007   3.054   4.384  11.205  0.1672  1.1304 -0.6768
 5938TIP3   OH242008   7.082   4.982  11.104  0.0432  0.4729 -0.0892
 5938TIP3    H142009   7.146   4.952  11.169  0.1770  0.0652 -0.4104
 5938TIP3    H242010   7.097   5.077  11.099 -0.8605  0.7389  1.4563
 5939TIP3   OH242011   6.979   3.128  11.525  0.0894 -0.4369  0.0979
 5939TIP3    H142012   6.940   3.215  11.520 -0.3953 -0.6935 -1.2151
 5939TIP3    H242013   6.943   3.082  11.449 -0.4799 -2.1212  1.3167
 5940TIP3   OH242014   4.422   2.056  10.491  0.5782  0.1810  0.5551
 5940TIP3    H142015   4.503   2.081  10.447  1.3309  0.0227  1.8014
 5940TIP3    H242016   4.379   1.996  10.430  0.8209  1.1614 -0.6156
 5941TIP3   OH242017   3.736   5.085  11.248 -0.2034  0.6360 -0.0127
 5941TIP3    H142018   3.734   5.135  11.330 -1.8895 -0.0680  0.4007
 5941TIP3    H242019   3.686   5.139  11.187 -0.9462  0.0564  0.0814
 5942TIP3   OH242020   1.726   7.273  10.540 -0.2407  0.1086  0.3732
 5942TIP3    H142021   1.718   7.368  10.533 -0.1523  0.1468  0.7492
 5942TIP3    H242022   1.662   7.238  10.478 -1.5801  0.3996  1.5428
 5943TIP3   OH242023   3.186   6.625  11.786 -0.5057 -0.1208 -0.1613
 5943TIP3    H142024   3.175   6.591  11.697 -0.3942  0.6234 -0.4707
 5943TIP3    H242025   3.281   6.621  11.802 -0.6167 -1.2221  0.3318
 5944TIP3   OH242026   7.279   4.796  11.230 -0.2504  0.2940 -0.5496
 5944TIP3    H142027   7.331   4.817  11.308 -0.5207  1.4318 -0.6616
 5944TIP3    H242028   7.322   4.720  11.192  1.2749  1.1288 -0.5722
 5945TIP3   OH242029   0.992   2.711  12.203 -0.7236  0.6344  0.1950
 5945TIP3    H142030   1.025   2.737  12.289 -0.4351 -0.8215  0.5532
 5945TIP3    H242031   0.945   2.788  12.171 -1.9613  0.8147  2.2174
 5946TIP3   OH242032   0.678   0.432  11.502 -0.4108  0.3712 -0.2721
 5946TIP3    H142033   0.594   0.478  11.502 -0.0465  1.0540 -0.6801
 5946TIP3    H242034   0.732   0.482  11.441  0.5631  0.4231  0.6177
 5947TIP3   OH242035   5.777   3.089  10.715  0.0775  0.2553  0.1866
 5947TIP3    H142036   5.865   3.052  10.723 -0.3161 -0.3500  2.3362
 5947TIP3    H242037   5.730   3.026  10.661  0.4102 -0.5540  0.8100
 5948TIP3   OH242038   1.637   5.607  11.527  0.1809 -0.8270  0.1970
 5948TIP3    H142039   1.548   5.642  11.523 -0.3106 -1.9036  1.1311
 5948TIP3    H242040   1.638   5.537  11.461  0.2393 -1.0227  0.4057
 5949TIP3   OH242041   0.201   4.449  10.365 -0.3181 -0.1602  0.0669
 5949TIP3    H142042   0.202   4.376  10.427  1.0555 -0.5079 -0.3325
 5949TIP3    H242043   0.184   4.408  10.281  0.8544 -0.0913 -0.2186
 5950TIP3   OH242044   4.219   1.366  10.928 -0.5309  0.1385  0.0475
 5950TIP3    H142045   4.161   1.430  10.969 -1.1256  0.0881 -0.6922
 5950TIP3    H242046   4.179   1.281  10.949 -2.0666  0.1804 -2.3700
 5951TIP3   OH242047   4.810   2.458  10.581  0.2693 -0.3997 -0.0462
 5951TIP3    H142048   4.766   2.521  10.524 -0.0885  0.1143  0.7853
 5951TIP3    H242049   4.869   2.510  10.635 -0.1520 -0.7438  0.7608
 5952TIP3   OH242050   5.595   6.404  10.920 -0.4398 -0.1708 -0.3096
 5952TIP3    H142051   5.690   6.410  10.909 -0.3160 -1.9232 -0.4253
 5952TIP3    H242052   5.576   6.460  10.995  0.5299  0.9994 -0.8988
 5953TIP3   OH242053   2.101   0.681  12.117 -0.6614  0.7696 -0.3730
 5953TIP3    H142054   2.068   0.650  12.033  0.1014 -1.9562  0.2268
 5953TIP3    H242055   2.065   0.620  12.181  1.2828  0.8547  0.9004
 5954TIP3   OH242056   0.348   0.169  11.953  0.2366 -0.2530  0.6916
 5954TIP3    H142057   0.279   0.228  11.923  0.4599  0.0074  0.6806
 5954TIP3    H242058   0.302   0.100  12.001 -0.0673 -0.3326  0.2890
 5955TIP3   OH242059   2.814   4.816  11.047  0.6214  0.3093  0.0461
 5955TIP3    H142060   2.741   4.842  11.104  0.3590  0.1630 -0.2176
 5955TIP3    H242061   2.826   4.890  10.988  0.0286 -0.0640 -0.5542
 5956TIP3   OH242062   4.659   3.390  18.203  0.2473  0.6191  0.6775
 5956TIP3    H142063   4.630   3.301  18.183  1.6694  0.0951  0.8026
 5956TIP3    H242064   4.686   3.425  18.118  0.2580  0.7150  0.7206
 5957TIP3   OH242065   7.133   1.752  12.007  0.2361 -0.4168  0.2306
 5957TIP3    H142066   7.104   1.739  11.917  0.0265  2.3639 -0.2026
 5957TIP3    H242067   7.209   1.695  12.017 -0.6588 -1.9519 -1.1571
 5958TIP3   OH242068   0.990   3.610  11.264 -0.6394 -0.0625 -0.0088
 5958TIP3    H142069   1.077   3.573  11.282  0.9397  3.0535 -0.5724
 5958TIP3    H242070   0.979   3.598  11.169 -0.3344  0.4151 -0.1116
 5959TIP3   OH242071   3.730   7.221  11.614 -0.0859 -0.5203  0.4807
 5959TIP3    H142072   3.698   7.151  11.557 -2.1748 -0.0075  0.9341
 5959TIP3    H242073   3.698   7.198  11.701 -0.4128  0.7342  0.7179
 5960TIP3   OH242074   5.024   4.772  10.471  0.4926  0.3899 -0.6604
 5960TIP3    H142075   5.108   4.730  10.489  1.0633  1.6129 -0.3902
 5960TIP3    H242076   5.002   4.819  10.551 -1.0603 -0.8569 -0.2932
 5961TIP3   OH242077   1.383   7.240  11.338 -0.4506  0.2573  0.3190
 5961TIP3    H142078   1.336   7.185  11.400 -0.6563 -0.7160 -0.6815
 5961TIP3    H242079   1.443   7.180  11.293  1.4741  1.3682  1.2470
 5962TIP3   OH242080   6.166   0.853  12.844 -0.0351  0.7990  0.2088
 5962TIP3    H142081   6.151   0.776  12.899  1.4267 -0.1444 -0.6253
 5962TIP3    H242082   6.123   0.832  12.761  0.3673  0.8679 -0.0223
 5963TIP3   OH242083   6.034   3.208  12.115  0.3550 -0.0744 -0.6977
 5963TIP3    H142084   6.051   3.277  12.179 -0.0464 -0.0630 -0.6044
 5963TIP3    H242085   5.947   3.228  12.080 -0.2378 -1.1469  0.1091
 5964TIP3   OH242086   4.125   2.859  10.800  0.0448 -0.5106 -0.7583
 5964TIP3    H142087   4.115   2.830  10.891  0.5516 -0.2800 -0.6261
 5964TIP3    H242088   4.220   2.870  10.789  0.0308 -1.0459 -1.4700
 5965TIP3   OH242089   1.597   1.081  11.714  0.4665 -0.4350 -0.4568
 5965TIP3    H142090   1.651   1.006  11.740  1.8874  0.7346  0.0685
 5965TIP3    H242091   1.655   1.135  11.660 -0.5544  0.2634 -0.8826
 5966TIP3   OH242092   6.896   2.714  11.544 -0.2186  0.2016  0.0742
 5966TIP3    H142093   6.909   2.789  11.602  0.3407  1.0878 -1.1687
 5966TIP3    H242094   6.804   2.690  11.557  0.1898 -0.4046  2.2124
 5967TIP3   OH242095   6.995   4.301  12.233  0.0199 -0.3369  0.5232
 5967TIP3    H142096   7.046   4.319  12.312 -0.3187  0.2246  0.6198
 5967TIP3    H242097   6.938   4.228  12.258 -1.0463  0.6963  1.2558
 5968TIP3   OH242098   1.868   5.663  10.873 -0.9050  0.2906  0.0039
 5968TIP3    H142099   1.874   5.694  10.963  0.7855 -1.3019  0.4915
 5968TIP3    H242100   1.824   5.578  10.880  1.7739 -1.2309 -0.2279
 5969TIP3   OH242101   1.454   1.544  12.192 -0.2516  0.0354 -0.0471
 5969TIP3    H142102   1.426   1.458  12.224 -0.1577 -0.1540 -0.4614
 5969TIP3    H242103   1.533   1.564  12.243  0.6903 -0.8862 -1.0692
 5970TIP3   OH242104   1.422   2.824  12.925 -0.3514 -0.1020 -0.1985
 5970TIP3    H142105   1.443   2.869  13.007 -3.0605 -0.5152  0.8345
 5970TIP3    H242106   1.461   2.737  12.935  0.2954  0.2265  0.1610
 5971TIP3   OH242107   2.156   2.294  12.058 -0.1290 -0.2880  0.0071
 5971TIP3    H142108   2.242   2.299  12.017  0.0481  0.9492  0.4797
 5971TIP3    H242109   2.144   2.202  12.078  1.2136 -0.4347  0.1959
 5972TIP3   OH242110   4.781   1.996  12.663 -0.8246  0.1196 -0.5722
 5972TIP3    H142111   4.857   1.981  12.719 -0.2221  0.1466 -1.3696
 5972TIP3    H242112   4.708   2.003  12.724 -0.1182  0.6001  0.2434
 5973TIP3   OH242113   3.835   4.916  10.110  0.3713 -0.2326  0.1435
 5973TIP3    H142114   3.830   4.820  10.114 -0.0629 -0.2367 -0.3352
 5973TIP3    H242115   3.747   4.945  10.131  0.9451  0.1506  2.1879
 5974TIP3   OH242116   1.658   2.215  11.198 -0.2916  0.7834  0.2732
 5974TIP3    H142117   1.628   2.128  11.224  2.3866 -0.7945 -1.3992
 5974TIP3    H242118   1.603   2.238  11.123 -0.0412 -0.1805 -0.2131
 5975TIP3   OH242119   0.010   7.431  11.537  0.2480 -0.0238 -0.1748
 5975TIP3    H142120  -0.029   7.517  11.554  1.9531  0.7076  0.2769
 5975TIP3    H242121  -0.040   7.397  11.463 -1.1822  0.8704  0.3359
 5976TIP3   OH242122   2.930   2.759  10.302  0.6786 -0.2217 -0.3775
 5976TIP3    H142123   2.902   2.731  10.215 -2.1489 -1.1349  0.7064
 5976TIP3    H242124   2.998   2.697  10.328 -0.0143 -1.2992 -1.0925
 5977TIP3   OH242125   1.833   4.546  12.281  0.2384  0.5494 -0.1994
 5977TIP3    H142126   1.911   4.523  12.330  0.8137  0.3403 -1.1964
 5977TIP3    H242127   1.816   4.638  12.305  1.1168  0.7730 -0.4143
 5978TIP3   OH242128   4.856   1.142  12.013 -0.0466  0.3019 -1.0196
 5978TIP3    H142129   4.891   1.060  12.048 -1.1303  1.0787  2.2061
 5978TIP3    H242130   4.925   1.207  12.030  0.2274  0.3693 -2.2708
 5979TIP3   OH242131   2.085   1.029  12.108 -0.2432 -0.2409  0.0623
 5979TIP3    H142132   2.059   1.119  12.126  2.3207  0.4314  0.9437
 5979TIP3    H242133   2.124   0.998  12.190 -1.2034 -2.2454 -0.1726
 5980TIP3   OH242134   0.649   0.735  12.163  0.2019 -0.0316 -0.8611
 5980TIP3    H142135   0.554   0.733  12.153 -0.0195  1.5005  0.4610
 5980TIP3    H242136   0.663   0.791  12.239  2.1816 -0.1083 -1.1297
 5981TIP3   OH242137   3.171   3.259  11.868  0.2537 -0.8291  0.8279
 5981TIP3    H142138   3.189   3.167  11.846 -1.2981 -1.3680  1.6741
 5981TIP3    H242139   3.192   3.307  11.788  0.1382 -2.0573  0.0321
 5982TIP3   OH242140   5.231   0.155  11.599  0.4022 -0.2372 -0.2558
 5982TIP3    H142141   5.259   0.226  11.542 -0.4326 -0.4697 -0.9702
 5982TIP3    H242142   5.245   0.076  11.548 -2.1416 -0.3304 -0.9381
 5983TIP3   OH242143   2.664   4.992  12.634  0.1050 -0.5178 -0.1324
 5983TIP3    H142144   2.642   5.013  12.725 -0.4395 -1.9748  0.1041
 5983TIP3    H242145   2.755   4.961  12.639 -0.4375 -2.1226  0.1972
 5984TIP3   OH242146   2.091   2.870  12.200  0.0677 -0.3524 -0.6392
 5984TIP3    H142147   2.157   2.800  12.201 -0.2817 -0.6934 -1.2400
 5984TIP3    H242148   2.121   2.932  12.267  0.3047 -1.1396 -0.0070
 5985TIP3   OH242149   0.265   4.191  11.994  0.5044  0.0511  0.3858
 5985TIP3    H142150   0.279   4.192  12.088 -0.7027  0.6696  0.5795
 5985TIP3    H242151   0.178   4.151  11.983  0.1680  0.9446 -0.3778
 5986TIP3   OH242152   0.084   3.155  10.862  0.0451 -1.1157 -0.7475
 5986TIP3    H142153   0.072   3.090  10.931  0.7607 -0.3126  0.1556
 5986TIP3    H242154   0.151   3.118  10.805  0.2175 -1.3292 -0.4110
 5987TIP3   OH242155   6.045   1.287  10.555  0.3424  0.0330 -0.6207
 5987TIP3    H142156   6.116   1.265  10.616  1.4730  2.7480 -0.7814
 5987TIP3    H242157   6.090   1.327  10.480 -1.2785  0.2446 -1.5201
 5988TIP3   OH242158   0.077   2.489  12.474  0.2407 -0.5699  0.4282
 5988TIP3    H142159   0.112   2.519  12.558  1.4318 -2.0479  0.4958
 5988TIP3    H242160   0.138   2.523  12.409 -1.9081  2.5744 -0.1755
 5989TIP3   OH242161   6.152   4.501  10.493  0.1480 -0.7269 -0.2922
 5989TIP3    H142162   6.245   4.510  10.473  0.6006 -3.0330  0.5819
 5989TIP3    H242163   6.112   4.471  10.411  0.2063 -0.0605 -0.5727
 5990TIP3   OH242164   3.613   5.110  10.838 -0.3292  0.1031 -0.5385
 5990TIP3    H142165   3.566   5.043  10.788  0.0204 -1.1411  0.7364
 5990TIP3    H242166   3.615   5.186  10.780 -1.7603 -0.6025 -1.5770
 5991TIP3   OH242167   6.091   6.915  11.352 -0.2838 -0.0679 -0.3962
 5991TIP3    H142168   6.173   6.953  11.383 -0.4831  1.7943 -1.9519
 5991TIP3    H242169   6.111   6.883  11.264 -0.6908 -1.6861  0.0705
 5992TIP3   OH242170   2.107   5.138  12.425 -0.1365  0.1378  0.2448
 5992TIP3    H142171   2.190   5.173  12.457  0.2405  0.6361 -1.2157
 5992TIP3    H242172   2.071   5.090  12.500  1.4663 -0.0987  0.9063
 5993TIP3   OH242173   4.313   7.408  12.362  0.2823  0.0130  0.7797
 5993TIP3    H142174   4.335   7.385  12.272  1.2302 -0.6704  1.1767
 5993TIP3    H242175   4.371   7.354  12.416  1.0000  1.7217  1.7798
 5994TIP3   OH242176   1.569   2.701  10.435  0.4615  0.3140  0.3804
 5994TIP3    H142177   1.618   2.753  10.499  2.7225 -0.9211 -0.2229
 5994TIP3    H242178   1.623   2.622  10.423 -1.0583 -0.5250 -1.3523
 5995TIP3   OH242179   4.637   7.143  11.883  0.1434  0.2525  0.4007
 5995TIP3    H142180   4.707   7.162  11.820  0.1657 -1.2572 -0.0566
 5995TIP3    H242181   4.668   7.180  11.965  1.8985 -1.1647  0.4255
 5996TIP3   OH242182   1.814   5.097  12.396 -0.1427  0.3650  0.1683
 5996TIP3    H142183   1.725   5.111  12.364 -0.4829 -0.3772  0.7667
 5996TIP3    H242184   1.823   5.160  12.468 -0.6360 -0.4073  0.9256
 5997TIP3   OH242185   1.954   6.039  10.577  0.4023  0.5172 -0.0507
 5997TIP3    H142186   1.876   6.015  10.627  0.0506  0.8397 -0.4358
 5997TIP3    H242187   2.023   5.981  10.610 -0.5087 -1.3540 -1.2844
 5998TIP3   OH242188   2.147   0.304  12.535 -0.3252 -0.8250  0.2285
 5998TIP3    H142189   2.200   0.271  12.607  0.5616 -0.4315 -0.2359
 5998TIP3    H242190   2.125   0.394  12.559 -1.2253 -1.1489  0.6555
 5999TIP3   OH242191   6.592   6.972  12.531  0.3447  0.2197 -0.3452
 5999TIP3    H142192   6.687   6.974  12.517  0.3418  0.0372 -0.3894
 5999TIP3    H242193   6.555   6.992  12.445  0.3534  1.7888 -0.0227
 6000TIP3   OH242194   3.692   1.948  10.459 -0.2679 -0.1860  0.0713
 6000TIP3    H142195   3.672   1.952  10.552 -0.4234  0.5187  0.0132
 6000TIP3    H242196   3.661   1.862  10.431  0.7998 -0.8564  0.8976
 6001TIP3   OH242197   4.136   2.859  13.373 -0.1358  0.0859 -0.2605
 6001TIP3    H142198   4.209   2.804  13.345  0.4105 -0.0204  1.2780
 6001TIP3    H242199   4.058   2.816  13.337  0.1312 -2.5600  1.9893
 6002TIP3   OH242200   3.148   2.431  11.633  0.1425 -0.1458 -0.1837
 6002TIP3    H142201   3.092   2.506  11.612  0.8780  0.3597 -0.3763
 6002TIP3    H242202   3.111   2.395  11.713 -0.8019 -0.1671 -0.6157
 6003TIP3   OH242203   1.863   6.965  11.131 -0.0233  0.3198  0.9452
 6003TIP3    H142204   1.945   6.923  11.157  0.4392  2.0235  2.3868
 6003TIP3    H242205   1.822   6.992  11.213 -2.6419 -1.4601  0.3555
 6004TIP3   OH242206   0.187   4.920  12.337 -0.0167  0.2038 -0.0895
 6004TIP3    H142207   0.098   4.897  12.364  0.5023  0.4123  1.9487
 6004TIP3    H242208   0.182   5.013  12.314 -0.2228  0.3703  0.6003
 6005TIP3   OH242209   5.590   4.828  12.136  0.0517  0.6702  0.6216
 6005TIP3    H142210   5.557   4.867  12.055 -0.2699 -0.4634  0.1805
 6005TIP3    H242211   5.613   4.903  12.191 -0.6495  1.4719 -0.1359
 6006TIP3   OH242212   1.346   3.067  10.116  0.0004  0.1549  0.3164
 6006TIP3    H142213   1.353   3.046  10.023  1.1579  0.2055  0.3828
 6006TIP3    H242214   1.387   2.993  10.161 -1.4308 -0.3433  0.8503
 6007TIP3   OH242215   2.610   0.648  10.764 -0.9236  0.1086 -0.0760
 6007TIP3    H142216   2.647   0.726  10.722  1.4323 -0.9893 -0.1954
 6007TIP3    H242217   2.543   0.682  10.823  1.4695  2.5006  1.5059
 6008TIP3   OH242218   4.308   6.125  11.723  0.1305  0.0630  0.5011
 6008TIP3    H142219   4.248   6.098  11.792  0.6729 -0.6451  0.7048
 6008TIP3    H242220   4.324   6.046  11.671 -0.0069  0.5075 -0.2418
 6009TIP3   OH242221   3.038   2.745  11.763 -0.3220  0.5865 -0.2665
 6009TIP3    H142222   2.972   2.796  11.812  1.5707  1.5723  1.3886
 6009TIP3    H242223   3.025   2.655  11.792 -1.3218  0.6679 -0.4238
 6010TIP3   OH242224   1.341   4.142  10.691  0.0018  0.4008 -0.1272
 6010TIP3    H142225   1.293   4.062  10.672 -1.7611  1.2268  0.6330
 6010TIP3    H242226   1.288   4.212  10.654  0.7889  1.3251  0.4303
 6011TIP3   OH242227   4.441   1.995  11.099 -0.1330  0.1623 -0.0809
 6011TIP3    H142228   4.487   2.024  11.020  0.0646 -3.3350 -1.4134
 6011TIP3    H242229   4.481   2.046  11.169  1.2430  1.8267 -1.9371
 6012TIP3   OH242230   7.661   1.870  10.551  0.0251 -0.4027  0.1191
 6012TIP3    H142231   7.703   1.948  10.513  1.7749 -1.0176  0.6585
 6012TIP3    H242232   7.574   1.899  10.576  0.7732  1.5004  0.6653
 6013TIP3   OH242233   0.516   7.616  11.350  0.3190  0.2642 -0.3818
 6013TIP3    H142234   0.536   7.625  11.257 -0.6294  2.4044 -0.4183
 6013TIP3    H242235   0.559   7.690  11.392 -3.2912  2.2975  0.1511
 6014TIP3   OH242236   3.533   1.720  10.419 -0.3922 -0.2551  0.1469
 6014TIP3    H142237   3.459   1.671  10.454 -0.7457 -1.0011 -1.5542
 6014TIP3    H242238   3.494   1.781  10.356 -0.0031  2.5275  2.3775
 6015TIP3   OH242239   5.073   2.957  11.733  0.2773 -0.1352 -0.3095
 6015TIP3    H142240   5.124   2.975  11.812 -0.2941  0.5059 -0.0733
 6015TIP3    H242241   4.982   2.972  11.760  0.0537 -0.1888 -1.0156
 6016TIP3   OH242242   7.671   6.490  11.730  0.4338  0.1157 -0.7692
 6016TIP3    H142243   7.746   6.534  11.691  0.3857 -0.6754 -1.7915
 6016TIP3    H242244   7.598   6.508  11.671  0.0910 -0.1267 -0.4288
 6017TIP3   OH242245   4.461   5.316  11.837  0.1966  0.2761  0.1517
 6017TIP3    H142246   4.473   5.369  11.758  1.2488  2.1011  1.4395
 6017TIP3    H242247   4.498   5.231  11.815  1.1994  0.9877 -1.0887
 6018TIP3   OH242248   3.622   4.470  13.191  0.1230  0.0734 -0.3166
 6018TIP3    H142249   3.604   4.555  13.150 -0.2898 -0.7996 -2.0486
 6018TIP3    H242250   3.715   4.454  13.172 -0.4187 -1.0095 -2.3594
 6019TIP3   OH242251   3.539   2.584  12.703  0.9451  0.1105  0.0719
 6019TIP3    H142252   3.513   2.493  12.687 -0.6986  0.3596  1.0358
 6019TIP3    H242253   3.495   2.607  12.784  1.5670  1.6907 -0.0082
 6020TIP3   OH242254   6.231   0.162  10.943  0.4683  0.0602 -0.0057
 6020TIP3    H142255   6.155   0.137  10.996  1.7565 -1.3835  1.2661
 6020TIP3    H242256   6.195   0.218  10.874 -1.5890  0.2130  1.1192
 6021TIP3   OH242257   6.617   4.263  11.887  0.0436 -0.2963 -1.0276
 6021TIP3    H142258   6.565   4.283  11.809  1.8934  0.4505 -2.1491
 6021TIP3    H242259   6.558   4.214  11.943 -1.2248 -1.3402 -3.1281
 6022TIP3   OH242260   0.287   3.631  12.076  0.2183 -0.4597  0.3738
 6022TIP3    H142261   0.378   3.630  12.106  0.6143 -1.0779 -0.7538
 6022TIP3    H242262   0.294   3.631  11.980 -0.9644  2.4113  0.1891
 6023TIP3   OH242263   1.277   3.892  12.614 -0.1809 -0.4482 -0.0246
 6023TIP3    H142264   1.294   3.798  12.610 -0.1377 -0.4824  0.8021
 6023TIP3    H242265   1.323   3.921  12.693 -0.2132  0.2638 -0.2623
 6024TIP3   OH242266   4.406   6.488  11.818  0.7913  0.5001 -0.1317
 6024TIP3    H142267   4.365   6.509  11.734  0.2771 -2.9134 -0.8875
 6024TIP3    H242268   4.484   6.438  11.794  1.3303  0.5427  1.4517
 6025TIP3   OH242269   1.419   4.096  11.343  0.2930  0.4580 -0.7225
 6025TIP3    H142270   1.325   4.114  11.343  0.2944  0.8986  2.3221
 6025TIP3    H242271   1.428   4.022  11.283 -1.9955  0.3876 -1.0803
 6026TIP3   OH242272   3.573   5.806  12.745 -0.8895 -0.9067  0.0914
 6026TIP3    H142273   3.572   5.723  12.698  0.9411  0.0136 -1.7665
 6026TIP3    H242274   3.647   5.798  12.806 -0.3639 -0.5002 -0.4716
 6027TIP3   OH242275   4.105   2.585  12.411  0.4043  0.0449 -0.1504
 6027TIP3    H142276   4.053   2.579  12.491 -1.1772 -1.5336 -1.2313
 6027TIP3    H242277   4.195   2.565  12.440 -0.1436 -0.5950  1.2061
 6028TIP3   OH242278   6.961   1.970  10.325 -0.0338  0.7938 -0.2088
 6028TIP3    H142279   6.941   1.880  10.351  0.5438  0.6025 -0.3957
 6028TIP3    H242280   7.010   1.961  10.243  1.4396  1.1789  0.5975
 6029TIP3   OH242281   7.451   5.052  10.063  0.3539 -0.2315  0.0691
 6029TIP3    H142282   7.384   5.119  10.052  0.2279 -0.2329  0.7964
 6029TIP3    H242283   7.406   4.979  10.105  0.7569 -0.3198  0.3569
 6030TIP3   OH242284   0.604   2.670  12.434 -0.4493  0.2572  0.0341
 6030TIP3    H142285   0.565   2.584  12.450 -1.3160  0.8311  1.1318
 6030TIP3    H242286   0.553   2.706  12.360  0.7330 -0.6460 -1.2708
 6031TIP3   OH242287   1.315   6.442  12.683 -0.2865  0.1135  0.4765
 6031TIP3    H142288   1.395   6.395  12.705  0.3132  1.0105  0.2611
 6031TIP3    H242289   1.261   6.438  12.762  0.1692 -0.0871  0.7766
 6032TIP3   OH242290   2.994   2.232  12.357  0.5081  0.3013 -0.1774
 6032TIP3    H142291   3.077   2.260  12.319  1.0846 -0.7343  0.2739
 6032TIP3    H242292   3.015   2.213  12.449 -0.2087 -0.0626 -0.0783
 6033TIP3   OH242293   1.770   1.983  12.835 -0.3092 -0.1595  0.3258
 6033TIP3    H142294   1.776   1.938  12.919 -0.9727 -0.7536  0.0702
 6033TIP3    H242295   1.851   1.961  12.789 -0.3967 -0.6695  0.4142
 6034TIP3   OH242296   2.169   6.410  12.183 -0.4844  0.6001  0.1468
 6034TIP3    H142297   2.193   6.456  12.102 -0.6779 -0.3833 -0.4838
 6034TIP3    H242298   2.229   6.336  12.187 -0.2394  0.8386  1.1093
 6035TIP3   OH242299   6.759   3.610  10.936  0.5180  0.5905 -0.3374
 6035TIP3    H142300   6.710   3.537  10.897 -0.2621  1.3839 -0.8710
 6035TIP3    H242301   6.695   3.657  10.990  1.0166  0.8808  0.0188
 6036TIP3   OH242302   0.124   7.026  11.136 -0.1283 -0.1237 -0.6909
 6036TIP3    H142303   0.083   6.939  11.137  0.9700 -0.6485  0.1998
 6036TIP3    H242304   0.055   7.085  11.168 -0.4684 -0.8600 -0.0378
 6037TIP3   OH242305   6.815   0.972  11.085  0.0362 -0.2825  0.7117
 6037TIP3    H142306   6.812   1.058  11.127  0.3922 -0.1314  0.4290
 6037TIP3    H242307   6.880   0.981  11.015 -0.4827 -0.5515  0.1782
 6038TIP3   OH242308   0.676   3.221  10.139 -0.7658 -0.2847 -0.1019
 6038TIP3    H142309   0.626   3.141  10.157 -1.8837  0.2550 -0.6709
 6038TIP3    H242310   0.624   3.291  10.179 -0.5906  0.3256 -0.9284
 6039TIP3   OH242311   4.115   6.346  12.557 -0.4646 -0.1955  0.6910
 6039TIP3    H142312   4.200   6.318  12.522 -0.1830 -2.2969  2.7643
 6039TIP3    H242313   4.054   6.338  12.484  0.9459  0.5782 -0.6174
 6040TIP3   OH242314   5.869   2.405  12.514 -0.7203  0.5128  0.0169
 6040TIP3    H142315   5.855   2.441  12.602 -0.5131  0.1150  0.2101
 6040TIP3    H242316   5.909   2.320  12.529 -2.5972 -0.4881 -0.3798
 6041TIP3   OH242317   1.394   0.253  10.307  0.2373 -0.5164 -0.1160
 6041TIP3    H142318   1.428   0.179  10.257 -1.4527 -0.6616 -1.1231
 6041TIP3    H242319   1.374   0.217  10.393 -0.1633 -1.1415 -0.4641
 6042TIP3   OH242320   2.461   1.940  11.053 -0.8937  0.1825 -0.2409
 6042TIP3    H142321   2.399   1.883  11.008 -1.9421 -0.5511  1.9777
 6042TIP3    H242322   2.407   1.998  11.107  0.1990  2.6160 -1.5871
 6043TIP3   OH242323   6.010   6.049  11.966  0.0814  0.3619  0.3470
 6043TIP3    H142324   5.996   6.140  11.938 -0.2070  0.1157 -0.3370
 6043TIP3    H242325   6.048   6.006  11.889 -0.1521 -0.1906  0.5349
 6044TIP3   OH242326   3.596   0.471  11.808 -0.5327 -0.0699 -0.6131
 6044TIP3    H142327   3.654   0.485  11.883  1.6292  1.6264 -2.4668
 6044TIP3    H242328   3.590   0.556  11.766 -2.5198 -0.7458 -1.8521
 6045TIP3   OH242329   3.958   2.483  11.613 -0.0201 -0.0515  0.1025
 6045TIP3    H142330   3.937   2.428  11.689 -1.7408  2.6486  1.7633
 6045TIP3    H242331   3.945   2.426  11.537 -0.4797 -2.2331  1.7244
 6046TIP3   OH242332   1.031   4.342  10.610  0.0475 -0.6055 -0.1569
 6046TIP3    H142333   0.986   4.427  10.609  1.5149  0.2410  1.4242
 6046TIP3    H242334   1.123   4.363  10.594  0.7869 -1.5924  2.3244
 6047TIP3   OH242335   7.441   2.362  10.638  0.0455 -0.0403 -0.2145
 6047TIP3    H142336   7.479   2.413  10.566 -0.4818  1.5031  0.5422
 6047TIP3    H242337   7.347   2.364  10.622 -0.1048  0.6118  0.6687
 6048TIP3   OH242338   7.303   4.678  12.016 -0.5572  0.5634  0.2100
 6048TIP3    H142339   7.229   4.677  11.955  0.8539 -0.3450 -1.6178
 6048TIP3    H242340   7.377   4.708  11.962  0.8938 -0.8847  1.2934
 6049TIP3   OH242341   0.045   4.453  11.380  0.5687 -0.5090 -0.1263
 6049TIP3    H142342   0.134   4.463  11.347  1.9793  1.1813  3.6161
 6049TIP3    H242343   0.042   4.362  11.410  0.3281 -1.1171 -1.8853
 6050TIP3   OH242344   3.440   2.776  10.838  0.6455  0.0443  0.3471
 6050TIP3    H142345   3.454   2.858  10.886  1.4702 -0.2638  0.6388
 6050TIP3    H242346   3.402   2.804  10.754  0.1053  0.6571  0.7883
 6051TIP3   OH242347   6.481   5.245  10.750 -0.2187  0.0625  0.8992
 6051TIP3    H142348   6.521   5.268  10.834  0.1498 -2.2612  1.4455
 6051TIP3    H242349   6.420   5.174  10.772 -2.4652  1.4993 -0.3731
 6052TIP3   OH242350   0.400   4.876  12.570 -0.3287 -0.5454 -0.1975
 6052TIP3    H142351   0.327   4.828  12.609 -2.1601  0.9085 -1.6631
 6052TIP3    H242352   0.377   4.968  12.581  1.4252 -0.0275 -0.4920
 6053TIP3   OH242353   0.623   2.208  10.330 -0.0237 -0.5902  0.1073
 6053TIP3    H142354   0.689   2.176  10.392  0.6024 -0.8440 -0.6700
 6053TIP3    H242355   0.647   2.299  10.314  0.0620 -0.6425 -0.0680
 6054TIP3   OH242356   1.480   4.479  11.834  0.1163 -0.2102 -0.1164
 6054TIP3    H142357   1.547   4.533  11.876  1.3778 -2.1546  0.5055
 6054TIP3    H242358   1.447   4.534  11.763 -0.2388  2.1979  1.7586
 6055TIP3   OH242359   4.661   2.117  11.637  0.2783 -0.5056  0.6023
 6055TIP3    H142360   4.698   2.161  11.713 -0.1975 -2.4747  2.0688
 6055TIP3    H242361   4.567   2.137  11.642 -0.4249 -3.5010  2.8052
 6056TIP3   OH242362   2.160   2.222  12.668  0.0839 -0.0175 -0.3904
 6056TIP3    H142363   2.199   2.140  12.697  0.6226  0.8702  1.5698
 6056TIP3    H242364   2.185   2.230  12.576 -1.0192 -2.6157 -1.0051
 6057TIP3   OH242365   4.882   6.571  12.599 -0.1647 -0.2363 -0.2854
 6057TIP3    H142366   4.868   6.510  12.672 -1.5658  1.2471  0.7485
 6057TIP3    H242367   4.966   6.612  12.619 -0.7136  0.4324  0.7299
 6058TIP3   OH242368   5.967   7.234  11.654 -0.3531 -0.1233  0.2157
 6058TIP3    H142369   5.938   7.203  11.568  0.9032 -1.0074  0.0942
 6058TIP3    H242370   6.061   7.221  11.654  0.1370  2.8012  0.5550
 6059TIP3   OH242371   2.701   5.830  11.190 -0.7619 -0.0301  0.0894
 6059TIP3    H142372   2.609   5.822  11.213 -0.8080 -0.6487 -0.2814
 6059TIP3    H242373   2.739   5.744  11.211 -0.0626  0.5030  1.1141
 6060TIP3   OH242374   4.656   0.992  11.868 -0.6203  0.6958 -0.0342
 6060TIP3    H142375   4.725   1.043  11.910  0.6088 -0.3894 -0.6747
 6060TIP3    H242376   4.702   0.922  11.822 -2.2570 -1.9250  1.9658
 6061TIP3   OH242377   5.563   6.569  11.163 -0.2020  0.6500 -0.0916
 6061TIP3    H142378   5.481   6.606  11.130 -0.4892  2.4916  2.4316
 6061TIP3    H242379   5.608   6.643  11.203  1.4483 -0.8720  0.9821
 6062TIP3   OH242380   3.396   6.971  12.380 -0.3335 -0.1975  0.4008
 6062TIP3    H142381   3.360   6.990  12.466  0.2887  2.0532  0.2217
 6062TIP3    H242382   3.476   6.920  12.398 -0.4450 -0.1255  1.1268
 6063TIP3   OH242383   2.265   2.489  12.794  0.2368 -0.9999  0.9588
 6063TIP3    H142384   2.329   2.502  12.724 -1.2868 -0.0087 -0.3268
 6063TIP3    H242385   2.231   2.401  12.779 -1.1691 -0.2627 -0.5784
 6064TIP3   OH242386   4.330   0.258  12.960  0.5528 -0.0390  0.0328
 6064TIP3    H142387   4.246   0.234  13.000  1.0619 -1.9542  0.0507
 6064TIP3    H242388   4.395   0.209  13.011  1.5882  0.6450 -0.6106
 6065TIP3   OH242389   7.142   1.469  11.859 -0.2592 -0.1395 -0.3588
 6065TIP3    H142390   7.113   1.428  11.777  0.5423 -2.0877  0.2707
 6065TIP3    H242391   7.237   1.464  11.856 -0.1899 -2.6790  1.7310
 6066TIP3   OH242392   3.331   2.710  11.647  0.2282 -0.6180 -0.0820
 6066TIP3    H142393   3.241   2.701  11.678  0.3737 -1.9400  0.0146
 6066TIP3    H242394   3.327   2.687  11.554  0.4267 -0.4726 -0.1258
 6067TIP3   OH242395   6.127   2.174  12.102 -0.5084 -0.3218 -0.4500
 6067TIP3    H142396   6.192   2.140  12.163  1.5766  1.1053 -1.7163
 6067TIP3    H242397   6.063   2.219  12.158 -0.6810 -2.1041  0.8636
 6068TIP3   OH242398   3.352   3.736  10.754 -0.0736  0.0294 -0.0802
 6068TIP3    H142399   3.339   3.666  10.819 -0.9692 -0.2494 -0.5411
 6068TIP3    H242400   3.404   3.694  10.684 -0.0319  0.0178 -0.0423
 6069TIP3   OH242401   2.744   6.348  11.362  0.1285  0.5043  0.7393
 6069TIP3    H142402   2.789   6.399  11.294  0.9931 -0.3155  0.6748
 6069TIP3    H242403   2.741   6.259  11.327 -0.9239  0.3973  1.0622
 6070TIP3   OH242404   5.653   4.223  11.072  0.2310 -0.1808 -0.7084
 6070TIP3    H142405   5.641   4.192  11.161 -0.5507 -0.4516 -0.8969
 6070TIP3    H242406   5.687   4.147  11.025  0.3567 -0.1280 -0.7014
 6071TIP3   OH242407   4.406   7.538  11.423  0.1483  0.5788  0.3194
 6071TIP3    H142408   4.461   7.615  11.439  1.2946 -0.1576  0.0482
 6071TIP3    H242409   4.437   7.473  11.487  0.5723 -0.3103 -0.7427
 6072TIP3   OH242410   4.888   4.359  11.594 -0.8329 -0.4375 -0.0536
 6072TIP3    H142411   4.932   4.374  11.510 -0.9368 -1.6827 -0.3624
 6072TIP3    H242412   4.812   4.306  11.571 -1.8909  0.7456  0.6193
 6073TIP3   OH242413   0.367   5.984  11.205 -0.0447 -0.6082 -0.0623
 6073TIP3    H142414   0.286   6.009  11.249  0.1803  0.2319 -0.1084
 6073TIP3    H242415   0.362   5.889  11.198 -1.4921 -0.4961 -0.9637
 6074TIP3   OH242416   7.658   5.920  11.618 -0.5197 -0.3444  0.5180
 6074TIP3    H142417   7.750   5.893  11.618 -0.9808 -2.2776  3.2232
 6074TIP3    H242418   7.655   5.996  11.676 -0.5836 -0.0418  0.1223
 6075TIP3   OH242419   5.310   2.821  11.902 -0.2295 -0.0462  0.1725
 6075TIP3    H142420   5.306   2.762  11.827 -0.9078  0.6109 -0.3225
 6075TIP3    H242421   5.384   2.880  11.883 -1.0036  0.7381 -0.4575
 6076TIP3   OH242422   4.095   2.785  11.054  0.1179  0.4797  0.2412
 6076TIP3    H142423   4.036   2.730  11.105  2.1579 -0.5726  1.5828
 6076TIP3    H242424   4.085   2.872  11.091 -0.7862  0.3972  0.2274
 6077TIP3   OH242425   4.737   1.772  10.928 -0.6718 -0.2280 -0.1266
 6077TIP3    H142426   4.643   1.769  10.910 -0.8897 -0.4178  0.9506
 6077TIP3    H242427   4.743   1.811  11.015  0.1957 -1.0289  0.1922
 6078TIP3   OH242428   4.127   3.283  11.271  0.2248  0.2431 -0.2547
 6078TIP3    H142429   4.066   3.352  11.298 -1.9514 -0.6413 -2.5548
 6078TIP3    H242430   4.096   3.205  11.317 -0.4051 -0.2064 -1.4145
 6079TIP3   OH242431   6.694   2.078  11.757  0.0536 -0.0145 -0.1895
 6079TIP3    H142432   6.620   2.030  11.721  0.1731  0.2556 -0.8162
 6079TIP3    H242433   6.691   2.163  11.714  0.5886  0.0838 -0.0458
 6080TIP3   OH242434   4.933   7.584  10.529 -0.1583  0.5139  0.0736
 6080TIP3    H142435   4.883   7.503  10.543 -1.2955  1.0349 -0.7997
 6080TIP3    H242436   4.867   7.653  10.528  0.4896  1.1704 -1.6112
 6081TIP3   OH242437   1.004   2.308  12.369  0.1847  0.2582  0.1227
 6081TIP3    H142438   0.945   2.239  12.337  0.6025  0.3210 -0.8177
 6081TIP3    H242439   0.945   2.373  12.407 -0.3791  0.3369 -0.8391
 6082TIP3   OH242440   5.695   5.045  10.256 -0.1230 -0.2183  0.0415
 6082TIP3    H142441   5.675   5.052  10.162  1.1644  1.5034 -0.1489
 6082TIP3    H242442   5.617   5.004  10.294 -0.8284 -0.5993 -1.7102
 6083TIP3   OH242443   3.188   5.194  11.046  0.2797 -0.2136 -0.3070
 6083TIP3    H142444   3.269   5.212  10.998 -0.0377 -0.2280 -0.8503
 6083TIP3    H242445   3.193   5.100  11.067  0.8178 -0.0235  0.4421
 6084TIP3   OH242446   6.908   4.311  12.857  0.2163  0.0174 -0.2360
 6084TIP3    H142447   6.866   4.226  12.866  0.8180 -0.3051 -0.4165
 6084TIP3    H242448   6.923   4.341  12.947  0.2065 -0.1730 -0.1720
 6085TIP3   OH242449   2.154   2.381  10.628 -0.1079  0.1529 -0.3094
 6085TIP3    H142450   2.164   2.358  10.721  0.4098 -2.5463 -0.9643
 6085TIP3    H242451   2.199   2.311  10.581 -1.3088  0.8654 -2.6529
 6086TIP3   OH242452   5.319   5.734  12.304 -0.1191 -0.6622  0.2673
 6086TIP3    H142453   5.255   5.742  12.234 -0.0833  2.7141  0.4706
 6086TIP3    H242454   5.403   5.727  12.259 -0.0315  2.1041 -0.1716
 6087TIP3   OH242455   1.008   7.168  12.510  0.1141 -0.0540  0.3177
 6087TIP3    H142456   0.973   7.137  12.594  1.4864 -0.7331  0.6690
 6087TIP3    H242457   0.988   7.261  12.509 -0.2558 -0.1066  1.2257
 6088TIP3   OH242458   6.008   4.755  12.269  0.4493 -0.8932 -0.1429
 6088TIP3    H142459   6.102   4.742  12.268  0.3509 -1.7493 -2.0705
 6088TIP3    H242460   5.982   4.735  12.359  1.9514 -1.7833  0.1308
 6089TIP3   OH242461   6.495   1.170  11.998 -0.4491  0.2260  0.2864
 6089TIP3    H142462   6.538   1.230  12.059  0.3117  1.5191 -1.4132
 6089TIP3    H242463   6.402   1.191  12.003 -1.1521 -2.6972  4.1181
 6090TIP3   OH242464   0.075   1.459  11.578 -0.6369  0.1989 -0.3671
 6090TIP3    H142465   0.111   1.518  11.644 -0.3949  0.7114 -0.9464
 6090TIP3    H242466   0.075   1.511  11.497 -2.3913  0.1219 -0.4571
 6091TIP3   OH242467   7.117   1.081  13.272 -0.3714  0.6632 -0.7070
 6091TIP3    H142468   7.130   1.172  13.245  0.0695  0.9967  0.5444
 6091TIP3    H242469   7.194   1.035  13.237 -0.8675  0.6475 -1.8085
 6092TIP3   OH242470   4.978   7.626  13.141  0.1934 -0.3506 -0.4790
 6092TIP3    H142471   4.994   7.531  13.142  0.4783 -0.3716 -2.4213
 6092TIP3    H242472   5.048   7.661  13.086 -0.4459  0.8756 -0.5377
 6093TIP3   OH242473   2.452   1.571  12.067 -0.1400  0.2617  0.4107
 6093TIP3    H142474   2.453   1.630  12.143 -2.2716  0.9335 -0.0209
 6093TIP3    H242475   2.363   1.535  12.066  0.1298 -0.4178 -1.2637
 6094TIP3   OH242476   2.901   0.279  10.527  0.5928 -0.0897 -0.0540
 6094TIP3    H142477   2.842   0.337  10.575  1.9184  0.9111  0.4243
 6094TIP3    H242478   2.962   0.247  10.594  1.8930  0.5959 -0.8705
 6095TIP3   OH242479   1.940   3.865  11.172  0.0087 -0.0548  0.1714
 6095TIP3    H142480   1.967   3.917  11.248 -2.9282  0.8128  0.7444
 6095TIP3    H242481   1.862   3.909  11.139 -0.4886 -2.0773 -1.5704
 6096TIP3   OH242482   6.357   5.911  12.596 -0.2972  0.3722 -0.5443
 6096TIP3    H142483   6.422   5.953  12.541 -0.3032  0.9484 -0.1141
 6096TIP3    H242484   6.408   5.858  12.658 -0.3103 -1.0741 -1.7063
 6097TIP3   OH242485   6.246   2.859  10.669  0.1027  0.2807 -0.2433
 6097TIP3    H142486   6.165   2.885  10.713  1.2214  2.8938  0.4385
 6097TIP3    H242487   6.246   2.909  10.587  0.7907 -0.0573 -0.4597
 6098TIP3   OH242488   4.819   5.358  11.221  0.3241  0.2908 -0.2670
 6098TIP3    H142489   4.731   5.394  11.226  0.7479  1.3517 -0.0318
 6098TIP3    H242490   4.849   5.381  11.132  0.4369  0.1135 -0.2753
 6099TIP3   OH242491   5.786   7.630  12.345  0.2852 -0.0186  0.0160
 6099TIP3    H142492   5.764   7.595  12.259  0.1587  0.4262 -0.1330
 6099TIP3    H242493   5.712   7.604  12.400  0.9458 -1.3836  0.2932
 6100TIP3   OH242494   3.039   0.018  11.412 -0.6064 -0.1751 -0.2976
 6100TIP3    H142495   3.060   0.106  11.444 -0.7964 -0.5172  0.8027
 6100TIP3    H242496   3.070   0.017  11.322  0.2624  0.7062 -0.0202
 6101TIP3   OH242497   3.937   1.443  11.041 -0.8634  0.7928 -0.8676
 6101TIP3    H142498   3.866   1.437  10.977 -0.7966 -1.3004 -0.8024
 6101TIP3    H242499   3.900   1.406  11.122 -0.7868  2.9282  0.2356
 6102TIP3   OH242500   4.317   7.075  12.233 -0.2526  0.3913 -0.0384
 6102TIP3    H142501   4.311   6.982  12.209 -0.7276  0.6141 -0.7786
 6102TIP3    H242502   4.296   7.123  12.153  1.2440  1.1585 -0.0173
 6103TIP3   OH242503   6.122   3.545  11.337  0.0582 -0.3543 -0.3273
 6103TIP3    H142504   6.069   3.497  11.273  0.7308 -1.1070 -0.3392
 6103TIP3    H242505   6.097   3.507  11.421  1.0694 -1.2190 -0.3944
 6104TIP3   OH242506   6.479   1.952  11.616  0.2404 -0.6951 -0.7071
 6104TIP3    H142507   6.469   2.023  11.553  0.8119  0.0933  0.0613
 6104TIP3    H242508   6.426   1.881  11.581  0.6399 -0.3209 -2.1369
 6105TIP3   OH242509   3.952   1.010  12.246  0.1359 -0.4324  0.0615
 6105TIP3    H142510   3.953   1.103  12.224  2.3296  0.2989  2.6537
 6105TIP3    H242511   4.027   0.973  12.200 -0.5280 -0.8735 -0.6890
 6106TIP3   OH242512   1.074   1.733  13.076  0.0743  0.4474  0.4210
 6106TIP3    H142513   1.069   1.694  13.163 -0.3170  0.4486  0.4016
 6106TIP3    H242514   0.983   1.746  13.050  0.1646 -0.2633 -0.3060
 6107TIP3   OH242515   0.016   7.004  12.515  0.1174  0.4555 -0.0606
 6107TIP3    H142516   0.100   7.024  12.473  1.0313 -0.6240  1.1549
 6107TIP3    H242517  -0.042   7.074  12.487  1.3445  1.0731 -1.1767
 6108TIP3   OH242518   2.810   2.514  12.026 -0.4751  0.2963  0.0530
 6108TIP3    H142519   2.728   2.529  11.978 -1.0785 -3.7924 -0.5043
 6108TIP3    H242520   2.794   2.435  12.078  2.9802 -0.4303  0.2515
 6109TIP3   OH242521   1.471   1.619  11.912  0.3476  0.1307  0.2039
 6109TIP3    H142522   1.458   1.566  11.990  2.2475 -0.4657  0.1686
 6109TIP3    H242523   1.448   1.560  11.839  0.0265  0.1975  0.2490
 6110TIP3   OH242524   3.863   6.811  11.455  0.1998  0.4495  0.6036
 6110TIP3    H142525   3.841   6.720  11.435  0.5055  0.5042  0.0283
 6110TIP3    H242526   3.881   6.811  11.549 -1.9335  0.3314  1.0666
 6111TIP3   OH242527   2.126   6.354  13.025 -0.5597  0.3811  0.5343
 6111TIP3    H142528   2.104   6.362  13.118 -0.9136  0.5400  0.4350
 6111TIP3    H242529   2.078   6.424  12.982  0.1116  0.7068  0.3133
 6112TIP3   OH242530   0.771   2.391  10.802 -0.2103 -0.4148 -0.1331
 6112TIP3    H142531   0.809   2.462  10.854 -1.8789  0.1527  0.3737
 6112TIP3    H242532   0.844   2.331  10.787  1.1488  1.1657 -0.1904
 6113TIP3   OH242533   6.346   6.987  11.436  0.0671  0.5062  0.0699
 6113TIP3    H142534   6.440   7.002  11.423  0.0063  0.7913 -0.0521
 6113TIP3    H242535   6.342   6.905  11.485  0.2910 -0.6423 -1.7570
 6114TIP3   OH242536   3.242   4.479  10.583  0.6900 -0.4045  0.3628
 6114TIP3    H142537   3.288   4.428  10.517  1.6045 -0.2477  0.8692
 6114TIP3    H242538   3.254   4.570  10.556 -1.6991 -0.4108 -1.0465
 6115TIP3   OH242539   1.771   1.033  12.187 -0.2052 -0.0477  0.2987
 6115TIP3    H142540   1.743   1.023  12.278 -2.1765 -2.9604 -0.4713
 6115TIP3    H242541   1.719   1.105  12.153  0.2788  0.8156  1.3341
 6116TIP3   OH242542   2.821   1.061  11.041 -0.0419  0.2214 -0.3429
 6116TIP3    H142543   2.760   1.134  11.032  0.5268  0.9590  1.4057
 6116TIP3    H242544   2.769   0.984  11.020 -1.5554  0.8462  0.9443
 6117TIP3   OH242545   2.830   1.453  10.846  0.0469  0.0592  0.4307
 6117TIP3    H142546   2.856   1.544  10.860 -0.7478  0.8011 -2.3499
 6117TIP3    H242547   2.913   1.404  10.848  0.5433  0.8917  1.3249
 6118TIP3   OH242548   1.300   6.050  11.954 -0.2592  0.2155  0.2332
 6118TIP3    H142549   1.253   6.018  11.877 -0.0244 -0.3038  0.2973
 6118TIP3    H242550   1.302   5.975  12.014  0.8422  0.1469  0.1341
 6119TIP3   OH242551   2.124   7.149  11.963  0.1687  0.1701 -0.1148
 6119TIP3    H142552   2.100   7.166  11.872 -0.2765  0.9480  0.1378
 6119TIP3    H242553   2.194   7.211  11.982  1.0343 -0.7411 -0.2480
 6120TIP3   OH242554   1.983   6.586  11.169  0.3316  0.0043  0.1851
 6120TIP3    H142555   1.942   6.617  11.088  2.2652  2.9217  0.2111
 6120TIP3    H242556   2.027   6.505  11.144 -1.8230 -0.9699 -0.7908
 6121TIP3   OH242557   7.482   5.323  12.434 -0.0781 -0.3838  0.1200
 6121TIP3    H142558   7.422   5.251  12.452 -0.5260 -0.1104 -0.2716
 6121TIP3    H242559   7.510   5.353  12.520 -1.4992  0.3248  0.3601
 6122TIP3   OH242560   3.502   0.164  10.439 -0.5335  0.2258  0.0560
 6122TIP3    H142561   3.419   0.118  10.429 -2.2383  2.8775  1.1158
 6122TIP3    H242562   3.504   0.192  10.530 -0.0290  2.9216 -0.6949
 6123TIP3   OH242563   1.925   6.981  12.546  0.3190  0.0570 -0.1546
 6123TIP3    H142564   1.877   6.963  12.627 -0.0561  1.6482  0.0212
 6123TIP3    H242565   2.012   7.010  12.576 -0.1296  1.5769 -0.2413
 6124TIP3   OH242566   4.166   5.546  12.007 -0.5422 -0.1283 -0.4551
 6124TIP3    H142567   4.177   5.635  12.041 -0.3599  0.1979 -1.3387
 6124TIP3    H242568   4.232   5.494  12.052 -1.9530 -0.2614  1.5747
 6125TIP3   OH242569   4.604   4.309  10.642 -0.1277 -0.6200  0.2251
 6125TIP3    H142570   4.688   4.337  10.605  0.6574 -1.3907  1.3716
 6125TIP3    H242571   4.542   4.320  10.570  0.9206  0.0909 -0.6089
 6126TIP3   OH242572   4.387   1.024  12.678 -0.0415 -0.0161  0.3566
 6126TIP3    H142573   4.337   1.051  12.601  0.0829  1.9437  0.9271
 6126TIP3    H242574   4.441   0.951  12.647 -0.7731  0.0497 -1.1328
 6127TIP3   OH242575   3.415   7.034  10.961 -0.3218 -0.0134 -0.3710
 6127TIP3    H142576   3.448   7.115  10.923  0.9593 -0.8059 -1.0031
 6127TIP3    H242577   3.418   7.048  11.056  1.9415 -0.0755 -0.3916
 6128TIP3   OH242578   6.777   4.693  12.183  0.0894  0.0411 -1.2912
 6128TIP3    H142579   6.761   4.628  12.251  2.2150 -0.2670 -1.0023
 6128TIP3    H242580   6.698   4.747  12.182 -1.1315 -1.6460 -0.5395
 6129TIP3   OH242581   6.365   2.955  10.889 -0.0501  0.2264 -0.8149
 6129TIP3    H142582   6.287   2.962  10.945  0.8311 -2.5043  0.9450
 6129TIP3    H242583   6.343   2.887  10.825  0.9296 -0.8272 -0.0817
 6130TIP3   OH242584   3.964   1.654  10.888  0.7003 -0.0982 -0.1594
 6130TIP3    H142585   4.057   1.665  10.908  0.5475 -0.2570  0.6746
 6130TIP3    H242586   3.931   1.598  10.958 -0.3320  1.1353  0.3723
 6131TIP3   OH242587   1.658   6.489  10.707 -0.4777 -0.1562 -0.4789
 6131TIP3    H142588   1.666   6.414  10.648  1.7108  1.0178 -1.7917
 6131TIP3    H242589   1.742   6.533  10.702 -0.0256 -0.1132  3.8450
 6132TIP3   OH242590   4.063   4.734  11.669 -0.0639 -0.3654  0.1679
 6132TIP3    H142591   4.065   4.736  11.765 -0.5313  0.9608  0.1773
 6132TIP3    H242592   4.048   4.642  11.647  0.0049 -0.6862  1.3658
 6133TIP3   OH242593   2.758   5.013  11.973  0.2279 -0.4058  0.4211
 6133TIP3    H142594   2.776   5.008  11.879 -0.3091  1.0135  0.2274
 6133TIP3    H242595   2.666   4.986  11.980  0.1523 -0.1238  0.4969
 6134TIP3   OH242596   2.329   5.084  11.418  0.0358  0.6124 -0.4803
 6134TIP3    H142597   2.247   5.115  11.457 -0.8582 -0.1086 -1.7201
 6134TIP3    H242598   2.336   5.133  11.336 -0.9569 -1.7209 -2.0455
 6135TIP3   OH242599   5.446   4.976  11.947  0.4539  0.2050  0.2981
 6135TIP3    H142600   5.386   4.927  11.890  0.4690 -2.4544  2.3921
 6135TIP3    H242601   5.408   5.064  11.952  0.0559  0.3549 -3.0972
 6136TIP3   OH242602   2.869   6.430  10.938 -0.0966  0.5085 -0.0196
 6136TIP3    H142603   2.897   6.454  11.026  1.4466  1.6932 -0.7962
 6136TIP3    H242604   2.803   6.495  10.914  0.8030  1.2986 -0.4046
 6137TIP3   OH242605   0.186   2.906  10.714 -0.5567 -1.2757 -0.1901
 6137TIP3    H142606   0.278   2.904  10.741 -0.8700 -0.4231  1.0152
 6137TIP3    H242607   0.137   2.891  10.795 -1.4975 -1.1096 -0.7165
 6138TIP3   OH242608   3.271   1.549  10.946 -0.1206  0.2463 -0.6508
 6138TIP3    H142609   3.245   1.457  10.944  0.4217  0.0744  0.0207
 6138TIP3    H242610   3.272   1.572  11.039 -0.0609  0.8758 -0.8017
 6139TIP3   OH242611   5.335   0.568  10.641 -0.0078  0.0147  0.1878
 6139TIP3    H142612   5.263   0.621  10.609 -0.2711 -0.4321  0.0275
 6139TIP3    H242613   5.412   0.600  10.593 -0.2705 -0.1599 -0.3577
 6140TIP3   OH242614   1.476   0.330  10.834 -0.3949 -0.1159  0.1012
 6140TIP3    H142615   1.549   0.275  10.807 -0.2855  0.1390 -0.1216
 6140TIP3    H242616   1.398   0.286  10.800 -0.1904  0.8548 -1.8006
 6141TIP3   OH242617   4.489   1.350  10.853  0.8769  0.1104  0.3677
 6141TIP3    H142618   4.538   1.353  10.935  0.2512 -1.0427  0.8146
 6141TIP3    H242619   4.397   1.349  10.880  0.6690 -0.5592 -0.3159
 6142TIP3   OH242620   4.851   1.411  11.819 -0.0486 -0.3863  0.0690
 6142TIP3    H142621   4.886   1.438  11.904  2.0540 -0.7877 -0.6036
 6142TIP3    H242622   4.928   1.402  11.763 -1.3077 -0.8821 -1.6813
 6143TIP3   OH242623   1.109   5.947  12.703 -0.0596 -0.1166  0.0924
 6143TIP3    H142624   1.022   5.963  12.666 -0.1287  0.2239  0.3920
 6143TIP3    H242625   1.108   5.993  12.787  0.3396 -0.2868  0.1935
 6144TIP3   OH242626   7.077   7.343  10.640  0.3237  1.0010  0.5052
 6144TIP3    H142627   7.160   7.374  10.605 -0.0330 -0.4733 -1.7967
 6144TIP3    H242628   7.042   7.419  10.687  1.9853  2.3143 -0.2669
 6145TIP3   OH242629   0.806   3.891  11.968  0.4733  0.0766  0.3752
 6145TIP3    H142630   0.833   3.931  11.886  0.5341 -2.6442 -1.0403
 6145TIP3    H242631   0.880   3.836  11.994 -0.8295 -1.7607  0.3816
 6146TIP3   OH242632   5.141   0.088  12.103 -0.3353 -0.5565 -0.0813
 6146TIP3    H142633   5.129   0.032  12.026  0.0908 -0.5554 -0.1500
 6146TIP3    H242634   5.178   0.029  12.169  1.1417 -0.1262 -0.4887
 6147TIP3   OH242635   2.341   7.055  10.414  0.4679  0.2272 -0.2065
 6147TIP3    H142636   2.320   7.138  10.457  0.2632 -0.9066  2.0623
 6147TIP3    H242637   2.263   7.001  10.429  1.2778 -0.9346 -0.0950
 6148TIP3   OH242638   2.330   7.411  10.495  0.2392 -0.3218 -0.7741
 6148TIP3    H142639   2.259   7.452  10.445 -0.1486 -0.3937 -0.2980
 6148TIP3    H242640   2.290   7.332  10.532  0.2903  0.1261  0.2697
 6149TIP3   OH242641   6.928   4.007  12.860  0.5097  0.0678  0.6680
 6149TIP3    H142642   6.881   3.931  12.895  1.2079 -0.9667 -0.5404
 6149TIP3    H242643   7.019   3.994  12.888  1.3177 -1.3709 -2.2612
 6150TIP3   OH242644   2.334   4.840  11.218  0.1155  0.3734  0.2254
 6150TIP3    H142645   2.305   4.915  11.269  1.2610  0.5641  0.6308
 6150TIP3    H242646   2.258   4.815  11.166 -1.3164 -0.1976  2.4338
 6151TIP3   OH242647   5.556   2.901  13.039 -0.2817  0.5647  0.0373
 6151TIP3    H142648   5.602   2.954  13.103 -1.3718 -1.2137  2.4500
 6151TIP3    H242649   5.619   2.834  13.012  0.3724  1.6765 -1.2818
 6152TIP3   OH242650   1.601   1.442  10.135 -0.1842 -1.1192  0.5441
 6152TIP3    H142651   1.626   1.354  10.105 -0.4722 -1.4425  1.2285
 6152TIP3    H242652   1.548   1.477  10.063  0.9422 -1.0183 -0.2588
 6153TIP3   OH242653   5.610   6.444  11.588 -0.0416  0.1748  0.2780
 6153TIP3    H142654   5.651   6.429  11.502 -0.4213  0.8056 -0.0167
 6153TIP3    H242655   5.581   6.357  11.616  2.5104 -0.5385  1.0364
 6154TIP3   OH242656   2.398   1.745  12.977  0.6190 -0.1384  0.3301
 6154TIP3    H142657   2.432   1.776  12.893 -1.0646 -0.7009 -0.6035
 6154TIP3    H242658   2.305   1.731  12.962  0.2161 -0.0213  2.3837
 6155TIP3   OH242659   3.588   4.938  10.217  0.2274  0.5244  0.3557
 6155TIP3    H142660   3.539   4.860  10.241  0.1481  0.2721 -0.5955
 6155TIP3    H242661   3.527   5.010  10.232  0.5624  0.5082  2.0012
 6156TIP3   OH242662   0.526   4.370  11.083  0.1653 -0.5813 -0.1027
 6156TIP3    H142663   0.451   4.365  11.141 -1.1205  0.0873 -1.6282
 6156TIP3    H242664   0.540   4.463  11.068  0.8764 -0.7215 -0.3708
 6157TIP3   OH242665   4.080   0.988  11.425  0.4547 -0.0264 -0.1730
 6157TIP3    H142666   4.075   0.961  11.334 -1.9980 -5.0214  1.0954
 6157TIP3    H242667   3.995   1.028  11.444  0.0532 -1.0929  0.3697
 6158TIP3   OH242668   3.056   5.435  10.954  0.0576 -0.0950  0.8748
 6158TIP3    H142669   3.100   5.352  10.971  0.3327 -1.1300 -3.5570
 6158TIP3    H242670   2.963   5.417  10.968  0.2902 -0.4454  2.0420
 6159TIP3   OH242671   1.339   1.006  11.677  0.2554  0.1994 -0.5364
 6159TIP3    H142672   1.311   1.003  11.585 -1.6798 -1.3620  0.0428
 6159TIP3    H242673   1.435   1.010  11.671  0.1576  0.9718 -2.6152
 6160TIP3   OH242674   1.193   4.178  12.741  0.2056 -0.0933 -0.5219
 6160TIP3    H142675   1.167   4.186  12.649  1.1966 -1.8910 -1.0166
 6160TIP3    H242676   1.136   4.239  12.788 -1.6515 -0.5251 -2.0951
 6161TIP3   OH242677   0.260   1.284  10.685 -0.0327  0.5532 -0.0602
 6161TIP3    H142678   0.191   1.350  10.693  0.9532  1.4545  1.4511
 6161TIP3    H242679   0.341   1.330  10.705  0.7541 -1.0049  0.5408
 6162TIP3   OH242680   7.570   2.745  12.204  0.2445 -0.0759  1.0560
 6162TIP3    H142681   7.582   2.675  12.140 -0.3099  0.7080  0.0514
 6162TIP3    H242682   7.631   2.813  12.175 -3.2382  2.2681 -1.6153
 6163TIP3   OH242683   1.264   6.264  11.355  0.1073  0.2229 -0.1297
 6163TIP3    H142684   1.345   6.269  11.304  1.3468  0.4888  1.7669
 6163TIP3    H242685   1.195   6.287  11.292  1.2513 -1.7242 -2.2690
 6164TIP3   OH242686   6.619   0.255  10.940 -0.4228  0.0660  0.0715
 6164TIP3    H142687   6.544   0.279  10.995  0.5396 -0.5423  1.7075
 6164TIP3    H242688   6.666   0.189  10.991  0.0100 -1.2475 -1.9165
 6165TIP3   OH242689   3.559   6.162  11.190  0.0771 -0.4616 -0.3643
 6165TIP3    H142690   3.510   6.113  11.256 -0.5685  0.2187 -0.3235
 6165TIP3    H242691   3.493   6.186  11.124  0.2334  0.8934 -0.0616
 6166TIP3   OH242692   1.849   2.077  12.429 -0.0000 -1.0794  0.3974
 6166TIP3    H142693   1.770   2.024  12.418 -1.3861  1.1776 -1.5868
 6166TIP3    H242694   1.917   2.030  12.381 -1.0975 -1.2978 -1.0141
 6167TIP3   OH242695   7.428   6.670  11.687 -0.5388  0.7857  0.7028
 6167TIP3    H142696   7.454   6.645  11.598 -1.6496 -0.3459  0.6716
 6167TIP3    H242697   7.371   6.599  11.716 -0.8021  1.5179  2.0441
 6168TIP3   OH242698   3.463   3.044  11.639 -0.2117  0.2071  0.3464
 6168TIP3    H142699   3.440   2.955  11.613  0.4555 -0.0018  0.4466
 6168TIP3    H242700   3.510   3.079  11.564  0.4464  0.1030  0.6988
 6169TIP3   OH242701   2.530   0.075  16.980  0.1097  0.6896 -0.1424
 6169TIP3    H142702   2.537   0.171  16.979 -0.6122  0.7840  1.1275
 6169TIP3    H242703   2.447   0.058  17.024  0.5312 -0.5405  0.2197
 6170TIP3   OH242704   5.229   4.304  13.032  0.0612 -0.5837  0.6630
 6170TIP3    H142705   5.308   4.323  13.083  1.6069 -0.7438 -1.5150
 6170TIP3    H242706   5.239   4.213  13.004 -0.0072 -0.1072 -1.0331
 6171TIP3   OH242707   3.216   1.571  12.483 -0.2809 -0.7388  0.4849
 6171TIP3    H142708   3.260   1.555  12.400  0.9432 -1.7773  1.2908
 6171TIP3    H242709   3.286   1.567  12.548 -1.4649 -1.9175  1.7668
 6172TIP3   OH242710   5.238   0.725  11.784  0.7239  0.1932 -0.6863
 6172TIP3    H142711   5.283   0.793  11.833 -1.5381  1.3186 -0.0559
 6172TIP3    H242712   5.167   0.697  11.841  0.1596 -1.0184 -1.9219
 6173TIP3   OH242713   1.920   6.546  10.635  0.4417  0.2679  0.0088
 6173TIP3    H142714   1.964   6.630  10.619  0.2356  0.5177  0.7143
 6173TIP3    H242715   1.935   6.496  10.555  1.3277  0.6465 -0.0813
 6174TIP3   OH242716   4.783   6.565  11.395 -0.1472 -0.0334  0.1539
 6174TIP3    H142717   4.830   6.648  11.385  0.1129  0.4504  3.9534
 6174TIP3    H242718   4.839   6.513  11.454 -1.0049 -2.3645 -0.9694
 6175TIP3   OH242719   3.241   5.024  11.420  0.2000 -0.0001 -0.6303
 6175TIP3    H142720   3.307   4.958  11.443  0.8249  0.6042 -0.6736
 6175TIP3    H242721   3.219   5.065  11.503  0.7049  0.5579 -0.7659
 6176TIP3   OH242722   2.832   4.193  10.601  0.1243 -0.0616  0.0848
 6176TIP3    H142723   2.777   4.268  10.625  0.5457  0.0127  0.8656
 6176TIP3    H242724   2.773   4.118  10.606 -0.3339  0.2270 -0.8374
 6177TIP3   OH242725   2.087   3.451  10.514  0.1972  0.6762 -0.5360
 6177TIP3    H142726   2.117   3.382  10.455  0.5443  0.3408  0.0250
 6177TIP3    H242727   2.092   3.412  10.601 -2.4436  0.3845 -0.4356
 6178TIP3   OH242728   4.174   0.099  10.928  0.1326  0.2271 -0.0193
 6178TIP3    H142729   4.184   0.115  11.022 -0.2927  1.7623 -0.1966
 6178TIP3    H242730   4.240   0.155  10.888 -1.5853  1.8469 -0.7249
 6179TIP3   OH242731   5.629   0.281  10.581 -0.0169  0.0579 -0.6203
 6179TIP3    H142732   5.557   0.244  10.633  1.7222 -0.4346  1.5545
 6179TIP3    H242733   5.597   0.367  10.553 -2.2690 -1.0176 -1.6382
 6180TIP3   OH242734   5.189   7.153  10.723 -0.3589 -0.1244 -0.1110
 6180TIP3    H142735   5.231   7.215  10.664 -0.9337 -0.7008 -1.1481
 6180TIP3    H242736   5.121   7.204  10.767 -0.9729 -0.0391 -1.1137
 6181TIP3   OH242737   4.252   3.096  12.045 -0.4433  0.3224  0.2132
 6181TIP3    H142738   4.218   3.184  12.059  0.7288  0.6102  1.4684
 6181TIP3    H242739   4.175   3.044  12.023 -1.2939  1.4660  0.3794
 6182TIP3   OH242740   7.494   7.158  12.422 -0.1230  0.2593  0.1101
 6182TIP3    H142741   7.459   7.247  12.428  0.4867  0.5297 -0.2510
 6182TIP3    H242742   7.428   7.103  12.465 -1.8648  0.4946 -2.1066
 6183TIP3   OH242743   2.901   5.448  13.130 -0.1594 -0.3894  0.1418
 6183TIP3    H142744   2.883   5.537  13.159  0.1664 -0.0800 -0.5686
 6183TIP3    H242745   2.883   5.393  13.206  0.0500  0.3272  0.7138
 6184TIP3   OH242746   1.288   4.520  11.227  0.1975 -0.1809 -0.5919
 6184TIP3    H142747   1.326   4.601  11.260  0.8896 -0.2976 -1.0826
 6184TIP3    H242748   1.349   4.451  11.254 -0.7178 -0.6297  0.3944
 6185TIP3   OH242749   3.608   0.861  13.397 -0.0911 -0.6840 -0.0306
 6185TIP3    H142750   3.653   0.816  13.326 -1.7368  1.3777 -2.5728
 6185TIP3    H242751   3.677   0.884  13.459  1.6603 -1.3492 -1.6403
 6186TIP3   OH242752   5.555   7.468  11.491  0.3567  0.1088  0.1363
 6186TIP3    H142753   5.631   7.433  11.444  0.8163 -0.8403  1.5297
 6186TIP3    H242754   5.519   7.393  11.538 -0.8385  0.7684  0.3134
 6187TIP3   OH242755   4.526   2.425  11.831 -0.0767 -0.0299 -0.7415
 6187TIP3    H142756   4.494   2.354  11.776 -1.5176 -0.2963  0.3451
 6187TIP3    H242757   4.620   2.411  11.839 -0.3267 -1.7767 -0.6206
 6188TIP3   OH242758   7.607   2.615  11.526 -0.3150  0.5377  0.3235
 6188TIP3    H142759   7.604   2.582  11.436 -1.3167  2.2792 -0.3287
 6188TIP3    H242760   7.602   2.711  11.517 -0.4308  0.7549  2.2362
 6189TIP3   OH242761   3.521   1.766  11.454 -0.0413 -0.0557  0.7455
 6189TIP3    H142762   3.426   1.763  11.446  0.0204 -1.6759  0.2150
 6189TIP3    H242763   3.538   1.750  11.547 -0.2937  1.0622  0.9932
 6190TIP3   OH242764   7.420   3.243  11.641 -0.1956  0.6538 -0.3794
 6190TIP3    H142765   7.360   3.303  11.596 -0.2812  1.6371  0.9777
 6190TIP3    H242766   7.367   3.167  11.662 -0.9765  1.4587  0.6899
 6191TIP3   OH242767   1.121   0.868  10.669  0.5383 -0.4101 -0.9995
 6191TIP3    H142768   1.181   0.843  10.599  1.7914  2.5424 -1.1289
 6191TIP3    H242769   1.178   0.899  10.740 -0.7716 -0.3445  0.0661
 6192TIP3   OH242770   6.322   2.299  11.670 -0.1286  0.5423  0.3155
 6192TIP3    H142771   6.361   2.254  11.745 -0.2119 -0.9638 -0.4997
 6192TIP3    H242772   6.354   2.251  11.594 -1.3769  0.9805 -0.5273
 6193TIP3   OH242773   1.275   2.924  10.830 -0.2014  0.5506  0.4187
 6193TIP3    H142774   1.326   2.967  10.899  0.1436 -0.3120  0.7137
 6193TIP3    H242775   1.185   2.956  10.843  0.1223  1.4788  0.3848
 6194TIP3   OH242776   5.617   6.963  10.999  0.3331 -0.0025 -0.3288
 6194TIP3    H142777   5.653   6.960  11.088  1.8401  0.2242 -0.8879
 6194TIP3    H242778   5.569   6.881  10.989  0.0866  0.0035  0.7101
 6195TIP3   OH242779   2.656   3.446  11.893  0.2868  0.2089  0.4341
 6195TIP3    H142780   2.690   3.360  11.917  2.4987  0.9165  0.0588
 6195TIP3    H242781   2.638   3.439  11.799  0.0196  0.0320  0.4961
 6196TIP3   OH242782   6.026   0.040  12.275  0.1975 -0.2144  0.0778
 6196TIP3    H142783   6.078  -0.013  12.336 -1.2945 -1.9062 -0.0262
 6196TIP3    H242784   5.940   0.046  12.316 -0.0789  0.9286 -0.6231
 6197TIP3   OH242785   2.109   1.881  10.316  0.7823 -0.1555 -0.1067
 6197TIP3    H142786   2.061   1.955  10.279  1.2445  0.1168 -0.1722
 6197TIP3    H242787   2.185   1.871  10.259  1.1615 -0.1478  0.3953
 6198TIP3   OH242788   5.610   3.189  12.073 -0.0853 -0.4007 -0.1156
 6198TIP3    H142789   5.689   3.158  12.028 -1.1762 -0.7247 -1.8646
 6198TIP3    H242790   5.604   3.281  12.049  0.3988 -0.0438  1.0320
 6199TIP3   OH242791   4.547   2.341  10.735 -0.9827 -0.5780 -0.4440
 6199TIP3    H142792   4.527   2.430  10.706 -0.8558 -0.4231 -0.0586
 6199TIP3    H242793   4.580   2.297  10.657 -2.2536 -0.6634 -0.9503
 6200TIP3   OH242794   4.571   6.882  11.961 -0.0365 -0.3440 -0.2406
 6200TIP3    H142795   4.595   6.969  11.928  0.7678 -1.1500 -1.9058
 6200TIP3    H242796   4.490   6.860  11.915 -0.5612 -0.2531  0.6191
 6201TIP3   OH242797   7.629   7.145  10.697 -0.1966 -0.0394 -0.0626
 6201TIP3    H142798   7.550   7.163  10.646 -0.9539 -0.7115  0.8369
 6201TIP3    H242799   7.701   7.165  10.637 -0.9982  2.0683 -0.4181
 6202TIP3   OH242800   1.802   5.040  12.720 -0.3300 -0.9222  0.3097
 6202TIP3    H142801   1.834   5.110  12.777 -0.1603  0.4737 -1.4041
 6202TIP3    H242802   1.716   5.017  12.756 -0.2432 -0.0519  1.0936
 6203TIP3   OH242803   7.037   5.185  10.389 -0.5198  0.1917  0.6696
 6203TIP3    H142804   6.967   5.234  10.346 -1.4502 -1.6450 -0.0040
 6203TIP3    H242805   7.009   5.094  10.385  1.4746 -0.5042  1.2400
 6204TIP3   OH242806   7.329   3.056  10.886  0.1833 -0.1873 -0.2002
 6204TIP3    H142807   7.300   3.005  10.810  0.9753  1.1286 -1.4338
 6204TIP3    H242808   7.321   3.147  10.859 -0.7687  0.3745  1.7952
 6205TIP3   OH242809   1.949   1.190  11.813  0.1017 -0.2772 -0.3014
 6205TIP3    H142810   1.959   1.214  11.905 -1.8016 -1.5029  0.2977
 6205TIP3    H242811   2.038   1.179  11.781  0.8154 -1.5012  1.8926
 6206TIP3   OH242812   7.353   7.132  12.829  0.3347  0.0566 -0.3802
 6206TIP3    H142813   7.282   7.190  12.802 -0.5380 -0.9387 -0.3019
 6206TIP3    H242814   7.388   7.173  12.908 -0.7886  0.0840  0.1307
 6207TIP3   OH242815   7.096   7.566  11.657  0.4797  0.1527 -0.2529
 6207TIP3    H142816   7.130   7.581  11.745 -0.1174 -0.5215  0.1018
 6207TIP3    H242817   7.002   7.586  11.664  0.2248 -0.9456 -0.4653
 6208TIP3   OH242818   5.978   4.082  11.651  0.3203 -0.0097 -0.0807
 6208TIP3    H142819   6.001   4.163  11.606  0.6935  1.2156  2.1301
 6208TIP3    H242820   6.039   4.017  11.616 -0.0570  0.6100 -1.9870
 6209TIP3   OH242821   4.727   5.769  10.812  0.3505 -0.0778  0.1473
 6209TIP3    H142822   4.725   5.674  10.803  0.8828 -0.1727  0.9301
 6209TIP3    H242823   4.693   5.786  10.900 -0.6776  0.5217 -0.3481
 6210TIP3   OH242824   2.001   3.670  11.972 -0.6670 -0.5857 -0.0217
 6210TIP3    H142825   2.096   3.663  11.982 -0.6990 -2.4665 -0.6583
 6210TIP3    H242826   1.980   3.757  12.007  0.9987 -0.9856  2.2221
 6211TIP3   OH242827   7.574   5.740  12.136 -0.4094  0.4738  0.1271
 6211TIP3    H142828   7.590   5.734  12.230  1.2752 -0.4454 -0.1824
 6211TIP3    H242829   7.580   5.834  12.117 -0.7808  0.6726  0.9124
 6212TIP3   OH242830   5.148   4.817  12.063  0.0925  0.3738  0.5120
 6212TIP3    H142831   5.183   4.826  11.975  2.6724  0.5980  1.4716
 6212TIP3    H242832   5.066   4.867  12.062  0.5320  1.1304 -1.4878
 6213TIP3   OH242833   6.267   2.263  10.518  0.1402  0.0695  0.0245
 6213TIP3    H142834   6.256   2.347  10.562  0.8160  0.5522 -0.7014
 6213TIP3    H242835   6.181   2.244  10.481 -0.0035  0.4813  0.1365
 6214TIP3   OH242836   0.395   6.360  10.706  0.3809  0.5673  0.6638
 6214TIP3    H142837   0.389   6.287  10.767  0.7365  1.3723  1.6894
 6214TIP3    H242838   0.327   6.421  10.735 -0.4856  0.2988 -0.6929
 6215TIP3   OH242839   0.687   0.972  12.313  0.0203  0.1640  0.2734
 6215TIP3    H142840   0.636   1.017  12.245 -0.3198  1.1305  1.1363
 6215TIP3    H242841   0.778   0.978  12.284 -0.1026  0.7681 -0.0006
 6216TIP3   OH242842   1.179   5.303  10.819  0.6430  0.4303 -0.4783
 6216TIP3    H142843   1.122   5.226  10.824  1.2518 -0.1957 -2.3974
 6216TIP3    H242844   1.133   5.362  10.760  0.5149  1.2798  0.4467
 6217TIP3   OH242845   6.507   0.431  11.346  0.1240  0.5486  0.2126
 6217TIP3    H142846   6.525   0.397  11.434 -0.6172  3.0122  1.3851
 6217TIP3    H242847   6.471   0.355  11.299 -2.0926 -0.2217  2.8725
 6218TIP3   OH242848   0.418   5.206  12.494 -0.1865  0.1755  0.5716
 6218TIP3    H142849   0.407   5.182  12.586 -0.1839  0.6403  0.6935
 6218TIP3    H242850   0.508   5.238  12.488 -0.3066  0.4977  0.4856
 6219TIP3   OH242851   4.997   1.743  10.558 -0.7043 -0.1662  0.5414
 6219TIP3    H142852   4.977   1.804  10.488 -0.3923  0.9197  1.3688
 6219TIP3    H242853   5.057   1.791  10.615  0.8196 -1.7917  0.3905
 6220TIP3   OH242854   7.511   7.502  11.086  0.6133 -0.4277 -0.0507
 6220TIP3    H142855   7.416   7.510  11.094  0.0856 -2.5530 -2.6903
 6220TIP3    H242856   7.543   7.519  11.174 -2.3247 -0.8690  1.2481
 6221TIP3   OH242857   1.486   3.580  11.662  0.0271  0.7735 -0.3608
 6221TIP3    H142858   1.491   3.485  11.647  2.0025  0.3157  2.3828
 6221TIP3    H242859   1.398   3.594  11.698 -0.7913  0.2731 -2.0561
 6222TIP3   OH242860   1.724   5.444  10.795  0.0593 -0.8404  0.4568
 6222TIP3    H142861   1.780   5.367  10.787  0.4370 -0.9421  3.1700
 6222TIP3    H242862   1.639   5.409  10.820 -1.2865 -0.6471 -3.1351
 6223TIP3   OH242863   5.481   3.115  10.377 -0.3201  0.4663  0.4428
 6223TIP3    H142864   5.432   3.159  10.447 -1.1361  1.8247 -0.9356
 6223TIP3    H242865   5.434   3.033  10.362  0.4827 -0.3690  2.1682
 6224TIP3   OH242866   0.531   1.502  11.158  1.3241 -0.2013 -0.8976
 6224TIP3    H142867   0.527   1.591  11.123  0.5883 -0.8304 -2.4846
 6224TIP3    H242868   0.490   1.509  11.245  1.3784  1.0192 -0.9571
 6225TIP3   OH242869   3.217   1.810  10.818 -0.5889  0.3199  0.0919
 6225TIP3    H142870   3.178   1.731  10.781  0.1613 -0.0060 -0.0252
 6225TIP3    H242871   3.261   1.781  10.898 -0.2081  0.5881 -0.0140
 6226TIP3   OH242872   4.405   6.323  11.523 -0.3985  0.3085  0.0138
 6226TIP3    H142873   4.398   6.417  11.537 -1.0985  0.3549 -0.5754
 6226TIP3    H242874   4.366   6.284  11.602  0.0669  0.5066  0.3433
 6227TIP3   OH242875   2.878   6.545  11.193  0.5084  0.0057 -0.1814
 6227TIP3    H142876   2.944   6.563  11.259  0.3020  1.4217 -0.3416
 6227TIP3    H242877   2.847   6.631  11.164 -1.9520 -0.5795  0.4403
 6228TIP3   OH242878   4.871   5.397  13.242 -0.5150 -0.5336 -0.8653
 6228TIP3    H142879   4.822   5.318  13.264 -1.2848 -0.0506 -0.7944
 6228TIP3    H242880   4.846   5.460  13.310  0.4247 -0.3581 -0.6676
 6229TIP3   OH242881   2.013   5.412  11.681  0.6461  0.1084  0.0908
 6229TIP3    H142882   1.923   5.381  11.676  0.0548  1.7973 -0.2467
 6229TIP3    H242883   2.017   5.462  11.762  0.7712  1.4858 -0.7292
 6230TIP3   OH242884   2.524   4.367  10.742  0.8390  0.0646  0.4645
 6230TIP3    H142885   2.588   4.352  10.812  0.4204 -1.6434  0.5136
 6230TIP3    H242886   2.455   4.303  10.758  0.6270 -0.2047 -1.3777
 6231TIP3   OH242887   0.182   1.947  12.494 -0.4425  0.2710  0.0560
 6231TIP3    H142888   0.273   1.971  12.509 -0.2408 -0.1740 -0.4285
 6231TIP3    H242889   0.163   1.981  12.406 -0.1739 -1.2273 -0.6216
 6232TIP3   OH242890   6.582   2.012  10.831  0.5364 -0.3197  0.3579
 6232TIP3    H142891   6.514   2.069  10.866  0.4888 -0.7717  1.0107
 6232TIP3    H242892   6.640   2.071  10.782  1.2915  0.5358  2.1960
 6233TIP3   OH242893   2.709   1.187  10.627  0.1964  0.0186  0.1713
 6233TIP3    H142894   2.740   1.201  10.537 -0.5875 -2.3696 -0.5573
 6233TIP3    H242895   2.775   1.130  10.666  0.3765  0.8025  1.0343
 6234TIP3   OH242896   3.649   7.636  13.228 -0.1437 -0.3912  0.4468
 6234TIP3    H142897   3.669   7.700  13.296  0.2691 -0.2938  0.2378
 6234TIP3    H242898   3.724   7.640  13.168 -0.3838 -0.6531  0.1208
 6235TIP3   OH242899   6.907   4.527  11.979 -0.0558  0.2720 -0.1297
 6235TIP3    H142900   6.861   4.571  12.051 -0.4621  1.2656 -0.9714
 6235TIP3    H242901   6.859   4.553  11.900 -0.2569 -1.6360 -0.6906
 6236TIP3   OH242902   7.542   6.620  12.610 -0.1165  0.1834 -0.0386
 6236TIP3    H142903   7.522   6.694  12.667 -0.9904 -0.6281  0.7308
 6236TIP3    H242904   7.602   6.565  12.660  2.8989  1.7052 -1.6655
 6237TIP3   OH242905   6.139   2.912  11.067 -0.1015  0.2338 -0.1584
 6237TIP3    H142906   6.138   2.819  11.042  0.8062 -0.1053  0.9848
 6237TIP3    H242907   6.140   2.911  11.163  0.9873  1.4038 -0.1295
 6238TIP3   OH242908   6.935   4.608  13.114  0.4669  0.6391 -0.1901
 6238TIP3    H142909   6.850   4.582  13.079 -0.3636  0.8309  1.6009
 6238TIP3    H242910   6.983   4.526  13.124  0.1904  0.4498 -0.3952
 6239TIP3   OH242911   1.264   3.613  12.587  0.1527  0.1561  0.1659
 6239TIP3    H142912   1.249   3.556  12.662 -0.0821  0.9602  0.7327
 6239TIP3    H242913   1.320   3.561  12.528 -0.0199 -0.6333  0.6938
 6240TIP3   OH242914   1.086   1.397  11.028 -0.0333  0.0521  0.4708
 6240TIP3    H142915   1.164   1.437  10.990 -0.6770  1.3943  0.4960
 6240TIP3    H242916   1.021   1.398  10.957 -0.4731  0.2858  0.8705
 6241TIP3   OH242917   3.275   6.253  10.678  0.1741  0.6778  0.6756
 6241TIP3    H142918   3.314   6.289  10.599  0.8739  0.3786  0.8767
 6241TIP3    H242919   3.184   6.284  10.677 -0.5223 -1.1536 -1.4178
 6242TIP3   OH242920   6.651   0.197  10.676 -0.1985 -0.6220  0.1747
 6242TIP3    H142921   6.596   0.261  10.630  1.1626  0.4899  0.0351
 6242TIP3    H242922   6.661   0.232  10.764  0.3656 -0.7669  0.1721
 6243TIP3   OH242923   0.994   1.641  11.701  0.6424 -0.4786 -0.2015
 6243TIP3    H142924   0.903   1.654  11.675  0.3284  0.3123  1.1841
 6243TIP3    H242925   0.990   1.624  11.795  1.5938 -4.6194 -0.6962
 6244TIP3   OH242926   6.343   4.990  10.792 -0.2725 -0.2748 -0.1961
 6244TIP3    H142927   6.328   4.927  10.862  2.3425  0.2958  0.9986
 6244TIP3    H242928   6.312   4.946  10.713 -1.7485 -1.6062  1.0639
 6245TIP3   OH242929   5.232   7.553  11.486 -0.1105 -0.1043  0.2166
 6245TIP3    H142930   5.271   7.470  11.459  0.5248 -0.7474  2.7679
 6245TIP3    H242931   5.162   7.569  11.423  0.6004 -1.8828 -1.1130
 6246TIP3   OH242932   0.309   6.922  12.484  0.2818  0.5339  1.1030
 6246TIP3    H142933   0.332   6.876  12.565  2.3761 -2.7580 -1.1105
 6246TIP3    H242934   0.247   6.864  12.440 -0.8061  2.2414  0.2574
 6247TIP3   OH242935   1.963   2.826  10.137 -0.3859 -0.6139  0.1225
 6247TIP3    H142936   1.977   2.886  10.063 -0.0402 -0.9663 -0.1008
 6247TIP3    H242937   1.914   2.878  10.201  0.3467  0.0704  0.1418
 6248TIP3   OH242938   1.177   2.775  12.709 -0.4221 -0.5717  0.2937
 6248TIP3    H142939   1.232   2.736  12.776 -2.1258 -2.3126  0.7879
 6248TIP3    H242940   1.152   2.860  12.744  0.0466 -0.7731  1.1303
 6249TIP3   OH242941   6.675   2.359  11.322 -0.8734 -0.6272  0.0989
 6249TIP3    H142942   6.653   2.435  11.269  1.2892 -1.0412 -1.5558
 6249TIP3    H242943   6.730   2.394  11.393  1.1777 -0.6685 -1.3606
 6250TIP3   OH242944   0.025   5.268  11.139 -0.1140 -0.5384  0.8529
 6250TIP3    H142945  -0.001   5.327  11.069 -1.5795  1.5218  2.9974
 6250TIP3    H242946  -0.041   5.199  11.139 -1.3652  0.6252  1.5268
 6251TIP3   OH242947   7.228   6.141  12.393  0.5395  0.2536 -0.0474
 6251TIP3    H142948   7.166   6.176  12.458  1.7710 -0.7676  1.7547
 6251TIP3    H242949   7.215   6.196  12.316 -2.8395 -0.1098  0.0932
 6252TIP3   OH242950   4.211   4.653  11.210  0.0720  0.0407  0.3016
 6252TIP3    H142951   4.244   4.736  11.245  1.7815 -1.0024  1.2393
 6252TIP3    H242952   4.154   4.619  11.280  0.1271 -0.0359  0.3084
 6253TIP3   OH242953   1.225   2.520  10.939 -0.1647 -0.3546 -0.3951
 6253TIP3    H142954   1.202   2.433  10.906 -1.9658 -0.1275  0.1578
 6253TIP3    H242955   1.141   2.564  10.951  0.7196  1.7732 -1.4138
 6254TIP3   OH242956   6.800   4.223  12.551 -0.5907 -1.2677  0.1591
 6254TIP3    H142957   6.895   4.219  12.556 -0.4361 -1.0116 -1.7132
 6254TIP3    H242958   6.774   4.275  12.627  0.7054 -1.8674  1.0352
 6255TIP3   OH242959   0.308   6.485  12.213  0.7881 -0.2938 -0.3409
 6255TIP3    H142960   0.252   6.447  12.281  0.8884  1.3857  0.7538
 6255TIP3    H242961   0.246   6.527  12.153  0.7558 -0.4766 -0.4325
 6256TIP3   OH242962   6.963   3.120  10.475 -0.1988 -0.4221  0.3326
 6256TIP3    H142963   6.941   3.187  10.540  0.6089  1.0729 -0.8396
 6256TIP3    H242964   6.912   3.043  10.500 -2.2697  1.0590  0.9542
 6257TIP3   OH242965   4.013   6.915  12.218 -0.6074  0.0783 -0.1739
 6257TIP3    H142966   3.955   6.919  12.141  0.9158 -0.4518 -1.4027
 6257TIP3    H242967   4.090   6.867  12.187 -0.4948 -1.2956  2.0843
 6258TIP3   OH242968   3.092   3.847  11.718 -0.4171  0.0839  0.2369
 6258TIP3    H142969   3.179   3.823  11.686 -0.7399  0.6874 -1.1517
 6258TIP3    H242970   3.105   3.866  11.811  0.8504 -0.2076  0.1366
 6259TIP3   OH242971   2.545   0.853  11.307 -0.1425 -0.2224  0.4742
 6259TIP3    H142972   2.580   0.800  11.236  0.7236  0.2045  0.5666
 6259TIP3    H242973   2.450   0.843  11.300 -0.0269 -1.1093 -0.0181
 6260TIP3   OH242974   0.573   1.143  11.529  0.3433 -0.0610  1.0252
 6260TIP3    H142975   0.599   1.193  11.451 -2.0824  0.8690  0.7269
 6260TIP3    H242976   0.542   1.210  11.590  1.6700 -0.8325  2.6363
 6261TIP3   OH242977   5.091   5.609  11.002 -0.0852  0.2302 -0.5141
 6261TIP3    H142978   5.021   5.562  10.955 -0.2166 -0.4040  0.2993
 6261TIP3    H242979   5.050   5.691  11.028 -0.1871  0.3418 -1.0187
 6262TIP3   OH242980   5.011   7.211  11.528 -0.0757  0.3150 -0.1830
 6262TIP3    H142981   4.931   7.261  11.511 -0.0240 -0.4182 -3.1608
 6262TIP3    H242982   4.995   7.166  11.611 -1.6599  2.2011  0.6117
 6263TIP3   OH242983   0.421   5.147  12.026 -0.1673 -0.0682  0.1690
 6263TIP3    H142984   0.409   5.067  11.974  0.4786 -1.0089  1.4189
 6263TIP3    H242985   0.484   5.122  12.094 -1.2553  1.0181  1.6194
 6264TIP3   OH242986   1.312   2.086  10.647 -0.0800  0.0865  0.0382
 6264TIP3    H142987   1.243   2.058  10.586 -0.0237 -1.2859  0.5835
 6264TIP3    H242988   1.265   2.124  10.721 -0.2320 -0.3274  0.1551
 6265TIP3   OH242989   1.518   0.805  12.251 -0.5261  0.0512  0.0169
 6265TIP3    H142990   1.433   0.785  12.289 -1.6349  0.6826 -1.9708
 6265TIP3    H242991   1.498   0.852  12.170  1.6577 -1.0281 -1.2558
 6266TIP3   OH242992   3.934   4.853  10.458  0.4094  0.0178 -0.3279
 6266TIP3    H142993   3.859   4.908  10.481  0.8622  0.2901  0.5377
 6266TIP3    H242994   3.896   4.771  10.426 -0.2590  0.4367 -0.6239
 6267TIP3   OH242995   1.773   3.142  11.966  0.4998  0.9412 -1.0467
 6267TIP3    H142996   1.847   3.201  11.983  1.1110 -0.1038  0.1074
 6267TIP3    H242997   1.807   3.079  11.902  0.9009 -0.0223  0.0859
 6268TIP3   OH242998   5.170   1.874  10.730  0.1105 -0.0715  0.7360
 6268TIP3    H142999   5.126   1.848  10.811 -1.4227 -2.8733 -0.8427
 6268TIP3    H243000   5.245   1.815  10.723 -0.0546 -0.1943 -0.1090
 6269TIP3   OH243001   4.712   1.513  10.437  0.3359 -1.1025  0.2039
 6269TIP3    H143002   4.620   1.512  10.463  0.5936  1.1913  1.5194
 6269TIP3    H243003   4.758   1.469  10.508  0.4433 -0.3106  0.6350
 6270TIP3   OH243004   4.802   3.904  10.567 -0.1822 -0.3245  0.6996
 6270TIP3    H143005   4.884   3.861  10.592 -0.0670 -0.5025  0.0160
 6270TIP3    H243006   4.763   3.846  10.501  0.0405  0.6880 -0.3533
 6271TIP3   OH243007   0.359   4.107  12.255  0.0680  0.2494 -0.3775
 6271TIP3    H143008   0.311   4.030  12.227  1.2829 -0.6047 -0.1833
 6271TIP3    H243009   0.445   4.099  12.214 -0.4046  2.5481 -2.0003
 6272TIP3   OH243010   6.042   2.226  11.668 -0.1290  0.6564  0.3837
 6272TIP3    H143011   6.079   2.156  11.722 -1.6774  0.8868  1.8124
 6272TIP3    H243012   6.118   2.277  11.641  0.7548  0.2282  1.9175
 6273TIP3   OH243013   5.618   0.575  11.400  0.4199  0.2896 -0.4207
 6273TIP3    H143014   5.605   0.541  11.489  1.6122 -0.2549 -0.4420
 6273TIP3    H243015   5.628   0.498  11.345 -0.0270  0.6317 -0.9923
 6274TIP3   OH243016   1.187   0.481  11.271 -0.2407 -0.2875 -0.1452
 6274TIP3    H143017   1.183   0.404  11.214  0.0143  1.8195 -3.2978
 6274TIP3    H243018   1.278   0.483  11.301 -0.2644 -1.2201  0.0370
 6275TIP3   OH243019   0.991   6.719  11.139 -0.0554  0.1682 -0.1820
 6275TIP3    H143020   1.018   6.652  11.076  0.4084  0.0086  0.1797
 6275TIP3    H243021   1.052   6.791  11.123 -0.4469  0.4433 -0.4555
 6276TIP3   OH243022   3.902   6.858  10.586  0.0860 -0.2524 -0.0066
 6276TIP3    H143023   3.969   6.792  10.567 -2.3463 -2.9468  0.0997
 6276TIP3    H243024   3.911   6.874  10.680 -0.8721 -2.5154  0.5607
 6277TIP3   OH243025   1.311   2.253  12.965 -0.2750  0.2018  0.1202
 6277TIP3    H143026   1.328   2.162  12.987  0.0552 -0.2020 -1.6384
 6277TIP3    H243027   1.374   2.273  12.895  0.3548  2.0956  1.1252
 6278TIP3   OH243028   7.386   0.643  12.097 -0.4676  0.0985 -0.4769
 6278TIP3    H143029   7.377   0.733  12.067  1.2291  0.5740  0.3406
 6278TIP3    H243030   7.297   0.616  12.119 -0.9455  1.7494 -0.2545
 6279TIP3   OH243031   7.251   3.256  10.374  0.1045 -0.1806  0.2402
 6279TIP3    H143032   7.157   3.267  10.385  0.1567  0.0239  0.4954
 6279TIP3    H243033   7.290   3.330  10.422  0.3966 -0.3186  0.2209
 6280TIP3   OH243034   4.615   5.490  10.839  0.7201  0.3716  0.3411
 6280TIP3    H143035   4.695   5.454  10.876  1.8912  1.8254 -0.6256
 6280TIP3    H243036   4.594   5.432  10.765  1.7614  0.8010 -0.3146
 6281TIP3   OH243037   0.559   3.677  12.556 -0.1515  0.3898  0.1731
 6281TIP3    H143038   0.552   3.585  12.532  1.2312 -0.1673  1.6844
 6281TIP3    H243039   0.486   3.692  12.616 -1.3836  0.7656 -1.3868
 6282TIP3   OH243040   2.993   7.603  10.603 -0.4141 -0.6545  0.5796
 6282TIP3    H143041   3.028   7.684  10.639 -1.7085  0.4501 -0.5266
 6282TIP3    H243042   3.065   7.541  10.609  0.3618  0.3351  2.1895
 6283TIP3   OH243043   0.919   4.538  12.013  0.1269  0.5065  0.4143
 6283TIP3    H143044   0.943   4.613  12.067 -2.5942  0.9716  1.1529
 6283TIP3    H243045   0.879   4.476  12.075  0.3762 -0.5992 -0.5090
 6284TIP3   OH243046   0.998   5.863  11.576  0.1510  0.4669  0.0954
 6284TIP3    H143047   1.074   5.853  11.633  0.3098 -0.0426 -0.1986
 6284TIP3    H243048   0.997   5.783  11.523 -0.8885  0.2273  0.4571
 6285TIP3   OH243049   7.040   3.544  12.416 -0.7257  0.2263  0.0713
 6285TIP3    H143050   7.017   3.633  12.444  0.5983  0.7719 -0.4664
 6285TIP3    H243051   7.086   3.557  12.333  1.3655 -0.7375  1.0051
 6286TIP3   OH243052   1.957   4.541  12.689 -0.2386  0.0934 -0.0894
 6286TIP3    H143053   1.996   4.625  12.663 -0.8048 -0.1855 -1.9301
 6286TIP3    H243054   1.932   4.555  12.781  0.7643  1.5232  0.0086
 6287TIP3   OH243055   0.289   2.866  11.454  0.5245  0.2277  0.3315
 6287TIP3    H143056   0.262   2.913  11.375  0.7727 -1.0693 -0.5577
 6287TIP3    H243057   0.257   2.777  11.442  1.3448 -0.2256  1.2840
 6288TIP3   OH243058   1.957   3.666  11.471 -0.6702  0.1260  0.2099
 6288TIP3    H143059   2.032   3.725  11.475  0.3306 -1.1086  0.5659
 6288TIP3    H243060   1.934   3.652  11.563 -0.0630 -1.0175  0.2064
 6289TIP3   OH243061   2.158   6.720  10.783  0.0287  0.0285  0.2547
 6289TIP3    H143062   2.207   6.797  10.811  0.2171 -0.0205  0.0695
 6289TIP3    H243063   2.128   6.741  10.694  0.5782 -0.3322 -0.0263
 6290TIP3   OH243064   0.499   7.550  11.852 -0.2062  0.3395  0.0238
 6290TIP3    H143065   0.537   7.630  11.815 -1.0965  0.7853  0.0233
 6290TIP3    H243066   0.571   7.488  11.855  0.7141  1.3957  0.7693
 6291TIP3   OH243067   2.599   2.843  12.908 -0.2574  0.4990  0.3352
 6291TIP3    H143068   2.665   2.790  12.954 -0.9819 -1.1810 -0.4670
 6291TIP3    H243069   2.521   2.787  12.907 -0.3013  0.4821 -2.8277
 6292TIP3   OH243070   2.833   3.289  11.514 -0.0050 -0.3869  0.2736
 6292TIP3    H143071   2.871   3.359  11.462 -0.1956  0.0373  0.6945
 6292TIP3    H243072   2.900   3.269  11.580 -0.9237  1.1533  1.7388
 6293TIP3   OH243073   7.260   2.341  12.566 -0.1201  0.4804  0.7610
 6293TIP3    H143074   7.342   2.385  12.544  0.1858  0.2293  1.3681
 6293TIP3    H243075   7.287   2.262  12.613 -0.6753 -0.1572  0.0262
 6294TIP3   OH243076   3.096   4.160  10.528  0.1962  0.0971 -0.1048
 6294TIP3    H143077   3.126   4.235  10.579  2.0118 -1.4142  1.2127
 6294TIP3    H243078   3.009   4.141  10.563  0.3903  0.6201  0.6988
 6295TIP3   OH243079   4.764   4.114  10.397 -0.3840 -0.2233 -0.0006
 6295TIP3    H143080   4.859   4.124  10.391 -0.1929 -1.5683  0.4021
 6295TIP3    H243081   4.751   4.064  10.478 -1.3805 -0.6743 -0.4348
 6296TIP3   OH243082   2.467   1.309  10.692 -0.0336 -0.3117  0.0920
 6296TIP3    H143083   2.551   1.269  10.672  0.7570  1.3654 -0.1026
 6296TIP3    H243084   2.406   1.271  10.628  0.4139 -1.9555  0.5873
 6297TIP3   OH243085   5.724   0.670  10.995  0.7807 -0.2135 -0.4298
 6297TIP3    H143086   5.653   0.663  11.058 -0.2808 -0.5121 -1.6225
 6297TIP3    H243087   5.803   0.650  11.045 -0.0180 -0.3093  0.8200
 6298TIP3   OH243088   4.339   3.898  12.836  0.2179 -0.3811 -0.0449
 6298TIP3    H143089   4.261   3.890  12.780  0.1813 -0.1193 -0.0327
 6298TIP3    H243090   4.305   3.888  12.925 -0.2095  2.1794  0.1499
 6299TIP3   OH243091   1.620   1.446  10.740  0.4080 -0.0231  0.4015
 6299TIP3    H143092   1.653   1.503  10.671 -1.8880  0.4775 -0.3778
 6299TIP3    H243093   1.697   1.397  10.770  1.7795  0.9629 -1.3131
 6300TIP3   OH243094   6.343   3.837  12.643 -0.6141 -0.2734  0.0252
 6300TIP3    H143095   6.267   3.858  12.588 -0.4166  0.8237  0.1521
 6300TIP3    H243096   6.305   3.802  12.724 -1.0408  1.0970  0.4420
 6301TIP3   OH243097   6.032   0.834  12.318 -0.3647  0.0736 -0.2037
 6301TIP3    H143098   5.949   0.791  12.341 -0.5202  0.6385  0.3012
 6301TIP3    H243099   6.075   0.850  12.402 -0.1210  0.5327 -0.4127
 6302TIP3   OH243100   3.514   6.560  11.214 -0.1869  0.4720 -0.2336
 6302TIP3    H143101   3.420   6.542  11.213 -0.4112  1.4353  0.9424
 6302TIP3    H243102   3.548   6.516  11.136 -1.9267  1.8135 -1.8434
 6303TIP3   OH243103   6.575   2.859  12.317  0.4165  0.1699  0.1097
 6303TIP3    H143104   6.560   2.931  12.256  2.8005  0.6264 -0.0253
 6303TIP3    H243105   6.631   2.896  12.385  1.7899 -1.5490 -0.0059
 6304TIP3   OH243106   6.369   2.003  11.972 -0.5257 -0.0963 -0.1469
 6304TIP3    H143107   6.282   1.975  11.943 -0.4978  0.4598 -0.8009
 6304TIP3    H243108   6.429   1.941  11.930 -0.5232  0.3550 -0.8189
 6305TIP3   OH243109   7.443   6.481  11.473 -0.0636  0.1340 -0.3256
 6305TIP3    H143110   7.426   6.389  11.493 -0.8779  0.4527  0.5289
 6305TIP3    H243111   7.434   6.488  11.378  1.7543 -0.9973 -0.6316
 6306TIP3   OH243112   4.471   1.497  10.561  0.6121  0.5091 -0.2361
 6306TIP3    H143113   4.411   1.424  10.551  1.0695  0.1892 -0.6577
 6306TIP3    H243114   4.519   1.478  10.642 -0.4083  1.1766  0.5558
 6307TIP3   OH243115   5.313   3.407  10.947  0.2820  0.0229 -0.6005
 6307TIP3    H143116   5.340   3.450  10.865  0.1347 -0.4363 -0.8967
 6307TIP3    H243117   5.395   3.391  10.994  0.3523  0.4603 -0.5706
 6308TIP3   OH243118   3.729   5.798  11.783  0.0934 -0.1367  0.7091
 6308TIP3    H143119   3.724   5.870  11.721 -0.9421 -1.9558 -1.4519
 6308TIP3    H243120   3.815   5.807  11.824  0.8310  1.1244 -1.0165
 6309TIP3   OH243121   1.160   3.084  11.059 -0.0359 -0.7333  0.1747
 6309TIP3    H143122   1.135   3.005  11.107 -0.8464  0.1860  1.3074
 6309TIP3    H243123   1.170   3.151  11.126 -0.7719  0.4751 -0.8769
 6310TIP3   OH243124   4.766   3.841  11.691 -0.6072 -0.3449 -0.3278
 6310TIP3    H143125   4.710   3.880  11.625  0.6024 -0.1190 -1.2508
 6310TIP3    H243126   4.737   3.880  11.773 -1.4855  0.0966 -0.8385
 6311TIP3   OH243127   0.577   3.056  11.980 -0.2034  0.0957  0.4463
 6311TIP3    H143128   0.487   3.080  11.956 -0.0332 -0.2663 -0.6012
 6311TIP3    H243129   0.616   3.138  12.010 -0.3943  0.6263 -0.6930
 6312TIP3   OH243130   3.782   2.695  12.292 -0.3457  0.1553  0.0680
 6312TIP3    H143131   3.852   2.728  12.235 -0.0440 -0.8813 -0.1908
 6312TIP3    H243132   3.806   2.725  12.379  1.6236 -1.9664  0.3416
 6313TIP3   OH243133   5.966   2.636  11.517 -0.2784  0.4277  0.1818
 6313TIP3    H143134   5.924   2.596  11.594 -1.4203  1.3313  0.0629
 6313TIP3    H243135   6.023   2.568  11.483 -2.0177 -1.0789  0.0872
 6314TIP3   OH243136   5.629   1.331  11.638  0.6623  0.0330 -0.3114
 6314TIP3    H143137   5.659   1.300  11.724 -0.4996  1.3293  0.6094
 6314TIP3    H243138   5.664   1.267  11.576  3.7583  0.4651  0.8230
 6315TIP3   OH243139   7.059   4.381  11.770 -0.2384  0.9175 -0.1880
 6315TIP3    H143140   7.022   4.469  11.762  0.2727  1.0480 -1.3109
 6315TIP3    H243141   7.016   4.330  11.701  0.9914  0.8467 -0.9361
 6316TIP3   OH243142   3.011   2.974  10.773  0.0086 -0.0362 -0.4054
 6316TIP3    H143143   2.951   2.919  10.822 -1.3348  0.2604 -1.6592
 6316TIP3    H243144   2.968   3.059  10.768  1.6121  0.8833  0.6676
 6317TIP3   OH243145   6.758   0.925  10.633 -0.8586 -0.6377  0.0152
 6317TIP3    H143146   6.848   0.932  10.600 -0.2403  1.7824  1.9252
 6317TIP3    H243147   6.710   0.992  10.584 -1.5862 -1.6275 -0.6815
 6318TIP3   OH243148   0.473   4.608  12.625 -0.0771  0.6206  0.0718
 6318TIP3    H143149   0.454   4.515  12.609  0.0510  0.7544 -0.8883
 6318TIP3    H243150   0.489   4.613  12.720  0.9318 -0.5342 -0.0065
 6319TIP3   OH243151   0.216   5.535  12.675  0.0366  0.1550 -0.6927
 6319TIP3    H143152   0.310   5.534  12.694  0.0933  0.4162 -0.9387
 6319TIP3    H243153   0.188   5.444  12.685  0.0496  0.2819  0.6656
 6320TIP3   OH243154   4.716   1.615  12.846 -0.4000  0.1765 -0.2234
 6320TIP3    H143155   4.791   1.588  12.899 -0.1987 -0.2670 -0.7289
 6320TIP3    H243156   4.652   1.545  12.856 -1.7848  1.6250  2.1446
 6321TIP3   OH243157   4.282   4.204  10.574 -0.2819 -0.3022 -0.4222
 6321TIP3    H143158   4.297   4.270  10.506  1.0016 -0.4091 -0.2571
 6321TIP3    H243159   4.211   4.150  10.539  0.2253 -0.2461 -1.5984
 6322TIP3   OH243160   4.057   2.745  11.367  0.2956  0.7333 -0.0251
 6322TIP3    H143161   3.965   2.731  11.391  0.2717  1.5809  0.4146
 6322TIP3    H243162   4.106   2.694  11.431  0.1289 -0.1090 -0.5511
 6323TIP3   OH243163   7.214   2.783  11.731  0.4656 -0.6528  0.1588
 6323TIP3    H143164   7.138   2.737  11.767 -0.0846  0.6620  0.7474
 6323TIP3    H243165   7.216   2.757  11.639 -3.0215  2.0720 -0.9240
 6324TIP3   OH243166   7.130   6.561  12.012  0.0075  0.2709 -0.2887
 6324TIP3    H143167   7.104   6.590  12.100 -2.0276 -0.5942 -0.5451
 6324TIP3    H243168   7.084   6.621  11.953 -0.2401 -0.3960 -0.7733
 6325TIP3   OH243169   7.002   2.709  11.893  0.6808  0.7514  0.7578
 6325TIP3    H143170   6.951   2.790  11.898  2.3689  1.8898  0.6622
 6325TIP3    H243171   7.074   2.723  11.954  2.1120  0.1822 -0.7217
 6326TIP3   OH243172   7.157   6.847  10.502  0.5673 -0.1675  0.2219
 6326TIP3    H143173   7.086   6.894  10.459 -0.6391 -1.5651  0.6226
 6326TIP3    H243174   7.118   6.810  10.581  1.5997 -1.3878  0.2003
 6327TIP3   OH243175   0.211   5.472  10.648  0.2877 -0.4512 -0.3767
 6327TIP3    H143176   0.179   5.561  10.634 -0.6043 -0.5144  1.1140
 6327TIP3    H243177   0.133   5.417  10.640  0.3466 -0.8171  1.3264
 6328TIP3   OH243178   5.497   0.802  11.676  0.0011 -0.0289  1.0203
 6328TIP3    H143179   5.537   0.745  11.741 -0.7057 -0.1579  1.3575
 6328TIP3    H243180   5.407   0.771  11.669  0.1913 -0.3251 -0.3873
 6329TIP3   OH243181   1.651   3.278  12.789  0.4874 -0.5421  0.1455
 6329TIP3    H143182   1.630   3.350  12.849  0.3933 -0.0618 -0.4423
 6329TIP3    H243183   1.588   3.209  12.810  0.9400 -0.6740  1.0943
 6330TIP3   OH243184   2.992   2.008  10.823  0.0854 -0.8793 -0.3460
 6330TIP3    H143185   3.036   2.081  10.867 -0.2731  0.3386 -1.9266
 6330TIP3    H243186   3.064   1.950  10.796  0.3406 -1.3964  1.3380
 6331TIP3   OH243187   2.597   6.607  12.009  0.0273 -0.0814 -0.4000
 6331TIP3    H143188   2.670   6.613  12.071 -0.6910  2.7663  0.3041
 6331TIP3    H243189   2.635   6.564  11.932  2.0972  0.1773  0.4081
 6332TIP3   OH243190   7.058   7.651  12.144  0.1131  0.1824  0.0558
 6332TIP3    H143191   7.041   7.606  12.227  1.9287 -0.0091  0.3722
 6332TIP3    H243192   7.059   7.744  12.167  0.9620  0.1116  0.3416
 6333TIP3   OH243193   7.127   4.129  11.154  0.1254  0.4763  0.2786
 6333TIP3    H143194   7.133   4.074  11.076  0.8369  1.3976 -0.3485
 6333TIP3    H243195   7.063   4.196  11.130  0.2941  0.7229  0.5142
 6334TIP3   OH243196   2.477   3.871  10.994  0.6294 -0.1134  0.1985
 6334TIP3    H143197   2.452   3.903  11.081 -0.0163  0.2049 -0.0953
 6334TIP3    H243198   2.573   3.879  10.993  0.6837 -0.5456  1.0380
 6335TIP3   OH243199   7.193   3.717  10.562  0.2455 -0.4315 -0.0861
 6335TIP3    H143200   7.108   3.759  10.565 -0.6862 -2.2384  0.3681
 6335TIP3    H243201   7.256   3.789  10.566 -1.2213  1.0244 -1.9144
 6336TIP3   OH243202   3.187   6.148  12.233 -0.5477  0.1987  0.4870
 6336TIP3    H143203   3.198   6.236  12.197  0.3667 -0.0946  0.0049
 6336TIP3    H243204   3.144   6.099  12.164 -0.4285  0.0916  0.4883
 6337TIP3   OH243205   0.209   3.506  11.579  0.1138 -0.6542 -0.5995
 6337TIP3    H143206   0.242   3.507  11.489 -0.5185  0.5942 -0.8303
 6337TIP3    H243207   0.114   3.510  11.570  0.0725  0.3799  0.1252
 6338TIP3   OH243208   2.222   0.555  10.348 -0.0485 -0.2471  0.9203
 6338TIP3    H143209   2.303   0.505  10.336  0.0157  0.1741 -0.5593
 6338TIP3    H243210   2.156   0.489  10.368  0.2593 -0.8239  0.0877
 6339TIP3   OH243211   6.237   7.346  10.797 -0.1614  0.3468 -0.4244
 6339TIP3    H143212   6.292   7.295  10.737 -1.6344 -1.9143  0.0315
 6339TIP3    H243213   6.149   7.341  10.759 -0.5770  1.4381  0.3659
 6340TIP3   OH243214   0.794   5.845  11.817 -0.5734  0.2831  0.0950
 6340TIP3    H143215   0.827   5.800  11.740 -0.6263 -1.1504  0.8807
 6340TIP3    H243216   0.748   5.778  11.867 -1.9279  1.5320  0.6066
 6341TIP3   OH243217   5.117   0.749  10.619  0.0614 -0.2669  0.0240
 6341TIP3    H143218   5.156   0.829  10.655  1.0668 -0.4913 -0.5622
 6341TIP3    H243219   5.040   0.734  10.675  0.7200  0.2487  1.1045
 6342TIP3   OH243220   6.006   5.238  12.691  0.1303  0.1078 -0.2721
 6342TIP3    H143221   5.941   5.287  12.742 -0.2856 -2.0397  1.4107
 6342TIP3    H243222   6.088   5.286  12.703 -0.5511  1.2291  0.0266
 6343TIP3   OH243223   7.562   0.031  10.926  0.6492 -0.3811 -0.0908
 6343TIP3    H143224   7.536  -0.053  10.963  1.1200 -0.0761  0.9758
 6343TIP3    H243225   7.649   0.047  10.962 -0.2594  1.5164  1.3996
 6344TIP3   OH243226   1.817   4.113  11.833  0.1086 -0.0631 -0.6571
 6344TIP3    H143227   1.838   4.110  11.740 -0.0495 -1.7135 -0.6670
 6344TIP3    H243228   1.729   4.076  11.839  0.3745 -0.5927  0.2072
 6345TIP3   OH243229   6.976   5.450  10.448  0.6964  0.1059 -0.5939
 6345TIP3    H143230   7.069   5.431  10.444  0.5355 -0.5274 -2.7597
 6345TIP3    H243231   6.940   5.385  10.508  1.8779  1.7325  2.0514
 6346TIP3   OH243232   3.301   1.161  11.143  0.2292  0.4604  0.2434
 6346TIP3    H143233   3.347   1.085  11.107  0.2762 -0.0267  1.2996
 6346TIP3    H243234   3.271   1.209  11.066 -1.4529 -1.6184 -0.5158
 6347TIP3   OH243235   1.349   2.198  11.308  0.2278 -0.1715  0.4367
 6347TIP3    H143236   1.294   2.142  11.255  0.3177 -1.7255  1.8932
 6347TIP3    H243237   1.369   2.273  11.252 -2.6851  0.0783 -0.3980
 6348TIP3   OH243238   3.872   4.905  11.847  0.6856  0.4801 -0.1234
 6348TIP3    H143239   3.923   4.900  11.929  1.6885  2.6900 -0.5225
 6348TIP3    H243240   3.934   4.878  11.779 -0.0864 -1.1572 -0.2111
 6349TIP3   OH243241   3.870   2.423  12.164  0.2303  0.5414  0.0434
 6349TIP3    H143242   3.902   2.506  12.198  1.6502 -0.4295  1.1961
 6349TIP3    H243243   3.868   2.365  12.241  0.3585 -0.7978 -0.9279
 6350TIP3   OH243244   3.853   3.908  12.484 -0.0949 -0.0064  0.1963
 6350TIP3    H143245   3.855   3.957  12.402 -1.5786  0.0715  0.1892
 6350TIP3    H243246   3.941   3.869  12.490  1.0274  2.3364  0.0370
 6351TIP3   OH243247   1.252   7.286  11.073  0.4048 -0.3075 -0.0169
 6351TIP3    H143248   1.289   7.216  11.127  2.0694 -0.8194 -1.7224
 6351TIP3    H243249   1.249   7.250  10.985 -1.1574  0.9002 -0.5141
 6352TIP3   OH243250   3.905   2.250  12.782 -0.0174  0.1854 -0.3196
 6352TIP3    H143251   3.971   2.185  12.807 -0.3082  0.1107  0.3010
 6352TIP3    H243252   3.829   2.229  12.838 -1.0465 -0.5673 -1.9251
 6353TIP3   OH243253   3.949   3.546  12.388  0.5948  0.0582 -0.0648
 6353TIP3    H143254   3.946   3.608  12.460  1.9514  0.3621 -0.2442
 6353TIP3    H243255   4.042   3.539  12.365  0.1731  0.3791 -2.1189
 6354TIP3   OH243256   4.681   0.441  11.376  0.4028  0.2689 -0.4121
 6354TIP3    H143257   4.676   0.450  11.281  0.8809  0.2060 -0.4454
 6354TIP3    H243258   4.628   0.512  11.410  1.4287  1.2072 -0.7098
 6355TIP3   OH243259   0.637   0.167  11.446 -0.4127  0.1073 -0.8398
 6355TIP3    H143260   0.641   0.262  11.451  0.3435  0.0622 -0.3362
 6355TIP3    H243261   0.619   0.139  11.536  1.2518 -0.2865 -0.5971
 6356TIP3   OH243262   3.829   6.140  11.953  0.1073 -0.5551  0.4309
 6356TIP3    H143263   3.741   6.118  11.984  0.1197 -0.7772  0.3053
 6356TIP3    H243264   3.866   6.193  12.024 -0.2079 -0.2703  0.3869
 6357TIP3   OH243265   1.275   6.981  12.317 -0.2048 -0.1100  0.6002
 6357TIP3    H143266   1.307   6.896  12.346 -3.0142 -1.2933  0.5088
 6357TIP3    H243267   1.337   7.009  12.250 -0.7854 -3.5146 -1.5611
 6358TIP3   OH243268   1.369   3.292  10.249 -0.3591  0.0139 -0.4160
 6358TIP3    H143269   1.358   3.214  10.196  0.3616  0.2693 -0.9646
 6358TIP3    H243270   1.323   3.361  10.201 -0.1078  0.1442 -0.4722
 6359TIP3   OH243271   4.568   7.605  12.434 -0.2778 -0.2895  0.2199
 6359TIP3    H143272   4.572   7.654  12.352  0.0749  0.7724  0.8539
 6359TIP3    H243273   4.586   7.515  12.409  1.9266  0.3231 -0.6218
 6360TIP3   OH243274   7.199   0.036  10.595  0.3961 -0.2420  0.3016
 6360TIP3    H143275   7.216   0.127  10.571  1.0190  0.4656  3.0078
 6360TIP3    H243276   7.126   0.009  10.539  0.8886  1.5385 -1.3121
 6361TIP3   OH243277   1.112   7.236  12.191  0.2409  0.1961  0.3560
 6361TIP3    H143278   1.149   7.315  12.231 -0.0972  0.8992 -0.6658
 6361TIP3    H243279   1.060   7.269  12.118 -1.2638 -0.8548  0.8995
 6362TIP3   OH243280   6.091   5.164  11.411  0.2509 -0.5009 -0.0267
 6362TIP3    H143281   6.016   5.147  11.468  0.7148 -1.1197  0.4055
 6362TIP3    H243282   6.100   5.259  11.410 -0.0606 -0.4642  0.5296
 6363TIP3   OH243283   3.258   0.893  12.260  0.0202 -0.0830 -0.0940
 6363TIP3    H143284   3.172   0.932  12.246 -0.2835 -0.1541  1.3773
 6363TIP3    H243285   3.241   0.799  12.261  0.1587 -0.1072 -0.0960
 6364TIP3   OH243286   2.432   2.869  11.602  0.4480  0.1663 -0.2667
 6364TIP3    H143287   2.494   2.940  11.618  0.9677 -0.3854  0.2380
 6364TIP3    H243288   2.467   2.795  11.652  0.3116 -0.6573 -1.3491
 6365TIP3   OH243289   6.399   0.952  12.177  0.1613  0.4145  0.3173
 6365TIP3    H143290   6.456   0.935  12.252  0.1275  0.8098  0.4353
 6365TIP3    H243291   6.442   1.025  12.131 -0.4720  0.9930  0.6406
 6366TIP3   OH243292   5.802   6.677  13.016 -0.8419  0.2808  0.4720
 6366TIP3    H143293   5.880   6.669  12.962 -0.7433 -0.4123  0.6932
 6366TIP3    H243294   5.735   6.627  12.969 -1.3098  1.3248  0.0112
 6367TIP3   OH243295   3.512   5.528  12.194  0.1817 -0.6952 -0.1882
 6367TIP3    H143296   3.525   5.449  12.142 -3.8330 -0.0544 -2.6316
 6367TIP3    H243297   3.516   5.599  12.130 -2.7006  0.3678  0.6769
 6368TIP3   OH243298   1.758   5.915  10.737 -0.5198 -0.5999 -0.0522
 6368TIP3    H143299   1.786   5.829  10.768  0.7281  0.0048  0.5764
 6368TIP3    H243300   1.722   5.958  10.815 -2.0478 -0.8861 -0.5698
 6369TIP3   OH243301   4.501   6.534  10.468 -0.2014  0.4251  0.1128
 6369TIP3    H143302   4.514   6.556  10.560  1.6196  1.4258 -0.3438
 6369TIP3    H243303   4.406   6.538  10.456 -0.5675 -0.7627  2.1656
 6370TIP3   OH243304   5.166   5.478  12.735  0.0392  0.3828  0.2877
 6370TIP3    H143305   5.071   5.467  12.740  0.2106 -0.9554  0.8256
 6370TIP3    H243306   5.201   5.409  12.790  1.3833 -0.4092 -1.4978
 6371TIP3   OH243307   1.948   5.925  13.207  0.1663 -0.0020 -0.1838
 6371TIP3    H143308   1.892   5.873  13.149 -0.0718  0.9702 -0.8463
 6371TIP3    H243309   2.037   5.894  13.190 -0.0708 -0.9603  0.2513
 6372TIP3   OH243310   0.167   2.674  13.562  0.0381  0.1180  0.3438
 6372TIP3    H143311   0.223   2.724  13.502  1.4081  0.2505  1.6829
 6372TIP3    H243312   0.190   2.583  13.546 -1.0762 -0.0018 -0.7361
 6373TIP3   OH243313   5.121   1.915  11.231 -0.8545  0.2753  0.2262
 6373TIP3    H143314   5.105   1.997  11.186 -0.5286 -0.5225 -1.3967
 6373TIP3    H243315   5.113   1.848  11.164  0.6490 -0.8865  1.1280
 6374TIP3   OH243316   5.524   4.695  11.347  0.3065 -0.5077  0.3309
 6374TIP3    H143317   5.551   4.697  11.439  1.4596 -3.5937  0.2046
 6374TIP3    H243318   5.599   4.656  11.301  0.0671  1.6123 -2.0953
 6375TIP3   OH243319   3.900   3.450  11.670 -0.2590 -0.0327  0.1516
 6375TIP3    H143320   3.908   3.534  11.716 -0.7502  0.8374 -1.2620
 6375TIP3    H243321   3.826   3.463  11.610  0.5734 -0.9706 -1.1325
 6376TIP3   OH243322   0.701   3.409  11.194 -0.7341 -0.1780  0.4249
 6376TIP3    H143323   0.714   3.402  11.100 -1.1441 -1.4442  0.4500
 6376TIP3    H243324   0.778   3.367  11.232 -0.5907  0.2930  0.6701
 6377TIP3   OH243325   5.482   2.546  10.580 -0.2585 -0.1642  0.5141
 6377TIP3    H143326   5.394   2.508  10.578 -0.3843  0.1350 -0.0516
 6377TIP3    H243327   5.475   2.625  10.526  0.5646 -0.5837 -0.2342
 6378TIP3   OH243328   3.486   4.485  11.584 -0.1679  0.3170  0.4506
 6378TIP3    H143329   3.419   4.528  11.637 -0.4387 -1.1262  1.3593
 6378TIP3    H243330   3.445   4.473  11.499  0.1808  2.4472 -0.0689
 6379TIP3   OH243331   1.553   0.014  11.075  0.3618 -0.4920  0.1063
 6379TIP3    H143332   1.607  -0.021  11.147 -0.6954  0.5287  1.4551
 6379TIP3    H243333   1.472  -0.036  11.081 -0.1104  0.2772  0.2878
 6380TIP3   OH243334   0.897   3.141  13.021  0.1329 -0.5560  0.5567
 6380TIP3    H143335   0.820   3.190  12.992 -0.5431 -1.9154 -0.0791
 6380TIP3    H243336   0.971   3.200  13.008 -0.5928  0.1247 -0.5753
 6381TIP3   OH243337   7.190   7.067  11.114  0.0908 -0.5338 -0.9977
 6381TIP3    H143338   7.140   6.997  11.073  1.4558  0.0272 -3.8675
 6381TIP3    H243339   7.206   7.130  11.044  0.1529  1.9878  1.1208
 6382TIP3   OH243340   2.801   6.865  10.840 -0.2051 -0.0543  0.2005
 6382TIP3    H143341   2.850   6.947  10.831 -1.9556  1.2165  1.5830
 6382TIP3    H243342   2.719   6.881  10.794  0.6502 -2.2620 -2.3609
 6383TIP3   OH243343   3.502   2.247  11.855  0.0748 -0.0195 -0.9583
 6383TIP3    H143344   3.477   2.189  11.927 -0.3376  0.4714 -0.7018
 6383TIP3    H243345   3.429   2.241  11.793  0.3595 -0.3244 -1.2694
 6384TIP3   OH243346   4.511   0.587  10.861  0.1371  0.1075 -0.2163
 6384TIP3    H143347   4.502   0.597  10.766  0.5302  0.5745 -0.2045
 6384TIP3    H243348   4.467   0.664  10.898 -0.8719 -0.5578  0.0217
 6385TIP3   OH243349   3.219   2.708  12.043 -0.3123  0.0120 -0.0220
 6385TIP3    H143350   3.313   2.717  12.028 -0.1295  2.1355  1.9050
 6385TIP3    H243351   3.213   2.650  12.120 -0.5908 -0.1848 -0.1901
 6386TIP3   OH243352   4.977   4.762  13.140 -0.1962  0.0154 -0.4337
 6386TIP3    H143353   5.043   4.694  13.146  1.1763  1.3107 -0.4220
 6386TIP3    H243354   4.895   4.718  13.165  0.7538 -1.4389  0.2456
 6387TIP3   OH243355   0.048   0.708  12.369 -0.1906 -0.6801 -0.1125
 6387TIP3    H143356   0.021   0.689  12.458  0.0321 -0.1191  0.0815
 6387TIP3    H243357  -0.008   0.654  12.314  0.7985 -2.2978  0.4191
 6388TIP3   OH243358   6.648   7.535  11.251  0.5107 -0.1056  0.3899
 6388TIP3    H143359   6.704   7.481  11.305  0.7584 -0.9958 -0.7261
 6388TIP3    H243360   6.593   7.473  11.203  0.7450  0.6101 -0.8515
 6389TIP3   OH243361   5.410   2.714  10.912  0.3371 -0.9243 -0.0361
 6389TIP3    H143362   5.402   2.783  10.978  0.0757 -1.7748  0.8461
 6389TIP3    H243363   5.435   2.760  10.832 -0.2876  0.2389  0.4190
 6390TIP3   OH243364   7.443   6.370  12.303  0.1033 -0.2341 -0.6476
 6390TIP3    H143365   7.373   6.409  12.356 -0.5594 -1.9374 -0.2106
 6390TIP3    H243366   7.440   6.418  12.221 -0.4769  0.8267 -0.0329
 6391TIP3   OH243367   5.900   5.142  12.098  0.3679  0.0882  0.9981
 6391TIP3    H143368   5.848   5.183  12.167 -1.8648  0.2000 -0.6146
 6391TIP3    H243369   5.933   5.216  12.046 -0.1411 -0.0319  0.4919
 6392TIP3   OH243370   5.397   5.867  10.790 -0.2493 -0.0232  0.4413
 6392TIP3    H143371   5.321   5.923  10.810  0.6140  1.2232  0.3291
 6392TIP3    H243372   5.370   5.780  10.819 -1.4676  0.5214  1.0443
 6393TIP3   OH243373   0.229   4.603  12.507 -0.0851 -0.2369 -0.0757
 6393TIP3    H143374   0.218   4.635  12.417  0.5687  0.2028 -0.0121
 6393TIP3    H243375   0.317   4.633  12.532 -0.0631 -0.7928  0.5321
 6394TIP3   OH243376   3.286   7.043  12.061 -0.2696  0.6059  0.4756
 6394TIP3    H143377   3.332   6.983  12.003 -0.5995  2.4650 -1.8733
 6394TIP3    H243378   3.328   7.032  12.146  2.6548  0.2401 -0.9173
 6395TIP3   OH243379   5.289   5.785  11.458  0.3719  0.1569  0.0257
 6395TIP3    H143380   5.307   5.691  11.458 -0.9753 -0.1402 -1.2513
 6395TIP3    H243381   5.198   5.792  11.487  0.5825  1.1044  0.4810
 6396TIP3   OH243382   2.857   5.634  17.463  0.1250  0.1754 -0.1607
 6396TIP3    H143383   2.837   5.622  17.556  2.3991  0.1309  0.3836
 6396TIP3    H243384   2.832   5.724  17.445 -1.9771 -0.3351 -0.0050
 6397TIP3   OH243385   4.371   5.429  10.983 -0.2457  0.2937 -0.2701
 6397TIP3    H143386   4.412   5.483  10.916 -0.6888 -0.5625 -1.2606
 6397TIP3    H243387   4.375   5.340  10.948 -0.2301 -0.2200  0.9775
 6398TIP3   OH243388   6.884   1.161  11.889  0.5691  0.1259 -0.0908
 6398TIP3    H143389   6.957   1.138  11.945  1.8673 -0.0290 -1.7690
 6398TIP3    H243390   6.822   1.088  11.899  0.3289  0.5518  1.7936
 6399TIP3   OH243391   0.533   3.077  11.296 -0.0389 -0.4798 -0.4190
 6399TIP3    H143392   0.492   2.992  11.310  0.3405 -0.8411 -1.4121
 6399TIP3    H243393   0.623   3.057  11.270  0.8412  0.2988  1.7266
 6400TIP3   OH243394   3.375   4.489  11.314  0.1931  0.8819  0.6428
 6400TIP3    H143395   3.287   4.524  11.328  0.4385  1.4902  0.7249
 6400TIP3    H243396   3.429   4.567  11.299  0.8123  0.5537  1.1412
 6401TIP3   OH243397   2.703   2.436  11.036 -0.7990 -0.6211  0.3174
 6401TIP3    H143398   2.639   2.507  11.032  1.4156  1.5492  0.3818
 6401TIP3    H243399   2.776   2.473  11.087  0.7458 -2.7291 -0.2159
 6402TIP3   OH243400   0.900   4.476  12.351  0.0440  0.6928 -0.1345
 6402TIP3    H143401   0.859   4.426  12.421  0.3420 -3.2526 -2.4523
 6402TIP3    H243402   0.827   4.501  12.293  0.2093 -0.6406 -0.9646
 6403TIP3   OH243403   3.786   5.600  11.440 -0.5747  0.2047 -0.6356
 6403TIP3    H143404   3.838   5.661  11.388  2.0233 -0.2161  1.2706
 6403TIP3    H243405   3.700   5.641  11.446  0.5244  2.7845 -0.9551
 6404TIP3   OH243406   2.064   0.465  12.290 -0.3292 -0.2741  0.7458
 6404TIP3    H143407   2.078   0.421  12.206 -0.0391  0.0183  0.6393
 6404TIP3    H243408   2.126   0.422  12.350 -0.7232 -0.6644  0.8777
 6405TIP3   OH243409   6.404   3.203  10.706 -0.4354 -0.0811 -0.0369
 6405TIP3    H143410   6.314   3.233  10.712 -0.7142 -0.9201  0.1718
 6405TIP3    H243411   6.407   3.126  10.762  0.7553  0.7039  1.0166
 6406TIP3   OH243412   4.721   2.169  11.908 -0.4981  0.3171  0.5160
 6406TIP3    H143413   4.787   2.167  11.976 -0.0073 -0.8671  0.0221
 6406TIP3    H243414   4.641   2.139  11.951 -0.5011  0.8121  0.8693
 6407TIP3   OH243415   5.555   4.000  10.603 -0.2606  0.0998 -0.2148
 6407TIP3    H143416   5.516   3.990  10.516  0.4853 -0.4057 -0.4981
 6407TIP3    H243417   5.502   4.068  10.645  0.9541  2.3726 -2.0464
 6408TIP3   OH243418   7.434   5.313  12.898  0.1550  0.4740  0.9123
 6408TIP3    H143419   7.340   5.295  12.889  0.2518  0.5415 -0.5481
 6408TIP3    H243420   7.456   5.283  12.986 -1.1118 -0.1214  1.0527
 6409TIP3   OH243421   5.982   5.013  13.090 -0.1574 -0.2142 -0.0222
 6409TIP3    H143422   6.000   5.098  13.130  0.7262 -1.4422  2.4182
 6409TIP3    H243423   6.030   4.951  13.145 -0.4564 -2.2655 -1.9639
 6410TIP3   OH243424   2.193   3.134  10.538  0.3359 -0.0808  0.0233
 6410TIP3    H143425   2.272   3.187  10.543  0.7635 -0.6622 -0.5350
 6410TIP3    H243426   2.205   3.080  10.460 -0.5275 -0.3076  0.0416
 6411TIP3   OH243427   1.628   6.163  11.697 -0.1005 -0.0953  0.4789
 6411TIP3    H143428   1.677   6.238  11.731 -1.1397  0.6446  0.3675
 6411TIP3    H243429   1.603   6.188  11.608 -3.8657  1.1900  1.6909
 6412TIP3   OH243430   1.883   1.953  11.833 -0.1527 -0.1103 -0.2218
 6412TIP3    H143431   1.903   2.008  11.908 -1.5836  0.7269 -0.4211
 6412TIP3    H243432   1.791   1.971  11.813 -1.0952 -3.4201  0.4295
 6413TIP3   OH243433   4.032   6.718  12.430 -0.1610 -0.1828 -0.1419
 6413TIP3    H143434   3.960   6.671  12.388  0.8522 -0.7330 -1.3469
 6413TIP3    H243435   4.060   6.782  12.365  0.1155  0.3623  0.5084
 6414TIP3   OH243436   3.003   1.536  12.135  0.1276 -0.2812 -0.1046
 6414TIP3    H143437   2.999   1.602  12.205 -2.6724 -0.2372 -0.2255
 6414TIP3    H243438   2.948   1.571  12.066  0.4024 -1.7420 -1.0991
 6415TIP3   OH243439   1.868   2.752  12.126 -0.1012  0.1709 -0.2574
 6415TIP3    H143440   1.806   2.819  12.096 -0.1674  0.0421 -0.4103
 6415TIP3    H243441   1.949   2.800  12.145 -0.9702  0.7505  2.3900
 6416TIP3   OH243442   2.014   1.888  12.794  0.5243  0.2249 -0.6661
 6416TIP3    H143443   2.087   1.930  12.749  0.2594 -1.4364 -2.8066
 6416TIP3    H243444   2.048   1.801  12.818 -0.4978 -0.2773 -0.9811
 6417TIP3   OH243445   3.282   1.459  11.470 -0.1392  0.3460 -0.1454
 6417TIP3    H143446   3.221   1.501  11.530 -0.3105 -0.2590  0.1081
 6417TIP3    H243447   3.255   1.367  11.467 -0.1299  0.3656 -1.1451
 6418TIP3   OH243448   3.731   1.879  13.029 -0.4393 -0.4017 -0.1184
 6418TIP3    H143449   3.743   1.784  13.037 -1.7382 -0.6111 -0.3692
 6418TIP3    H243450   3.776   1.915  13.105  0.6096 -1.1657 -0.3610
 6419TIP3   OH243451   7.313   3.275  12.111 -0.1393  0.2370 -0.1748
 6419TIP3    H143452   7.379   3.291  12.044 -0.9468  0.2150 -0.9818
 6419TIP3    H243453   7.336   3.335  12.182 -0.2620  1.4754 -1.1578
 6420TIP3   OH243454   2.170   3.650  12.405 -0.2566  0.1081 -0.5281
 6420TIP3    H143455   2.102   3.704  12.446  1.5204  2.9267 -1.0217
 6420TIP3    H243456   2.123   3.594  12.343 -2.4418 -0.6477  1.6716
 6421TIP3   OH243457   2.518   4.741  12.604 -0.0517 -0.1261  0.0838
 6421TIP3    H143458   2.585   4.691  12.556  1.4120  1.8606 -0.0489
 6421TIP3    H243459   2.555   4.828  12.614 -1.1535  0.1025  3.1558
 6422TIP3   OH243460   2.213   7.634  12.115  0.8829 -0.6596 -0.0407
 6422TIP3    H143461   2.242   7.670  12.031 -1.8757  1.2321 -0.2963
 6422TIP3    H243462   2.214   7.708  12.175 -1.5321 -0.8545  0.3485
 6423TIP3   OH243463   7.482   3.254  11.020  0.2176  0.6746  0.6137
 6423TIP3    H143464   7.439   3.169  11.013  1.1975  0.0593  1.6873
 6423TIP3    H243465   7.565   3.242  10.974 -0.1790  1.4534 -0.3255
 6424TIP3   OH243466   1.300   1.008  10.850  0.0606  0.1206 -0.6256
 6424TIP3    H143467   1.308   1.028  10.943 -0.3394  0.5181 -0.6718
 6424TIP3    H243468   1.390   0.991  10.821  0.5374  2.3406 -0.6755
 6425TIP3   OH243469   7.008   2.477  11.677  0.2474  0.6572  0.1596
 6425TIP3    H143470   7.090   2.509  11.714  0.8888  0.5258 -1.0978
 6425TIP3    H243471   6.953   2.555  11.667  0.5784  0.8851  0.1130
 6426TIP3   OH243472   3.517   4.692  10.716 -0.3671  0.0631 -0.0268
 6426TIP3    H143473   3.601   4.731  10.740  0.0421 -0.3122 -0.7931
 6426TIP3    H243474   3.541   4.610  10.671 -1.1183  0.2190 -0.7310
 6427TIP3   OH243475   7.116   4.057  11.453 -0.1193  0.0738  0.3439
 6427TIP3    H143476   7.034   4.081  11.497 -0.2660 -0.2543  0.2591
 6427TIP3    H243477   7.121   4.116  11.378 -0.4261 -0.0892  0.1902
 6428TIP3   OH243478   4.867   2.564  12.018 -0.4136 -0.2708 -0.1987
 6428TIP3    H143479   4.819   2.646  12.034 -0.1534  0.2634 -2.0189
 6428TIP3    H243480   4.958   2.586  12.034 -0.3974 -0.3508 -0.1826
 6429TIP3   OH243481   3.190   2.145  10.478  0.5004 -0.1268  0.1292
 6429TIP3    H143482   3.274   2.164  10.436  0.7844  0.9414  1.1446
 6429TIP3    H243483   3.213   2.092  10.554  0.3236  0.5740  0.6826
 6430TIP3   OH243484   3.540   6.819  11.449 -0.4019 -0.7966  0.2289
 6430TIP3    H143485   3.551   6.755  11.379 -1.8493 -0.5362 -0.2636
 6430TIP3    H243486   3.594   6.893  11.422  0.6667 -1.4837  0.4193
 6431TIP3   OH243487   1.853   1.298  10.801 -0.0008 -0.2080  0.4701
 6431TIP3    H143488   1.809   1.216  10.779 -0.6783 -0.3943  2.3900
 6431TIP3    H243489   1.844   1.306  10.896  0.4588  1.8599  0.3855
 6432TIP3   OH243490   2.316   4.653  12.462  0.3932 -0.5517 -0.0830
 6432TIP3    H143491   2.387   4.660  12.525  1.8964 -3.2638 -1.2711
 6432TIP3    H243492   2.335   4.720  12.396  0.0619  0.7857  1.1370
 6433TIP3   OH243493   1.990   5.468  12.377  0.1252  0.1205 -0.4034
 6433TIP3    H143494   2.041   5.532  12.428  0.4936  0.7034 -1.4665
 6433TIP3    H243495   1.929   5.430  12.440  2.1404 -0.9295  1.0455
 6434TIP3   OH243496   4.062   7.586  12.916 -0.3820 -0.2197 -0.0259
 6434TIP3    H143497   4.141   7.620  12.956 -0.1128 -0.8373 -0.0256
 6434TIP3    H243498   4.080   7.493  12.902 -1.4945 -0.6126  0.9570
 6435TIP3   OH243499   4.752   0.749  11.271 -0.1482 -0.2359 -0.0277
 6435TIP3    H143500   4.755   0.772  11.179  0.5697  0.5430  0.1706
 6435TIP3    H243501   4.662   0.768  11.298  0.4466  2.7633  0.1780
 6436TIP3   OH243502   2.656   7.525  12.773  0.7119  0.2611 -0.2794
 6436TIP3    H143503   2.590   7.593  12.764 -2.1123 -2.0207  1.3143
 6436TIP3    H243504   2.650   7.475  12.692 -0.8397 -0.8880  0.4759
 6437TIP3   OH243505   5.886   0.359  11.960  0.3598 -0.1732 -0.7863
 6437TIP3    H143506   5.832   0.437  11.967  0.0059 -0.2166 -2.4805
 6437TIP3    H243507   5.966   0.380  12.009 -0.2216  0.7802 -0.2157
 6438TIP3   OH243508   0.401   6.767  12.008 -0.2242 -0.5027 -0.0637
 6438TIP3    H143509   0.470   6.705  11.985 -1.1021 -1.1699 -1.0164
 6438TIP3    H243510   0.340   6.715  12.060  0.3619  0.2852  1.4566
 6439TIP3   OH243511   0.552   6.570  10.992 -0.5630  0.6179  0.2701
 6439TIP3    H143512   0.623   6.554  11.054 -0.2251  0.6154 -0.1091
 6439TIP3    H243513   0.482   6.512  11.020 -0.0488 -0.1279  0.0647
 6440TIP3   OH243514   1.875   0.232  11.947 -0.7172  0.2954 -0.0342
 6440TIP3    H143515   1.953   0.279  11.976 -0.1654 -0.7124  0.1646
 6440TIP3    H243516   1.897   0.140  11.958 -1.7810 -0.0180 -0.3946
 6441TIP3   OH243517   3.536   0.559  12.232 -0.3867  0.1075  0.1127
 6441TIP3    H143518   3.542   0.634  12.290 -0.2993  1.0302 -1.0420
 6441TIP3    H243519   3.494   0.593  12.153 -0.9347 -1.2109 -0.1906
 6442TIP3   OH243520   3.507   3.243  11.843 -0.3154  0.0322  0.2835
 6442TIP3    H143521   3.546   3.223  11.929 -0.1294  0.4006  0.2858
 6442TIP3    H243522   3.517   3.162  11.793  0.1548  0.0186  0.3960
 6443TIP3   OH243523   4.443   0.986  12.335 -0.5331 -0.0862  0.1125
 6443TIP3    H143524   4.473   0.932  12.408  0.4800 -0.1218 -0.3215
 6443TIP3    H243525   4.488   0.951  12.258  0.9805  2.0123 -0.0465
 6444TIP3   OH243526   3.066   5.198  13.367  0.2601 -0.0282  0.1027
 6444TIP3    H143527   2.990   5.256  13.366  0.7869  0.6935 -0.6576
 6444TIP3    H243528   3.122   5.232  13.296  0.9997 -0.9152  0.2442
 6445TIP3   OH243529   2.744   4.330  10.905 -0.2990 -0.3133 -0.4965
 6445TIP3    H143530   2.761   4.381  10.984 -0.1502 -0.5765 -0.3597
 6445TIP3    H243531   2.732   4.240  10.936  0.0086 -0.4584 -0.7972
 6446TIP3   OH243532   0.744   3.038  10.464  0.1233 -0.7936  0.4359
 6446TIP3    H143533   0.673   3.025  10.401  0.1621  0.9118 -0.0080
 6446TIP3    H243534   0.810   2.974  10.437 -1.4928 -2.9630  1.3501
 6447TIP3   OH243535   1.493   2.953  11.008 -0.2544  0.0589  0.2293
 6447TIP3    H143536   1.541   3.026  10.968 -0.6584 -0.0417 -0.4608
 6447TIP3    H243537   1.562   2.895  11.040  0.1487  1.9510  3.2209
 6448TIP3   OH243538   7.558   2.761  10.730  0.0477  0.2977  0.2253
 6448TIP3    H143539   7.617   2.689  10.753  0.2336  0.5171  0.4398
 6448TIP3    H243540   7.552   2.758  10.635  0.5762  0.4077  0.1865
 6449TIP3   OH243541   1.498   3.047  12.787  0.3458  0.5580  0.1442
 6449TIP3    H143542   1.469   2.972  12.840  2.4519 -1.1075 -0.9172
 6449TIP3    H243543   1.551   3.008  12.718  0.3159  2.9557 -1.3289
 6450TIP3   OH243544   6.876   2.097  11.325 -0.0612  0.0551 -0.2117
 6450TIP3    H143545   6.865   2.163  11.394 -0.6820 -1.1550  0.8774
 6450TIP3    H243546   6.788   2.063  11.309  0.0669  0.3148 -1.6314
 6451TIP3   OH243547   4.026   3.498  10.827 -0.1974 -0.1434  0.2252
 6451TIP3    H143548   4.026   3.587  10.862 -1.7090 -0.5534  1.4205
 6451TIP3    H243549   4.061   3.506  10.738  0.8659  1.4324  0.7604
 6452TIP3   OH243550   6.582   6.415  10.787  0.0230  0.1384  0.4798
 6452TIP3    H143551   6.651   6.397  10.723  0.4327 -0.6125  1.1197
 6452TIP3    H243552   6.545   6.499  10.759 -1.3633 -1.1989 -2.1038
 6453TIP3   OH243553   5.507   5.859  11.944 -0.1552 -0.2347  0.2737
 6453TIP3    H143554   5.533   5.830  12.031 -0.2202 -1.9611 -0.2431
 6453TIP3    H243555   5.557   5.804  11.884 -0.5762  0.4916 -0.7868
 6454TIP3   OH243556   1.201   1.302  11.605 -0.1030 -0.5674  0.2399
 6454TIP3    H143557   1.203   1.221  11.554 -0.9354 -0.1138 -0.5370
 6454TIP3    H243558   1.135   1.286  11.673 -0.0399 -0.6558  0.2798
 6455TIP3   OH243559   6.706   1.163  12.308 -0.2115 -0.0219 -0.2613
 6455TIP3    H143560   6.742   1.226  12.245 -0.9027  2.3249  1.5424
 6455TIP3    H243561   6.773   1.157  12.376 -1.3063  0.9859  0.9565
 6456TIP3   OH243562   3.930   6.174  11.265 -0.0524 -0.1210 -0.4606
 6456TIP3    H143563   3.986   6.240  11.306  0.1756 -0.8458  0.4257
 6456TIP3    H243564   3.841   6.203  11.285  0.0483 -0.1404  0.0263
 6457TIP3   OH243565   4.005   4.930  11.464  0.2353  0.2163 -0.3155
 6457TIP3    H143566   3.955   4.870  11.409 -0.1212  0.5911 -0.4008
 6457TIP3    H243567   4.032   4.877  11.539  1.0589 -0.4068 -1.0250
 6458TIP3   OH243568   3.808   3.443  12.099  0.1327 -0.6932 -0.1303
 6458TIP3    H143569   3.727   3.424  12.146 -0.6709 -1.0290 -1.5799
 6458TIP3    H243570   3.811   3.377  12.030 -0.9795  2.2012 -3.2197
 6459TIP3   OH243571   0.905   3.234  11.273  0.5182 -0.4813  0.1947
 6459TIP3    H143572   0.881   3.227  11.365 -0.2388  0.5472  0.0953
 6459TIP3    H243573   1.000   3.228  11.272  0.5652  0.0133  1.0937
 6460TIP3   OH243574   2.565   6.045  12.135  0.1767 -0.1038 -0.1591
 6460TIP3    H143575   2.560   6.071  12.043  1.2940  0.4706 -0.0719
 6460TIP3    H243576   2.631   6.103  12.172 -2.1881  1.6133  1.6625
 6461TIP3   OH243577   7.375   0.592  10.591  0.0857  0.1181 -0.4543
 6461TIP3    H143578   7.369   0.659  10.522  0.5105 -0.9138 -1.5272
 6461TIP3    H243579   7.342   0.636  10.669 -2.5569  0.7002 -1.7592
 6462TIP3   OH243580   3.617   4.833  12.368  0.0297 -0.1751 -0.4991
 6462TIP3    H143581   3.621   4.821  12.463 -1.6126  2.1344 -0.0566
 6462TIP3    H243582   3.619   4.744  12.333 -2.1006 -1.2747  1.8488
 6463TIP3   OH243583   6.249   3.928  11.580  0.3699 -0.0569 -0.3391
 6463TIP3    H143584   6.253   3.832  11.581 -0.5267 -0.0954  0.4315
 6463TIP3    H243585   6.300   3.953  11.503 -1.0288 -1.2386 -1.7177
 6464TIP3   OH243586   5.814   5.857  11.842 -0.0482  0.7795 -0.6811
 6464TIP3    H143587   5.789   5.937  11.795  0.3925  0.6728 -1.0959
 6464TIP3    H243588   5.886   5.820  11.791 -1.4188 -0.8721 -1.5699
 6465TIP3   OH243589   4.562   6.533  10.765  0.5194 -0.1434  0.7195
 6465TIP3    H143590   4.480   6.485  10.774  0.3609 -0.6664 -2.4101
 6465TIP3    H243591   4.629   6.469  10.789  0.1208 -0.4939  0.9229
 6466TIP3   OH243592   5.174   0.548  12.414  0.4376  1.0496 -0.0730
 6466TIP3    H143593   5.197   0.634  12.450  3.0262  0.7916 -0.9439
 6466TIP3    H243594   5.201   0.486  12.482  0.0941  0.8285 -0.1362
 6467TIP3   OH243595   0.718   0.062  13.052 -1.0855  0.7319 -0.0301
 6467TIP3    H143596   0.648   0.085  13.113 -1.8348 -0.7409 -0.2998
 6467TIP3    H243597   0.798   0.092  13.096 -1.7171  0.8678  1.0795
 6468TIP3   OH243598   3.221   0.457  12.676 -0.0244 -0.2258 -0.5234
 6468TIP3    H143599   3.211   0.541  12.632  2.1185 -0.0693 -0.7904
 6468TIP3    H243600   3.274   0.476  12.753  0.2007 -1.2775 -0.3995
 6469TIP3   OH243601   5.722   2.420  10.551 -0.1244  0.2883  0.4259
 6469TIP3    H143602   5.638   2.458  10.574 -1.5071 -2.1339 -0.2681
 6469TIP3    H243603   5.779   2.495  10.534 -2.9705  2.0972 -2.1360
 6470TIP3   OH243604   1.476   0.804  10.523  0.7696 -0.4591 -0.3565
 6470TIP3    H143605   1.452   0.896  10.519  1.7413 -0.1255  0.7818
 6470TIP3    H243606   1.526   0.789  10.443  1.1812  0.1941 -0.2349
 6471TIP3   OH243607   6.889   5.174  11.634  0.1107 -0.5285 -0.0719
 6471TIP3    H143608   6.842   5.248  11.671  0.6035 -0.6962  0.9215
 6471TIP3    H243609   6.828   5.136  11.571 -0.0592  0.8535 -0.7762
 6472TIP3   OH243610   0.182   0.532  11.458 -0.1879 -0.1529 -0.1123
 6472TIP3    H143611   0.199   0.520  11.364 -1.0943  0.2835 -0.3447
 6472TIP3    H243612   0.190   0.444  11.495  0.7597 -0.2399 -0.4865
 6473TIP3   OH243613   0.740   2.233  12.375  0.0240  0.0195 -0.7179
 6473TIP3    H143614   0.683   2.222  12.451  0.1602  0.5964 -0.5331
 6473TIP3    H243615   0.683   2.269  12.307  0.2486  0.9342 -0.4231
 6474TIP3   OH243616   3.053   4.244  11.296 -0.0699  0.3914  0.1070
 6474TIP3    H143617   3.104   4.190  11.235  0.0041 -0.4119  0.8687
 6474TIP3    H243618   3.089   4.224  11.382 -0.1944  1.5022  0.4313
 6475TIP3   OH243619   3.853   7.433  11.488 -0.0532  0.6577  0.3234
 6475TIP3    H143620   3.781   7.495  11.501 -1.1507 -0.2289 -1.1310
 6475TIP3    H243621   3.820   7.350  11.522  0.0757  0.1279 -0.8010
 6476TIP3   OH243622   1.647   1.729  11.161  0.1694 -0.1195 -0.1485
 6476TIP3    H143623   1.703   1.783  11.104 -1.0973  0.3657 -0.9682
 6476TIP3    H243624   1.622   1.655  11.106  1.1553 -1.1209  0.6847
 6477TIP3   OH243625   0.160   3.461  11.293 -0.4087 -0.7572 -0.4104
 6477TIP3    H143626   0.250   3.491  11.283 -0.7210 -0.1357 -1.5358
 6477TIP3    H243627   0.168   3.374  11.332  0.6742 -0.7532 -0.5839
 6478TIP3   OH243628   5.275   2.482  12.001 -0.2724 -0.1486 -0.6311
 6478TIP3    H143629   5.273   2.399  12.049 -0.6667  1.3420  2.1470
 6478TIP3    H243630   5.368   2.494  11.978 -0.2849 -1.5483 -1.5358
 6479TIP3   OH243631   3.485   5.908  12.396  0.2258  0.0914 -0.2725
 6479TIP3    H143632   3.509   5.886  12.305  0.3752  0.8221 -0.4121
 6479TIP3    H243633   3.492   5.824  12.442 -1.1748 -0.5823 -1.1977
 6480TIP3   OH243634   3.425   0.045  12.246  0.1301  0.7235  0.2072
 6480TIP3    H143635   3.340   0.078  12.216 -0.2895 -0.2529  0.2564
 6480TIP3    H243636   3.484   0.119  12.237 -0.4674  1.0869 -0.9712
 6481TIP3   OH243637   1.171   4.137  10.939 -0.3670  0.1970  0.6614
 6481TIP3    H143638   1.126   4.110  10.859 -0.4545 -1.5664  1.2650
 6481TIP3    H243639   1.259   4.162  10.911 -0.2009 -0.9911  0.0849
 6482TIP3   OH243640   4.008   0.133  12.778  0.1808  0.6076 -0.4455
 6482TIP3    H143641   3.929   0.143  12.831 -0.5815  0.8791 -1.5934
 6482TIP3    H243642   4.033   0.041  12.789 -0.4303  0.4616 -0.2528
 6483TIP3   OH243643   3.856   6.921  10.856 -0.1978 -0.0156 -0.0060
 6483TIP3    H143644   3.896   6.837  10.876 -0.5610 -0.0583  0.5629
 6483TIP3    H243645   3.770   6.899  10.820  0.0020  0.0950 -0.5673
 6484TIP3   OH243646   0.579   5.419  10.638  0.7203 -0.2370  0.0645
 6484TIP3    H143647   0.523   5.369  10.579  1.2142  0.4035 -0.9638
 6484TIP3    H243648   0.521   5.446  10.709 -0.2697  0.3805 -0.9529
 6485TIP3   OH243649   5.201   1.469  13.081  0.5009 -0.5980 -0.0606
 6485TIP3    H143650   5.184   1.406  13.011  0.9023 -0.5998 -0.1572
 6485TIP3    H243651   5.251   1.420  13.147 -0.3251 -0.7403  0.4709
 6486TIP3   OH243652   5.240   5.042  12.195 -0.9130 -0.5513 -0.3568
 6486TIP3    H143653   5.243   4.950  12.168 -3.0172 -0.1484 -2.3379
 6486TIP3    H243654   5.296   5.087  12.132  1.0078 -0.5309  1.2792
 6487TIP3   OH243655   2.474   1.219  11.567 -0.2385  0.1290  0.1530
 6487TIP3    H143656   2.527   1.259  11.499 -0.7922  0.3216 -0.1738
 6487TIP3    H243657   2.499   1.264  11.647  1.3535 -0.9641  0.3270
 6488TIP3   OH243658   4.957   3.532  10.616 -0.4504 -0.0936  0.0554
 6488TIP3    H143659   4.923   3.577  10.694 -1.1489  0.1693 -0.3962
 6488TIP3    H243660   4.883   3.528  10.556 -0.1376 -1.0295 -0.2817
 6489TIP3   OH243661   2.238   4.134  12.970  0.2411 -0.4264  0.3833
 6489TIP3    H143662   2.149   4.147  13.003 -0.6148  0.5200 -2.1094
 6489TIP3    H243663   2.294   4.172  13.038 -1.2219 -0.7411  1.8507
 6490TIP3   OH243664   5.585   1.177  11.315  0.1098  0.2610  0.5892
 6490TIP3    H143665   5.555   1.130  11.393 -2.4902 -0.2068 -0.6039
 6490TIP3    H243666   5.587   1.110  11.246  0.5784  1.0323 -0.1619
 6491TIP3   OH243667   3.041   5.554  11.523  0.0056  0.9278  0.9164
 6491TIP3    H143668   2.994   5.634  11.546 -1.6899  0.3714 -0.4374
 6491TIP3    H243669   2.983   5.508  11.462  2.1034 -0.0561 -0.4592
 6492TIP3   OH243670   3.108   0.637  10.438 -0.3403 -0.0562  0.0987
 6492TIP3    H143671   3.171   0.695  10.395  1.1758 -1.1628  0.7177
 6492TIP3    H243672   3.027   0.648  10.388  0.8857 -0.0740 -2.0281
 6493TIP3   OH243673   1.846   3.986  12.830 -0.2401  0.3000 -0.1015
 6493TIP3    H143674   1.892   3.909  12.797 -0.5058  0.7530 -1.6191
 6493TIP3    H243675   1.867   4.055  12.767 -0.9644  1.1614  0.5763
 6494TIP3   OH243676   7.363   0.898  12.043  0.0925 -0.2717  0.3761
 6494TIP3    H143677   7.384   0.963  12.110  0.5294 -1.2332  1.1822
 6494TIP3    H243678   7.325   0.950  11.971  1.1493  0.9623  0.6780
 6495TIP3   OH243679   5.910   4.443  10.249 -0.2915  0.8611 -0.1186
 6495TIP3    H143680   5.984   4.387  10.274 -1.1921 -0.5712 -0.5502
 6495TIP3    H243681   5.950   4.523  10.215  1.0331  1.3768  2.3758
 6496TIP3   OH243682   6.830   2.669  10.444  0.5228  0.3161 -0.7674
 6496TIP3    H143683   6.923   2.681  10.465  0.1637  1.5048  0.2539
 6496TIP3    H243684   6.788   2.750  10.473 -1.0464 -0.7274  0.0103
 6497TIP3   OH243685   5.690   3.977  11.660  0.9601  0.2672 -0.2349
 6497TIP3    H143686   5.767   4.031  11.642  1.7843  0.0280  2.1970
 6497TIP3    H243687   5.717   3.921  11.733 -0.6199 -1.8623 -1.1882
 6498TIP3   OH243688   5.146   3.110  12.222 -0.5086  0.0976  0.0052
 6498TIP3    H143689   5.144   3.169  12.146  0.3533  1.1053  0.7405
 6498TIP3    H243690   5.110   3.028  12.189  0.5511  0.2643 -1.7216
 6499TIP3   OH243691   5.504   4.248  12.355  0.1941  0.0332  0.3210
 6499TIP3    H143692   5.446   4.232  12.281 -0.3307 -0.4149  0.8232
 6499TIP3    H243693   5.531   4.339  12.344 -0.7398  0.3062  0.1735
 6500TIP3   OH243694   2.235   6.723  11.762  0.3509 -0.1864 -0.2440
 6500TIP3    H143695   2.149   6.723  11.803  0.6000  0.0529  0.2826
 6500TIP3    H243696   2.280   6.798  11.800  0.3004  0.5416 -1.5475
 6501TIP3   OH243697   7.225   6.833  12.960 -0.2345  0.4875 -0.0482
 6501TIP3    H143698   7.267   6.903  12.910  0.4466 -0.4809 -0.8681
 6501TIP3    H243699   7.264   6.752  12.926 -1.8869 -0.3756  0.0378
 6502TIP3   OH243700   7.586   6.011  12.077  0.3508  0.1055  0.4921
 6502TIP3    H143701   7.501   6.055  12.085  0.7404  0.7854  0.9743
 6502TIP3    H243702   7.645   6.062  12.133  1.1399 -0.2082 -0.0402
 6503TIP3   OH243703   6.017   4.832  11.735 -0.3499 -0.0957 -0.4857
 6503TIP3    H143704   5.953   4.843  11.806  0.1308 -0.5870  0.0380
 6503TIP3    H243705   6.074   4.909  11.742 -1.3369  0.7573 -1.4567
 6504TIP3   OH243706   7.564   4.392  12.398 -0.0019  0.1636 -0.0917
 6504TIP3    H143707   7.645   4.409  12.349  0.5381  2.7900  1.4968
 6504TIP3    H243708   7.496   4.384  12.330  1.2341  0.0648 -1.3695
 6505TIP3   OH243709   4.492   2.108  12.069 -0.7479  0.2321 -0.1798
 6505TIP3    H143710   4.402   2.112  12.035 -1.6314  0.0116  1.9583
 6505TIP3    H243711   4.520   2.018  12.053 -1.6017 -0.2073  0.6999
 6506TIP3   OH243712   2.084   5.235  11.470 -0.2195  0.0842 -0.1577
 6506TIP3    H143713   2.110   5.296  11.401  1.0756  0.0245  0.2509
 6506TIP3    H243714   2.076   5.289  11.548  1.0635 -0.2652  0.2348
 6507TIP3   OH243715   2.985   2.058  11.958 -0.2167  0.4623 -0.0903
 6507TIP3    H143716   2.962   2.082  11.868 -0.3952  0.9614  0.0869
 6507TIP3    H243717   3.021   2.138  11.996  1.3038 -0.1472 -0.1761
 6508TIP3   OH243718   3.461   2.506  13.116 -0.0652 -0.0948 -0.4855
 6508TIP3    H143719   3.457   2.580  13.055  3.0054 -0.8190 -1.7384
 6508TIP3    H243720   3.377   2.461  13.104 -1.0635  1.8681 -1.3844
 6509TIP3   OH243721   6.070   3.624  12.379  0.0320 -0.0827  0.3682
 6509TIP3    H143722   5.992   3.654  12.332  0.5695 -0.9697 -1.1937
 6509TIP3    H243723   6.083   3.687  12.449 -0.2938  1.8715 -1.2448
 6510TIP3   OH243724   2.831   3.781  11.768  0.1685 -0.0605 -0.0581
 6510TIP3    H143725   2.924   3.783  11.745  0.4588 -1.7981  0.8394
 6510TIP3    H243726   2.818   3.860  11.820  0.9127  0.6625 -0.9164
 6511TIP3   OH243727   4.531   0.868  12.104 -0.4445  0.1138  0.4217
 6511TIP3    H143728   4.515   0.792  12.047  0.2953 -0.9387  1.5522
 6511TIP3    H243729   4.605   0.913  12.064  1.6304 -1.9260  1.6801
 6512TIP3   OH243730   5.188   4.307  11.664  0.4354 -0.3160  0.2385
 6512TIP3    H143731   5.132   4.288  11.589  0.3046 -1.8370  0.6931
 6512TIP3    H243732   5.133   4.359  11.722  0.8030  1.6229 -1.0468
 6513TIP3   OH243733   7.295   6.489  10.946  0.2928 -0.4294  0.0324
 6513TIP3    H143734   7.315   6.399  10.919  2.1749 -0.2956  0.8379
 6513TIP3    H243735   7.281   6.482  11.041 -0.6050 -0.0144 -0.0600
 6514TIP3   OH243736   0.984   7.411  13.652  0.2368 -0.7763 -0.2563
 6514TIP3    H143737   0.919   7.461  13.701  0.5286 -0.5228 -0.1280
 6514TIP3    H243738   0.963   7.429  13.560  0.2272 -0.5622 -0.2126
 6515TIP3   OH243739   0.261   2.460  11.692  0.2865 -0.5079  0.0019
 6515TIP3    H143740   0.327   2.397  11.665  0.7399  0.8205 -2.1660
 6515TIP3    H243741   0.310   2.539  11.715 -0.4813  0.4025 -1.3646
 6516TIP3   OH243742   6.492   6.887  12.789 -0.5991 -0.0967 -0.7260
 6516TIP3    H143743   6.560   6.842  12.840 -1.6275 -1.6294 -0.6055
 6516TIP3    H243744   6.535   6.913  12.708  0.7775  1.3395  0.4002
 6517TIP3   OH243745   6.908   2.149  11.038  0.1805 -0.1442  0.5520
 6517TIP3    H143746   6.905   2.186  11.126  0.1971  0.3467  0.3501
 6517TIP3    H243747   6.897   2.224  10.980  4.0813  0.2537  0.0016
 6518TIP3   OH243748   5.397   4.239  12.106  0.3757 -0.3490  0.3726
 6518TIP3    H143749   5.441   4.178  12.047 -1.2784 -0.8462 -0.4197
 6518TIP3    H243750   5.332   4.283  12.051  1.0449  1.6657  1.0835
 6519TIP3   OH243751   4.251   6.756  12.198  0.2328  0.8690  0.1520
 6519TIP3    H143752   4.269   6.682  12.140  0.8602 -0.2504  1.7073
 6519TIP3    H243753   4.311   6.744  12.272 -3.1977 -0.1291  3.0845
 6520TIP3   OH243754   1.352   5.681  10.833 -0.1739  0.0939 -0.0254
 6520TIP3    H143755   1.261   5.705  10.817  0.2269  2.8429  1.3847
 6520TIP3    H243756   1.394   5.685  10.746 -0.9945  0.5615 -0.4054
 6521TIP3   OH243757   5.424   7.109  11.326  0.4660  0.1454  0.2089
 6521TIP3    H143758   5.511   7.125  11.364  1.0680 -0.3120 -0.9087
 6521TIP3    H243759   5.425   7.017  11.302 -0.5293  0.0141  0.6297
 6522TIP3   OH243760   3.768   7.276  12.594 -0.5262 -0.4141 -0.1298
 6522TIP3    H143761   3.682   7.317  12.589  0.0210  0.7136 -0.7906
 6522TIP3    H243762   3.813   7.324  12.664  0.3761  0.6685 -1.4006
 6523TIP3   OH243763   3.099   3.629  10.480 -0.0329 -0.1791 -0.0606
 6523TIP3    H143764   3.145   3.574  10.544 -0.6728 -1.4614 -0.6555
 6523TIP3    H243765   3.010   3.636  10.514 -0.3167 -0.6812 -0.6603
 6524TIP3   OH243766   6.209   5.752  10.735  0.0195 -0.1816 -0.3445
 6524TIP3    H143767   6.206   5.788  10.824 -0.9020 -2.3953  0.6023
 6524TIP3    H243768   6.192   5.827  10.678  1.1409  1.4014  1.2848
 6525TIP3   OH243769   3.768   4.691  10.997  0.6813 -0.0977 -0.3082
 6525TIP3    H143770   3.789   4.727  11.083  1.6193  0.0116 -0.5674
 6525TIP3    H243771   3.736   4.765  10.947 -1.4085 -0.4663  0.4071
 6526TIP3   OH243772   0.967   6.927  10.684  0.0277  0.1706 -0.3367
 6526TIP3    H143773   0.926   6.859  10.738  0.9495  0.2843  0.5384
 6526TIP3    H243774   0.896   6.959  10.627 -0.5575 -1.0907 -0.3372
 6527TIP3   OH243775   1.960   4.460  12.959  0.2688  0.1137  0.1988
 6527TIP3    H143776   1.915   4.386  13.000  1.6349 -0.5660  0.5386
 6527TIP3    H243777   1.957   4.530  13.025 -1.7384  0.6815 -0.4334
 6528TIP3   OH243778   6.736   3.317  11.687  0.5651  0.2313  0.1385
 6528TIP3    H143779   6.810   3.335  11.746  1.4847 -0.9542 -0.6089
 6528TIP3    H243780   6.659   3.316  11.745  1.4410 -0.9537  1.3526
 6529TIP3   OH243781   3.759   0.385  11.373 -0.1282 -0.5116 -0.2702
 6529TIP3    H143782   3.828   0.379  11.307  0.4901 -0.6293  0.3742
 6529TIP3    H243783   3.792   0.334  11.447 -1.3934 -1.5078 -0.3535
 6530TIP3   OH243784   6.423   6.972  11.048  0.1654  0.3906  0.3195
 6530TIP3    H143785   6.499   6.935  11.093  0.5150  2.5380  1.6688
 6530TIP3    H243786   6.450   6.979  10.957  2.3001  2.5742  1.0218
 6531TIP3   OH243787   5.024   6.218  10.703  0.1041  0.2496 -0.0986
 6531TIP3    H143788   4.961   6.147  10.698  0.0794 -0.1295  3.3706
 6531TIP3    H243789   4.972   6.298  10.693 -0.6901 -0.1233  0.8611
 6532TIP3   OH243790   5.823   4.031  10.673 -0.6835  0.3653 -0.5471
 6532TIP3    H143791   5.869   3.948  10.660 -1.2534 -0.1579  0.6275
 6532TIP3    H243792   5.732   4.013  10.648 -1.1283  0.1944  1.1104
 6533TIP3   OH243793   0.011   0.974  12.380 -0.5448 -0.0371  0.1115
 6533TIP3    H143794   0.047   0.887  12.395  0.4333  0.6154  1.9325
 6533TIP3    H243795  -0.069   0.977  12.433 -1.5082 -0.3692 -1.2874
 6534TIP3   OH243796   4.898   4.794  10.756 -0.5778  0.0956  0.1936
 6534TIP3    H143797   4.911   4.748  10.839 -1.4170  1.8554  1.3667
 6534TIP3    H243798   4.947   4.876  10.766  1.4548 -0.7141 -2.1010
 6535TIP3   OH243799   5.251   5.301  12.932 -0.6493 -0.0179 -0.2049
 6535TIP3    H143800   5.166   5.311  12.975 -0.7400  1.0532 -0.5957
 6535TIP3    H243801   5.260   5.207  12.918 -1.5566 -0.1889  0.2656
 6536TIP3   OH243802   3.463   1.974  10.266  0.2587  0.6971  0.0619
 6536TIP3    H143803   3.454   2.019  10.350  2.5189 -0.2447  0.8876
 6536TIP3    H243804   3.523   2.028  10.215  0.6514  0.1378 -0.0803
 6537TIP3   OH243805   6.168   1.999  10.660 -0.1463 -0.6434  0.1162
 6537TIP3    H143806   6.215   2.021  10.741  0.1051 -0.4262 -0.0850
 6537TIP3    H243807   6.159   2.083  10.615 -1.4028 -0.5536  0.4949
 6538TIP3   OH243808   1.295   4.714  10.835  0.1461 -0.4342  0.3942
 6538TIP3    H143809   1.363   4.732  10.899 -0.2159  0.1034  0.6313
 6538TIP3    H243810   1.273   4.799  10.798 -0.0992 -0.6574  0.0133
 6539TIP3   OH243811   2.172   5.369  10.690  0.0033 -0.5064 -0.1111
 6539TIP3    H143812   2.210   5.358  10.603 -0.1642 -0.9235 -0.1354
 6539TIP3    H243813   2.209   5.451  10.722 -0.1401 -0.2060 -0.6855
 6540TIP3   OH243814   3.596   1.942  12.814 -0.1290 -0.0328  0.2763
 6540TIP3    H143815   3.650   1.922  12.891  0.2440 -1.2967 -0.2841
 6540TIP3    H243816   3.544   2.017  12.840  1.4118  0.8008  1.0779
 6541TIP3   OH243817   5.825   7.557  12.738  0.0224  0.1451  0.5266
 6541TIP3    H143818   5.832   7.595  12.825 -0.8075 -0.4035  0.8440
 6541TIP3    H243819   5.744   7.593  12.702  0.7268  0.9377 -0.3146
 6542TIP3   OH243820   0.475   2.798  11.213  0.1338  0.2323 -0.0897
 6542TIP3    H143821   0.562   2.758  11.209  0.4906  0.9547  0.1670
 6542TIP3    H243822   0.415   2.729  11.185  0.7372 -0.4439  0.2486
 6543TIP3   OH243823   0.549   0.863  11.905  0.1518  0.3398  0.4153
 6543TIP3    H143824   0.468   0.904  11.935 -0.0184 -0.1737  0.6627
 6543TIP3    H243825   0.617   0.928  11.925 -0.0997  0.4545  0.9131
 6544TIP3   OH243826   3.855   4.409  12.368 -0.3189  0.5327 -0.2327
 6544TIP3    H143827   3.886   4.320  12.378 -2.3236 -0.0492  1.4575
 6544TIP3    H243828   3.915   4.462  12.419 -0.3085 -0.1348  0.4536
 6545TIP3   OH243829   2.405   2.912  10.814  0.1525  0.4387 -0.2604
 6545TIP3    H143830   2.398   2.869  10.900 -2.6535  1.2359 -0.0008
 6545TIP3    H243831   2.488   2.880  10.778  1.8003  0.6415  3.0132
 6546TIP3   OH243832   2.842   2.623  11.185  0.2403 -0.1073  0.7177
 6546TIP3    H143833   2.900   2.648  11.257  1.3765 -1.9026  0.4888
 6546TIP3    H243834   2.801   2.705  11.157  1.5509  0.9816  1.8606
 6547TIP3   OH243835   2.546   5.289  12.679  0.0528  0.3877  0.2581
 6547TIP3    H143836   2.610   5.357  12.657  1.2081 -0.9502 -0.7103
 6547TIP3    H243837   2.586   5.241  12.751  0.1282 -0.3891 -0.2840
 6548TIP3   OH243838   7.076   0.207  11.327  0.6756  0.1303 -0.3086
 6548TIP3    H143839   7.138   0.185  11.258 -0.0693  1.1183 -1.3335
 6548TIP3    H243840   6.990   0.206  11.285 -0.2248 -2.4557  1.3663
 6549TIP3   OH243841   4.309   4.807  10.900  0.2777  0.5103  0.7032
 6549TIP3    H143842   4.351   4.782  10.982 -0.3214  0.2602  0.9441
 6549TIP3    H243843   4.380   4.840  10.845  0.8856 -0.5420  0.8411
 6550TIP3   OH243844   5.232   7.287  11.402  0.6567  0.3701 -0.4293
 6550TIP3    H143845   5.163   7.240  11.449  2.3500 -0.1510  1.6617
 6550TIP3    H243846   5.288   7.219  11.367  0.9760  0.8155 -0.8019
 6551TIP3   OH243847   4.274   2.763  12.057  0.0378  0.1368 -0.1725
 6551TIP3    H143848   4.223   2.686  12.030 -0.3064  0.5662 -0.7627
 6551TIP3    H243849   4.365   2.732  12.057 -0.1560 -0.4616  0.2910
 6552TIP3   OH243850   5.789   5.236  10.430  0.0488  0.0509 -0.5426
 6552TIP3    H143851   5.846   5.256  10.357  1.3212  0.0236  0.4139
 6552TIP3    H243852   5.756   5.148  10.411  1.4549 -0.5271 -0.4379
 6553TIP3   OH243853   1.900   0.177  12.628  0.5628  0.2004  0.2806
 6553TIP3    H143854   1.870   0.261  12.593  0.7752 -0.2253 -0.9857
 6553TIP3    H243855   1.988   0.167  12.591  0.4192 -0.7191  0.1852
 6554TIP3   OH243856   5.659   7.172  11.431  0.1039 -0.8777  0.2057
 6554TIP3    H143857   5.637   7.120  11.509  0.8832  0.4749  1.3716
 6554TIP3    H243858   5.752   7.156  11.418  0.2117 -0.2696  0.2035
 6555TIP3   OH243859   0.423   6.835  10.625 -0.2687  0.1970  0.1782
 6555TIP3    H143860   0.340   6.823  10.669 -0.5586 -1.3890 -0.7404
 6555TIP3    H243861   0.488   6.833  10.695 -0.8828  0.0747  0.7546
 6556TIP3   OH243862   7.535   4.954  11.692 -0.5995 -0.2731 -0.2702
 6556TIP3    H143863   7.498   5.029  11.739  0.3335 -0.1716  0.3325
 6556TIP3    H243864   7.627   4.977  11.678  0.4614 -2.3384  2.3177
 6557TIP3   OH243865   0.448   3.390  10.220 -0.0810 -0.0166 -0.2058
 6557TIP3    H143866   0.403   3.339  10.287  0.3895 -0.4313 -0.2004
 6557TIP3    H243867   0.386   3.459  10.196 -0.0505  0.4812  1.0484
 6558TIP3   OH243868   4.014   3.637  12.025  0.5530  0.2248  0.0597
 6558TIP3    H143869   3.964   3.585  12.089 -0.6902  1.8640  0.4981
 6558TIP3    H243870   4.058   3.572  11.970 -1.5618 -1.3169  0.0568
 6559TIP3   OH243871   6.356   2.510  11.229 -0.4192 -0.1976 -0.4341
 6559TIP3    H143872   6.334   2.601  11.249  0.9499  0.1714 -0.5130
 6559TIP3    H243873   6.398   2.513  11.143 -0.2673 -0.8857 -0.3938
 6560TIP3   OH243874   1.502   6.733  11.454 -0.1758  0.5083  0.5654
 6560TIP3    H143875   1.453   6.701  11.379 -1.5719  1.9424  0.8121
 6560TIP3    H243876   1.501   6.661  11.516 -1.1435  0.1622  0.1683
 6561TIP3   OH243877   4.991   4.297  12.286  0.7033  0.3243  0.1151
 6561TIP3    H143878   5.064   4.248  12.251  0.0732  0.2457 -1.1488
 6561TIP3    H243879   5.023   4.333  12.369  1.9842 -0.1134 -0.1757
 6562TIP3   OH243880   0.620   0.569  10.930 -0.2708 -0.0391  0.3830
 6562TIP3    H143881   0.706   0.531  10.950 -0.7453 -0.4473  1.7131
 6562TIP3    H243882   0.630   0.603  10.841  0.5701 -2.1074 -0.3754
 6563TIP3   OH243883   5.514   4.781  10.558 -0.0873 -0.3333  0.3882
 6563TIP3    H143884   5.508   4.851  10.622 -0.0667 -1.1089  1.2643
 6563TIP3    H243885   5.565   4.713  10.602  2.6149  0.2998 -1.5310
 6564TIP3   OH243886   0.355   4.993  11.505 -0.2545 -0.1353  0.3601
 6564TIP3    H143887   0.304   5.003  11.425 -0.6990 -1.4490  0.4576
 6564TIP3    H243888   0.370   4.899  11.512 -0.0341 -0.0136  1.7118
 6565TIP3   OH243889   4.848   5.385  10.934  0.1510  0.7368 -0.0048
 6565TIP3    H143890   4.894   5.309  10.971 -2.1575 -1.4972 -1.4094
 6565TIP3    H243891   4.874   5.386  10.842 -0.0621  1.5291 -0.0669
 6566TIP3   OH243892   6.284   7.595  12.058  0.3528  0.0381 -0.4749
 6566TIP3    H143893   6.344   7.569  11.988 -0.7422 -0.5459 -1.2484
 6566TIP3    H243894   6.217   7.647  12.013 -1.7150 -2.3436 -0.4072
 6567TIP3   OH243895   6.765   5.411  11.749 -0.6195 -0.0969 -0.1029
 6567TIP3    H143896   6.788   5.499  11.720 -0.0295 -0.4683 -0.8059
 6567TIP3    H243897   6.800   5.405  11.838  1.7260 -0.4913 -0.9821
 6568TIP3   OH243898   4.649   4.654  10.299  0.7112 -0.1628 -0.3940
 6568TIP3    H143899   4.721   4.626  10.241  0.2929 -1.2814 -0.3963
 6568TIP3    H243900   4.685   4.645  10.387  1.4152  1.7252 -0.4312
 6569TIP3   OH243901   1.588   6.051  10.944 -0.5774  0.3495 -0.1105
 6569TIP3    H143902   1.528   5.993  10.992 -1.4360  1.7322  0.5679
 6569TIP3    H243903   1.659   6.068  11.006  0.0355 -0.4974 -0.5587
 6570TIP3   OH243904   2.419   4.623  11.742  0.0794  0.1180 -0.8156
 6570TIP3    H143905   2.331   4.587  11.749 -0.0226  0.5495  0.2181
 6570TIP3    H243906   2.463   4.598  11.823  0.2727  1.5647 -0.4423
 6571TIP3   OH243907   5.475   6.691  12.662  0.0421  0.2892  0.1570
 6571TIP3    H143908   5.456   6.598  12.672 -0.9463  0.3334 -1.0451
 6571TIP3    H243909   5.437   6.732  12.739 -0.7454 -0.1576  0.0123
 6572TIP3   OH243910   1.269   4.457  10.899 -0.1679 -0.0017  0.3747
 6572TIP3    H143911   1.188   4.419  10.934 -1.0307 -0.5179 -2.0154
 6572TIP3    H243912   1.254   4.551  10.899 -0.3657 -0.0302  0.8558
 6573TIP3   OH243913   1.808   0.361  10.970 -0.3951  0.4394  0.2127
 6573TIP3    H143914   1.797   0.308  11.049 -0.9564 -0.3178 -0.3573
 6573TIP3    H243915   1.732   0.419  10.968 -0.4889  0.3123  0.1152
 6574TIP3   OH243916   0.031   2.527  10.710 -0.0584  0.1344  0.0980
 6574TIP3    H143917  -0.044   2.468  10.716 -0.9117  1.3250  1.8323
 6574TIP3    H243918   0.105   2.474  10.741 -0.3032 -0.8040 -0.8642
 6575TIP3   OH243919   3.557   3.411  12.210 -0.3028  0.3435 -0.3101
 6575TIP3    H143920   3.536   3.325  12.173  0.1704  0.2857 -0.4584
 6575TIP3    H243921   3.520   3.473  12.148  0.2709  0.2455 -0.7572
 6576TIP3   OH243922   3.046   4.175  11.774  0.1893  0.2533 -0.2535
 6576TIP3    H143923   3.092   4.204  11.695  0.7986 -1.5356 -0.6020
 6576TIP3    H243924   2.997   4.098  11.747 -0.2330  0.0779  0.9386
 6577TIP3   OH243925   7.334   7.471  10.600  0.3109 -0.2449  0.0812
 6577TIP3    H143926   7.296   7.558  10.606  1.2786  0.2252 -0.3439
 6577TIP3    H243927   7.427   7.484  10.615  0.3337 -1.3596  1.0571
 6578TIP3   OH243928   2.478   3.489  12.270  0.2030  0.4845  0.0086
 6578TIP3    H143929   2.505   3.567  12.319  0.8497 -0.3907  1.0896
 6578TIP3    H243930   2.388   3.472  12.299 -1.0031  2.3915 -2.3002
 6579TIP3   OH243931   7.548   2.955  11.942  0.6478  0.1849 -0.4403
 6579TIP3    H143932   7.595   2.969  12.024 -2.4112 -0.7775  1.6318
 6579TIP3    H243933   7.503   2.871  11.954  0.7593 -0.4392 -3.5018
 6580TIP3   OH243934   2.910   5.939  13.259 -0.2576 -0.0868 -0.5066
 6580TIP3    H143935   2.975   5.983  13.204 -0.2539  1.1066  0.4075
 6580TIP3    H243936   2.883   6.006  13.322 -1.6332 -0.8671 -0.2320
 6581TIP3   OH243937   1.153   4.594  11.871  0.1535 -0.2546  0.2824
 6581TIP3    H143938   1.187   4.505  11.856 -2.4688 -1.0699 -1.8469
 6581TIP3    H243939   1.075   4.580  11.926 -1.0082  0.4968 -1.1114
 6582TIP3   OH243940   2.782   5.345  10.969 -0.4510 -0.1114  0.4306
 6582TIP3    H143941   2.701   5.386  10.999  0.0358  0.8046  0.5067
 6582TIP3    H243942   2.779   5.353  10.874 -0.1427  0.5271  0.4694
 6583TIP3   OH243943   4.521   3.022  12.015 -0.0746  1.2188  0.1023
 6583TIP3    H143944   4.535   3.086  12.085  0.5160  0.2374  0.8967
 6583TIP3    H243945   4.426   3.021  12.002 -0.3363  0.4354  1.8459
 6584TIP3   OH243946   2.763   4.036  11.368 -0.1978  0.0314 -0.1157
 6584TIP3    H143947   2.841   3.986  11.391 -1.2236 -1.6554 -0.0575
 6584TIP3    H243948   2.761   4.109  11.430 -0.0720 -1.4006  1.6708
 6585TIP3   OH243949   2.728   2.791  12.274 -0.0870 -0.4989  0.2993
 6585TIP3    H143950   2.807   2.737  12.281 -1.7673 -3.1698  0.2595
 6585TIP3    H243951   2.758   2.880  12.290  3.1825 -1.1709 -1.2429
 6586TIP3   OH243952   4.546   4.957  11.165  0.2305  0.2151  0.8533
 6586TIP3    H143953   4.583   5.026  11.220 -2.7455  1.6766  1.2412
 6586TIP3    H243954   4.554   4.991  11.076 -2.1515  1.6877  1.1165
 6587TIP3   OH243955   4.003   3.714  11.189 -0.5696 -0.0607  0.1715
 6587TIP3    H143956   4.024   3.761  11.271 -0.7716  0.6141 -0.1604
 6587TIP3    H243957   3.984   3.625  11.217 -0.4020  0.1078  0.8415
 6588TIP3   OH243958   4.148   3.004  11.320 -0.1375 -0.4135 -0.3037
 6588TIP3    H143959   4.056   3.000  11.344  0.5337 -0.2021  2.7029
 6588TIP3    H243960   4.175   2.912  11.310 -0.2806 -0.5673  0.6497
 6589TIP3   OH243961   4.223   0.829  11.920  0.7338  0.1528 -0.1545
 6589TIP3    H143962   4.159   0.855  11.854  0.0785 -0.9335  0.0223
 6589TIP3    H243963   4.308   0.845  11.878  0.3455  0.9516 -0.6596
 6590TIP3   OH243964   0.868   4.648  13.093  0.0151 -0.2353 -0.4099
 6590TIP3    H143965   0.874   4.564  13.138 -1.1291 -0.1513 -0.0833
 6590TIP3    H243966   0.886   4.627  13.001  0.1652 -0.7586 -0.2675
 6591TIP3   OH243967   0.223   3.633  11.824  0.2801 -0.2466 -0.3815
 6591TIP3    H143968   0.218   3.594  11.737 -0.4812 -0.0596 -0.4274
 6591TIP3    H243969   0.281   3.709  11.814  2.7076 -1.9458 -0.0558
 6592TIP3   OH243970   1.485   7.677  10.239  0.2543 -0.3116  0.0313
 6592TIP3    H143971   1.512   7.651  10.152  0.7916 -0.6676  0.3017
 6592TIP3    H243972   1.565   7.703  10.284  0.1586 -1.2641  0.7978
 6593TIP3   OH243973   6.587   1.332  11.513 -0.5033 -0.1996 -0.1334
 6593TIP3    H143974   6.520   1.295  11.571 -1.1254 -0.3519 -0.9375
 6593TIP3    H243975   6.661   1.351  11.571 -1.5108  0.6672  0.9205
 6594TIP3   OH243976   6.614   4.905  11.886 -0.6264 -0.2077 -0.2540
 6594TIP3    H143977   6.707   4.923  11.872 -0.5700  0.6647  1.0185
 6594TIP3    H243978   6.577   4.990  11.911 -1.1072 -1.0740  2.3589
 6595TIP3   OH243979   3.616   2.511  11.349 -0.5148 -0.3604  0.3796
 6595TIP3    H143980   3.586   2.442  11.408 -0.6947  0.9439  1.8878
 6595TIP3    H243981   3.687   2.554  11.397 -1.2797  1.3143  0.0650
 6596TIP3   OH243982   0.316   1.013  11.449  0.2994  0.7355  0.0076
 6596TIP3    H143983   0.251   1.031  11.517  1.7475  0.3667  1.5807
 6596TIP3    H243984   0.389   1.071  11.470  1.5184 -0.6852 -0.0946
 6597TIP3   OH243985   0.530   6.174  11.797 -0.6440 -0.0388 -0.1106
 6597TIP3    H143986   0.573   6.154  11.879 -0.9879 -1.0765 -0.1782
 6597TIP3    H243987   0.437   6.155  11.812 -0.9406  1.1445 -0.2976
 6598TIP3   OH243988   3.502   3.769  12.977 -0.0672 -0.5399  0.0488
 6598TIP3    H143989   3.494   3.676  12.955  3.1273 -1.3546  1.6638
 6598TIP3    H243990   3.476   3.774  13.069 -0.9420  0.3445 -0.2328
 6599TIP3   OH243991   5.187   6.397  11.826 -0.3490 -0.0256 -0.8221
 6599TIP3    H143992   5.152   6.315  11.789  1.1860 -0.8052 -0.6321
 6599TIP3    H243993   5.171   6.462  11.758  0.1312 -0.9014 -1.8087
 6600TIP3   OH243994   3.849   7.584  13.066  0.0333 -0.4913  0.1931
 6600TIP3    H143995   3.931   7.598  13.019  0.1711  2.7363  1.1681
 6600TIP3    H243996   3.861   7.500  13.111  2.4047 -0.5574 -0.4501
 6601TIP3   OH243997   5.686   3.367  10.707  0.5238  0.7074  0.1850
 6601TIP3    H143998   5.686   3.414  10.624 -0.4591 -0.5554 -0.5714
 6601TIP3    H243999   5.723   3.281  10.686 -0.4800  0.0887  0.8540
 6602TIP3   OH244000   2.044   2.069  10.631  0.0125  0.5532 -0.6202
 6602TIP3    H144001   1.952   2.073  10.606 -0.1741  1.9952  0.2118
 6602TIP3    H244002   2.044   2.088  10.724  0.9871 -1.5982 -0.1075
 6603TIP3   OH244003   3.484   5.426  13.158 -0.1264 -0.3429  0.6446
 6603TIP3    H144004   3.419   5.363  13.189 -0.3488 -0.3389  0.1978
 6603TIP3    H244005   3.568   5.385  13.176 -0.2674 -0.7089  0.4847
 6604TIP3   OH244006   5.704   3.809  11.405  0.1587  0.2766 -0.3004
 6604TIP3    H144007   5.797   3.819  11.385  0.1224 -1.0089 -1.2886
 6604TIP3    H244008   5.681   3.887  11.455  2.3360 -0.5198  2.1474
 6605TIP3   OH244009   5.361   0.717  10.880 -0.0847  0.2298 -0.1895
 6605TIP3    H144010   5.348   0.665  10.801 -0.0916  0.2816 -0.2223
 6605TIP3    H244011   5.301   0.678  10.945  0.5124 -0.3273  0.0357
 6606TIP3   OH244012   4.844   1.566  11.167 -0.1219 -0.5129  0.2220
 6606TIP3    H144013   4.917   1.560  11.228 -0.8961 -0.0261  1.2362
 6606TIP3    H244014   4.822   1.660  11.166 -0.0415 -0.4893 -0.9198
 6607TIP3   OH244015   0.938   2.875  10.368  0.0000  0.5281  0.4988
 6607TIP3    H144016   1.015   2.831  10.404  0.2106  1.4703  1.2608
 6607TIP3    H244017   0.974   2.952  10.324 -0.3819  0.1046 -0.5757
 6608TIP3   OH244018   4.260   0.548  11.933  0.4860  0.2581 -0.6292
 6608TIP3    H144019   4.257   0.629  11.984 -1.0076  0.4854 -1.0449
 6608TIP3    H244020   4.169   0.521  11.924  0.8365 -0.6495 -1.7994
 6609TIP3   OH244021   6.991   1.956  10.773  0.0727 -0.3027 -0.3731
 6609TIP3    H144022   6.939   1.928  10.848  0.2498  3.4427  1.3472
 6609TIP3    H244023   6.930   2.009  10.720  1.2344  1.5216  0.0309
 6610TIP3   OH244024   2.761   5.792  19.441  0.3884 -0.2937  0.6758
 6610TIP3    H144025   2.705   5.718  19.416  0.4543 -0.6246  1.4969
 6610TIP3    H244026   2.699   5.862  19.461  0.3253 -0.1199 -0.0836
 6611TIP3   OH244027   5.704   2.612  11.812  1.0365  0.3189 -0.0326
 6611TIP3    H144028   5.696   2.662  11.731  1.2785  0.5322  0.0750
 6611TIP3    H244029   5.773   2.548  11.795  0.3072 -0.4038 -0.3843
 6612TIP3   OH244030   6.511   3.892  12.875  0.0398 -0.1398  0.0735
 6612TIP3    H144031   6.515   3.983  12.845 -1.8865  0.8260  2.4325
 6612TIP3    H244032   6.430   3.858  12.837  1.2918 -1.3272 -1.7084
 6613TIP3   OH244033   5.266   4.854  11.794 -0.6975  0.0275  0.0508
 6613TIP3    H144034   5.281   4.765  11.759  1.4001 -0.0646  1.0127
 6613TIP3    H244035   5.227   4.901  11.720 -1.9071 -1.6741 -0.4788
 6614TIP3   OH244036   0.812   7.316  10.762 -0.5638 -0.9253  0.1760
 6614TIP3    H144037   0.765   7.318  10.679 -2.3094  1.2496  1.1010
 6614TIP3    H244038   0.764   7.253  10.815 -3.2782  1.9317  1.4263
 6615TIP3   OH244039   6.082   0.499  11.380  0.1372  0.2192  0.0423
 6615TIP3    H144040   5.988   0.485  11.375  0.1392  0.1000  0.3060
 6615TIP3    H244041   6.119   0.434  11.319 -0.0588  1.8506 -1.9390
 6616TIP3   OH244042   6.249   6.652  10.949 -0.4247 -0.6049  0.6097
 6616TIP3    H144043   6.195   6.684  10.876 -0.2888 -1.5069  0.1049
 6616TIP3    H244044   6.197   6.583  10.989  0.1205 -1.1173  0.4518
 6617TIP3   OH244045   0.981   7.010  10.968  0.0063 -0.0089  0.0133
 6617TIP3    H144046   1.021   7.097  10.977  0.4907 -0.2724  0.3955
 6617TIP3    H244047   1.022   6.972  10.890  0.5667 -0.3129  0.4541
 6618TIP3   OH244048   3.685   1.725  10.872 -0.1791  0.1575  0.3406
 6618TIP3    H144049   3.668   1.743  10.965  0.2904  1.5198  0.1909
 6618TIP3    H244050   3.778   1.705  10.868 -0.2802 -0.3056  0.2076
 6619TIP3   OH244051   2.821   0.088  11.127  0.0154  0.4444 -0.2044
 6619TIP3    H144052   2.738   0.136  11.118  0.6606  1.4895 -0.7645
 6619TIP3    H244053   2.887   0.156  11.139  0.6253 -0.4438  1.8082
 6620TIP3   OH244054   2.484   6.536  11.678  0.4000 -0.0071  0.0576
 6620TIP3    H144055   2.542   6.532  11.603 -1.1303 -0.3340 -1.1618
 6620TIP3    H244056   2.414   6.597  11.652 -1.5594 -2.0880  0.1170
 6621TIP3   OH244057   4.955   2.204  10.870 -0.3416 -0.1480 -0.4533
 6621TIP3    H144058   4.914   2.132  10.823  0.3006  0.6425 -2.3187
 6621TIP3    H244059   4.888   2.271  10.874 -0.3318 -0.1391 -0.4359
 6622TIP3   OH244060   3.179   4.251  11.563 -0.4094  0.1464  0.4886
 6622TIP3    H144061   3.192   4.342  11.534 -0.7510  0.5028  1.4224
 6622TIP3    H244062   3.265   4.210  11.551 -0.4784  0.3397 -0.7905
 6623TIP3   OH244063   3.528   4.709  11.282  0.0168  0.2170  0.0467
 6623TIP3    H144064   3.508   4.785  11.228  0.9479  0.8944  0.6290
 6623TIP3    H244065   3.518   4.740  11.372 -3.2368 -1.3217  0.3878
 6624TIP3   OH244066   5.098   7.402  12.312 -0.1758  0.3412  0.1236
 6624TIP3    H144067   5.086   7.313  12.345  1.2368  1.0342  2.7721
 6624TIP3    H244068   5.191   7.408  12.292  0.0104  1.5896  1.2493
 6625TIP3   OH244069   3.793   2.740  11.449  0.1591  0.7248  0.3376
 6625TIP3    H144070   3.753   2.812  11.401  1.8995  2.5310  1.4293
 6625TIP3    H244071   3.761   2.750  11.538 -0.1665 -0.3338  0.3511
 6626TIP3   OH244072   3.182   5.138  11.686  0.3745 -0.4731 -0.2642
 6626TIP3    H144073   3.202   5.218  11.734  0.2533 -0.8613  0.4613
 6626TIP3    H244074   3.174   5.071  11.755 -2.2024 -0.5812 -0.5699
 6627TIP3   OH244075   1.436   6.475  12.217  0.2811 -0.0791  0.0628
 6627TIP3    H144076   1.454   6.560  12.178  0.9881 -0.1586  0.2138
 6627TIP3    H244077   1.460   6.411  12.150 -2.0725 -0.1485 -0.8104
 6628TIP3   OH244078   3.764   2.548  10.372  0.4100  0.0787 -0.2901
 6628TIP3    H144079   3.706   2.622  10.382 -0.7151 -0.5892 -1.4795
 6628TIP3    H244080   3.817   2.546  10.452 -0.9144  0.9543  0.6304
 6629TIP3   OH244081   1.929   5.260  10.825  0.1927 -0.2955 -0.5462
 6629TIP3    H144082   1.995   5.320  10.789 -0.6737  1.9261  1.3502
 6629TIP3    H244083   1.952   5.250  10.917 -2.7123  1.5481  0.5002
 6630TIP3   OH244084   6.988   2.888  12.462  0.1455  0.0980  0.4702
 6630TIP3    H144085   6.893   2.879  12.465  0.1134  0.6816  1.9652
 6630TIP3    H244086   7.019   2.847  12.543  1.0510  1.0949  0.6555
 6631TIP3   OH244087   2.224   0.865  13.090 -0.3283 -0.4371  0.0780
 6631TIP3    H144088   2.277   0.786  13.083 -0.1016 -0.3497  0.6740
 6631TIP3    H244089   2.138   0.840  13.057 -0.7373 -1.4202  1.7730
 6632TIP3   OH244090   1.560   0.012  11.521  0.2981 -0.3186  0.0530
 6632TIP3    H144091   1.635  -0.029  11.564  0.1264 -0.5762  0.1048
 6632TIP3    H244092   1.532  -0.052  11.455 -0.0617 -0.3487  0.2322
 6633TIP3   OH244093   2.829   0.590  12.842  0.2807  0.0146 -0.5245
 6633TIP3    H144094   2.809   0.668  12.791  1.9125  0.8376  0.0532
 6633TIP3    H244095   2.754   0.580  12.901  0.6363  1.9282  0.3230
 6634TIP3   OH244096   0.728   6.603  11.202  0.0717 -0.1278  0.3697
 6634TIP3    H144097   0.798   6.661  11.172  0.9619 -1.7839 -0.9303
 6634TIP3    H244098   0.649   6.658  11.200  1.3876  2.0085  2.6754
 6635TIP3   OH244099   1.807   1.863  13.067  0.3902 -0.5262  0.0679
 6635TIP3    H144100   1.814   1.769  13.054  1.0371 -0.4552 -0.1572
 6635TIP3    H244101   1.897   1.892  13.083  0.2179  0.0686  0.0021
 6636TIP3   OH244102   7.329   6.502  12.509 -0.4745 -0.1957 -0.3030
 6636TIP3    H144103   7.410   6.531  12.551  0.0775  0.3257 -1.6777
 6636TIP3    H244104   7.272   6.579  12.510 -0.0174  0.1874 -1.5199
 6637TIP3   OH244105   7.500   4.039  10.393  0.0286 -0.3826 -0.0670
 6637TIP3    H144106   7.494   3.987  10.313  0.0213  0.5176 -0.6533
 6637TIP3    H244107   7.588   4.075  10.393 -0.9211  2.1180 -1.2602
 6638TIP3   OH244108   2.013   4.139  12.235  0.2135  0.5174 -0.2797
 6638TIP3    H144109   2.088   4.144  12.294 -0.8513  1.3130  1.0808
 6638TIP3    H244110   1.977   4.228  12.234 -1.9975 -0.2791  0.9140
 6639TIP3   OH244111   3.502   0.155  13.062 -0.5415 -0.2320 -0.1010
 6639TIP3    H144112   3.508   0.098  13.138  0.6760  3.3365  2.7188
 6639TIP3    H244113   3.412   0.189  13.063 -0.3384  0.3058  0.1375
 6640TIP3   OH244114   4.814   0.779  11.761 -0.5006 -0.6194  0.4046
 6640TIP3    H144115   4.875   0.767  11.834 -0.2441 -1.0331  0.1292
 6640TIP3    H244116   4.763   0.698  11.759  0.8207 -1.4775 -1.0861
 6641TIP3   OH244117   2.788   7.247  11.143 -0.0280 -0.7715 -0.1889
 6641TIP3    H144118   2.707   7.298  11.137  0.6722  1.0242  3.0291
 6641TIP3    H244119   2.764   7.159  11.116 -3.2081 -0.3910  1.0152
 6642TIP3   OH244120   1.884   3.596  10.664  0.4266  0.8985 -0.6029
 6642TIP3    H144121   1.858   3.686  10.649 -1.0410  0.4869 -0.6215
 6642TIP3    H244122   1.935   3.572  10.587  0.8824  1.7193 -0.5625
 6643TIP3   OH244123   1.322   6.843  10.749 -0.1467  0.0112 -0.1513
 6643TIP3    H144124   1.262   6.776  10.717 -0.6788  0.2270  0.3815
 6643TIP3    H244125   1.398   6.836  10.691  0.5351 -2.1625  0.8967
 6644TIP3   OH244126   3.138   6.193  11.212  0.3212  0.0943 -0.2536
 6644TIP3    H144127   3.184   6.123  11.165 -0.3216  0.0819 -0.8801
 6644TIP3    H244128   3.197   6.267  11.210  0.5430 -0.0904 -0.5653
 6645TIP3   OH244129   7.498   3.286  11.906  0.3549  0.1490 -0.2237
 6645TIP3    H144130   7.476   3.265  11.815 -0.0559  2.0181 -0.5918
 6645TIP3    H244131   7.562   3.357  11.900 -0.3527  0.9194  0.9288
 6646TIP3   OH244132   5.279   1.229  11.374  0.2424  0.1163 -0.1502
 6646TIP3    H144133   5.328   1.167  11.319 -0.5972 -0.3895 -0.3444
 6646TIP3    H244134   5.208   1.259  11.318 -0.6329 -0.4112  0.6507
 6647TIP3   OH244135   5.759   6.408  11.307  0.1652 -0.0569  0.1018
 6647TIP3    H144136   5.739   6.315  11.298  1.8226 -0.4288 -0.0972
 6647TIP3    H244137   5.706   6.451  11.240  0.5965 -1.0604 -0.9169
 6648TIP3   OH244138   0.975   2.903  13.166  0.1486  0.0129 -0.1419
 6648TIP3    H144139   0.962   2.980  13.111  1.8419  0.0038 -0.6357
 6648TIP3    H244140   0.979   2.937  13.256  0.4753  0.4591 -0.3235
 6649TIP3   OH244141   4.059   4.210  11.037  0.5327  0.0615  0.1013
 6649TIP3    H144142   4.068   4.288  10.982  2.7122  0.4807  0.9505
 6649TIP3    H244143   4.096   4.140  10.984 -0.4492 -0.2325 -0.2327
 6650TIP3   OH244144   3.950   2.087  11.157  0.5488 -0.2306  0.1900
 6650TIP3    H144145   4.004   2.161  11.131 -0.0682  0.4587  0.8454
 6650TIP3    H244146   3.871   2.126  11.193  0.6096 -1.1786  1.4236
 6651TIP3   OH244147   7.349   5.321  10.910  0.1188  0.4808 -0.3443
 6651TIP3    H144148   7.293   5.291  10.839 -1.0776  0.9207  0.3727
 6651TIP3    H244149   7.310   5.404  10.938  2.2692  1.8098 -1.0683
 6652TIP3   OH244150   7.298   4.273  12.414  0.2049  0.0202 -0.3808
 6652TIP3    H144151   7.296   4.362  12.449 -2.0240  0.5887 -1.7969
 6652TIP3    H244152   7.316   4.218  12.491  3.3020  1.7085  0.2785
 6653TIP3   OH244153   2.922   7.107  10.787 -0.1058  0.3633 -0.8944
 6653TIP3    H144154   2.881   7.167  10.724 -0.2244 -0.4213 -1.5872
 6653TIP3    H244155   2.936   7.160  10.865 -1.1290  1.0381 -1.1404
 6654TIP3   OH244156   3.300   2.539  11.427  0.4197  0.4858  0.0635
 6654TIP3    H144157   3.380   2.488  11.413 -0.9882 -1.4382 -1.5524
 6654TIP3    H244158   3.242   2.480  11.475 -0.5508  1.3038 -0.0715
 6655TIP3   OH244159   0.716   1.609  11.705  0.0663 -0.2759 -0.0408
 6655TIP3    H144160   0.685   1.633  11.792 -1.1169 -2.4977  0.2265
 6655TIP3    H244161   0.636   1.600  11.653  0.5756 -1.3094 -0.6805
 6656TIP3   OH244162   4.537   2.614  13.426  0.0803  0.0078  0.3897
 6656TIP3    H144163   4.629   2.638  13.441 -0.0662  0.7734  0.1208
 6656TIP3    H244164   4.540   2.551  13.354  0.4354 -0.3940  0.7501
 6657TIP3   OH244165   0.732   1.646  12.497 -0.3712  0.4614  0.0981
 6657TIP3    H144166   0.746   1.660  12.403 -2.2702 -1.2042 -0.5193
 6657TIP3    H244167   0.680   1.721  12.525 -1.6146 -0.0531 -0.7226
 6658TIP3   OH244168   5.195   2.750  12.403 -0.3894 -0.2959  0.1679
 6658TIP3    H144169   5.180   2.775  12.494 -0.4852  1.4708 -0.2925
 6658TIP3    H244170   5.288   2.769  12.388 -0.7191  0.9097 -0.5035
 6659TIP3   OH244171   7.190   4.255  10.785 -0.6963  0.0340  0.4620
 6659TIP3    H144172   7.157   4.172  10.821  2.1668 -1.8603 -0.9258
 6659TIP3    H244173   7.210   4.308  10.862 -1.5840 -0.9853  1.4334
 6660TIP3   OH244174   3.769   7.326  12.289 -0.2349  0.1377  0.4173
 6660TIP3    H144175   3.851   7.345  12.243  0.1787 -0.2515  0.9763
 6660TIP3    H244176   3.721   7.409  12.289  0.4151  0.5214  0.5960
 6661TIP3   OH244177   6.448   0.174  11.276  0.2554  0.7627  0.2659
 6661TIP3    H144178   6.426   0.092  11.230 -0.1224 -0.3132  2.2638
 6661TIP3    H244179   6.364   0.217  11.290  0.0894 -0.0377  1.9148
 6662TIP3   OH244180   0.501   5.317  11.824 -0.5338 -0.3347  0.2944
 6662TIP3    H144181   0.475   5.272  11.904 -1.1439 -1.0015 -0.2609
 6662TIP3    H244182   0.444   5.280  11.756  1.1821 -1.1597 -0.7856
 6663TIP3   OH244183   2.595   3.456  10.264 -0.2678  0.0613 -0.0533
 6663TIP3    H144184   2.622   3.402  10.190  1.9776  1.4098 -0.2895
 6663TIP3    H244185   2.650   3.426  10.336 -0.3809  0.7293  0.3083
 6664TIP3   OH244186   4.949   1.323  11.328  0.6045 -0.0342  0.2707
 6664TIP3    H144187   4.930   1.230  11.333  3.4366 -0.8239 -1.7330
 6664TIP3    H244188   4.898   1.354  11.253 -2.8386  0.9284  2.7035
 6665TIP3   OH244189   0.147   0.021  11.627 -0.3713  0.3720 -0.0737
 6665TIP3    H144190   0.173  -0.035  11.701  0.1751  0.7890  0.0579
 6665TIP3    H244191   0.175  -0.027  11.549  1.2684  1.0258  0.0769
 6666TIP3   OH244192   0.315   3.481  13.155 -0.5265 -0.1489  0.2642
 6666TIP3    H144193   0.333   3.489  13.061  0.4726  1.3042  0.5413
 6666TIP3    H244194   0.233   3.529  13.168 -0.6848 -0.3821  0.1259
 6667TIP3   OH244195   7.306   7.082  10.655  0.3334 -0.2015  0.7112
 6667TIP3    H144196   7.229   7.092  10.599  1.7187  0.4772 -1.1667
 6667TIP3    H244197   7.362   7.021  10.608  0.7439 -1.1323  2.3310
 6668TIP3   OH244198   1.556   4.030  12.565 -0.2459  0.0610  0.5695
 6668TIP3    H144199   1.536   3.956  12.508  0.9680 -0.9561  1.4093
 6668TIP3    H244200   1.626   4.077  12.520 -0.8046  0.5285  0.1832
 6669TIP3   OH244201   1.124   4.815  10.541  0.1071  0.6054 -0.2325
 6669TIP3    H144202   1.144   4.877  10.610  0.5392 -0.8046  0.9592
 6669TIP3    H244203   1.207   4.801  10.496  0.2906  0.0204  0.2661
 6670TIP3   OH244204   0.924   2.975  12.380  0.7618 -0.0811 -0.0835
 6670TIP3    H144205   0.829   2.975  12.384  0.7760 -0.4918  0.2806
 6670TIP3    H244206   0.950   2.890  12.416  1.2425 -0.2165 -0.7132
 6671TIP3   OH244207   1.190   0.127  10.871 -0.0586 -0.6072  0.3058
 6671TIP3    H144208   1.263   0.090  10.822  0.4306  2.5929 -1.6443
 6671TIP3    H244209   1.226   0.143  10.959  1.7278  1.0264 -0.6543
 6672TIP3   OH244210   4.488   4.031  10.677  0.5071  0.5927 -0.1335
 6672TIP3    H144211   4.550   4.033  10.750 -0.0963  3.0092  0.3970
 6672TIP3    H244212   4.489   4.120  10.642 -2.8695  0.8634  0.1065
 6673TIP3   OH244213   3.085   0.214  12.360 -0.4783  0.7060 -0.4899
 6673TIP3    H144214   3.042   0.298  12.346 -1.3142  0.2204 -0.9528
 6673TIP3    H244215   3.013   0.155  12.384  0.3191  0.5075  1.5560
 6674TIP3   OH244216   5.999   4.707  10.204 -0.0745  0.0787  0.2819
 6674TIP3    H144217   5.989   4.707  10.299  1.5099  0.2658  0.4741
 6674TIP3    H244218   5.931   4.766  10.173  1.1081  2.2598  1.5395
 6675TIP3   OH244219   5.611   4.583  12.635 -0.0770 -0.1530 -0.1168
 6675TIP3    H144220   5.592   4.669  12.598 -1.5393 -0.5202 -0.2951
 6675TIP3    H244221   5.701   4.589  12.666  0.3369  0.9722 -1.4484
 6676TIP3   OH244222   2.409   0.978  10.316 -0.7758 -0.0795  0.4083
 6676TIP3    H144223   2.389   0.899  10.267 -1.5507 -0.3678  1.1585
 6676TIP3    H244224   2.347   1.043  10.285  2.1853  1.4639 -2.9306
 6677TIP3   OH244225   3.727   2.183  12.962 -0.6435 -0.4204  0.6118
 6677TIP3    H144226   3.652   2.151  12.911  1.3385 -0.6147 -2.4332
 6677TIP3    H244227   3.694   2.264  13.003 -2.2027  0.2574 -1.7364
 6678TIP3   OH244228   2.466   6.393  10.366  0.5893 -0.0695  0.0961
 6678TIP3    H144229   2.496   6.414  10.454  0.1266 -0.6762  0.4044
 6678TIP3    H244230   2.524   6.323  10.336  1.5193  0.9496 -0.5631
 6679TIP3   OH244231   6.033   7.549  12.521  0.2081 -0.3254  0.6969
 6679TIP3    H144232   6.101   7.608  12.551  0.6421 -0.0760 -0.7026
 6679TIP3    H244233   5.956   7.573  12.572  0.6880  0.6390  0.9832
 6680TIP3   OH244234   6.908   0.100  10.611  0.0394 -0.4632 -0.4383
 6680TIP3    H144235   6.814   0.115  10.613  0.0779  0.2616 -2.2665
 6680TIP3    H244236   6.946   0.183  10.641  0.0959 -0.3546 -0.7997
 6681TIP3   OH244237   0.953   2.899  11.662 -0.3239 -0.1871 -0.2826
 6681TIP3    H144238   0.881   2.938  11.710 -1.0223 -1.8093  0.0725
 6681TIP3    H244239   1.032   2.928  11.708 -0.7327  1.4235 -0.5412
 6682TIP3   OH244240   7.071   5.778  10.833 -0.0091  0.2466  0.8034
 6682TIP3    H144241   7.029   5.859  10.863  0.5450  1.3765 -1.2490
 6682TIP3    H244242   7.010   5.743  10.768  0.8162  0.3142 -0.0294
 6683TIP3   OH244243   0.163   0.587  11.968 -0.0268 -0.6375 -0.2442
 6683TIP3    H144244   0.174   0.660  11.908 -1.8049  0.1924  0.3789
 6683TIP3    H244245   0.237   0.594  12.029  0.5014 -0.1234 -0.9315
 6684TIP3   OH244246   4.876   4.604  10.943 -0.2099  0.3013 -0.6126
 6684TIP3    H144247   4.846   4.668  11.007 -1.8649  0.2127 -1.2659
 6684TIP3    H244248   4.798   4.557  10.917  0.8356 -1.4000 -0.8248
 6685TIP3   OH244249   1.226   3.444  10.761 -0.1800 -0.5941 -0.0306
 6685TIP3    H144250   1.239   3.414  10.671  1.5025  1.3377 -0.4929
 6685TIP3    H244251   1.314   3.449  10.798 -0.6689  0.5103  1.0625
 6686TIP3   OH244252   0.427   4.758  11.587 -0.0558 -0.3137 -0.0500
 6686TIP3    H144253   0.369   4.683  11.603 -0.3712 -0.0684 -0.0400
 6686TIP3    H244254   0.514   4.719  11.580 -0.4796 -0.9890 -2.4269
 6687TIP3   OH244255   3.985   0.902  10.798  0.6569  0.1454 -0.6682
 6687TIP3    H144256   3.930   0.842  10.747 -0.5228  0.8589 -0.2727
 6687TIP3    H244257   3.992   0.861  10.884 -0.6934  0.8444 -0.1937
 6688TIP3   OH244258   6.852   4.843  11.123  0.0935  0.1072 -0.4815
 6688TIP3    H144259   6.818   4.878  11.205  0.1725  0.2077 -0.4917
 6688TIP3    H244260   6.940   4.880  11.116  1.4061 -2.4300  1.0566
 6689TIP3   OH244261   5.976   7.247  10.654  0.2013 -0.2431  0.0579
 6689TIP3    H144262   5.918   7.179  10.619  1.0099 -0.2127 -1.4247
 6689TIP3    H244263   5.934   7.329  10.631 -0.6086 -0.2002  1.5601
 6690TIP3   OH244264   1.166   0.517  12.410  0.8648 -0.4060  0.0576
 6690TIP3    H144265   1.165   0.449  12.477  1.8093 -0.6611 -0.1754
 6690TIP3    H244266   1.159   0.469  12.327  0.6198 -0.1568 -0.0687
 6691TIP3   OH244267   5.043   3.853  11.092 -0.4559 -0.0689 -0.1140
 6691TIP3    H144268   5.122   3.835  11.041 -0.6556 -1.3651 -0.0162
 6691TIP3    H244269   4.993   3.914  11.039 -0.1747 -0.5787 -0.9909
 6692TIP3   OH244270   6.596   1.376  12.150  0.3396  0.1707  0.1653
 6692TIP3    H144271   6.521   1.433  12.165  0.4205  0.4760 -0.5634
 6692TIP3    H244272   6.672   1.433  12.156  0.9095 -0.6340  4.3384
 6693TIP3   OH244273   5.084   5.216  11.028 -0.6745  0.3341 -0.1619
 6693TIP3    H144274   5.137   5.245  10.953  1.4100 -1.3641  0.5728
 6693TIP3    H244275   5.148   5.195  11.096 -2.1470 -2.9446  0.4014
 6694TIP3   OH244276   2.122   0.048  11.216  0.0285  0.5820  0.2796
 6694TIP3    H144277   2.134   0.104  11.139  0.3012  2.4671  1.6263
 6694TIP3    H244278   2.203   0.059  11.266  0.1639 -1.1880  0.5328
 6695TIP3   OH244279   2.332   1.776  10.164  0.2527  0.5881 -0.3862
 6695TIP3    H144280   2.308   1.687  10.138  0.8776  0.7527 -1.6088
 6695TIP3    H244281   2.367   1.816  10.084  1.0016  1.5769  0.4029
 6696TIP3   OH244282   6.882   1.468  12.034  0.0249 -0.0986  0.9055
 6696TIP3    H144283   6.977   1.482  12.034 -0.1639  1.3780  0.0682
 6696TIP3    H244284   6.871   1.379  12.000  1.0498  0.5982 -1.4689
 6697TIP3   OH244285   6.302   6.289  10.684  0.0714  0.2296  0.1276
 6697TIP3    H144286   6.357   6.324  10.755 -1.1259 -0.4812  1.4564
 6697TIP3    H244287   6.222   6.341  10.688 -0.4124 -0.4899 -0.0110
 6698TIP3   OH244288   4.433   7.135  11.690  0.3360  0.6730  0.3301
 6698TIP3    H144289   4.448   7.227  11.670 -0.7846  1.1801  1.6549
 6698TIP3    H244290   4.513   7.106  11.734  0.9427  0.8198 -0.6573
 6699TIP3   OH244291   0.877   1.567  12.727 -0.0489 -0.2958  0.0311
 6699TIP3    H144292   0.964   1.604  12.709  0.9948 -3.0306 -1.1823
 6699TIP3    H244293   0.830   1.575  12.644 -0.7761  0.6476  0.5192
 6700TIP3   OH244294   5.351   2.177  11.136 -0.5652 -0.3176  0.4751
 6700TIP3    H144295   5.344   2.261  11.089 -0.8167  0.4350  1.8080
 6700TIP3    H244296   5.261   2.145  11.139 -0.3467 -1.1542 -0.8842
 6701TIP3   OH244297   1.925   5.688  11.142 -0.3640 -0.4360  0.0357
 6701TIP3    H144298   1.898   5.608  11.189  0.0149 -0.0856  0.8743
 6701TIP3    H244299   2.010   5.710  11.180 -0.9325  0.9532  0.5733
 6702TIP3   OH244300   2.278   0.558  11.131 -0.3584 -0.3689 -0.3991
 6702TIP3    H144301   2.195   0.533  11.173 -0.1979  1.3526  1.0364
 6702TIP3    H244302   2.320   0.617  11.193  0.7871  0.7894 -2.1867
 6703TIP3   OH244303   5.121   6.850  11.024  0.2544 -0.5531 -0.3349
 6703TIP3    H144304   5.046   6.820  11.076  0.7657 -1.2654  0.0123
 6703TIP3    H244305   5.132   6.942  11.048  0.4535 -0.8582  0.7898
 6704TIP3   OH244306   5.880   1.770  12.858  0.2253  0.0110  0.0881
 6704TIP3    H144307   5.863   1.761  12.765  0.0653 -1.7450  0.2555
 6704TIP3    H244308   5.966   1.730  12.871 -0.2912 -0.8851  0.8588
 6705TIP3   OH244309   0.923   2.675  10.684 -0.2381  0.3176  0.5106
 6705TIP3    H144310   0.943   2.769  10.694  0.1666  0.3458 -0.3869
 6705TIP3    H244311   0.934   2.639  10.771  0.4651  0.9665  0.7100
 6706TIP3   OH244312   4.125   6.806  11.066 -0.8062 -0.2063  0.2380
 6706TIP3    H144313   4.213   6.776  11.088 -0.5223  0.0044 -0.5818
 6706TIP3    H244314   4.066   6.746  11.112 -0.2386  0.0553  1.3316
 6707TIP3   OH244315   1.605   6.744  11.849 -0.4748  0.2647 -0.0942
 6707TIP3    H144316   1.682   6.739  11.793  0.0601 -2.2873  0.7283
 6707TIP3    H244317   1.600   6.836  11.875  2.2601  0.5225 -0.2135
 6708TIP3   OH244318   4.492   4.664  11.394 -0.8514 -0.2933 -0.5418
 6708TIP3    H144319   4.418   4.605  11.408 -1.6187  0.4186 -1.5174
 6708TIP3    H244320   4.456   4.739  11.346  0.4534  0.1716 -0.8582
 6709TIP3   OH244321   4.521   3.520  11.719  0.4711  0.1849  0.0257
 6709TIP3    H144322   4.494   3.439  11.677 -0.7135  0.4093  0.3190
 6709TIP3    H244323   4.602   3.545  11.674  1.5441 -1.7717  0.7451
 6710TIP3   OH244324   7.191   3.479  10.995 -0.2852 -0.0967 -0.1924
 6710TIP3    H144325   7.259   3.489  11.062 -0.5699 -0.7764  0.2079
 6710TIP3    H244326   7.178   3.568  10.960  0.7335  0.0575 -0.2058
 6711TIP3   OH244327   5.089   6.582  11.650 -0.2071 -0.2359 -0.2523
 6711TIP3    H144328   5.081   6.666  11.605 -0.2437  0.4171  0.9426
 6711TIP3    H244329   5.017   6.581  11.712  1.1284 -0.1084  1.3561
 6712TIP3   OH244330   6.212   7.077  12.094 -0.3558 -0.0566  0.0972
 6712TIP3    H144331   6.170   7.121  12.020 -1.3881  0.6401  1.0705
 6712TIP3    H244332   6.274   7.142  12.128  1.1713 -0.8769 -0.9820
 6713TIP3   OH244333   3.539   0.374  11.145 -0.0358 -0.1656 -0.6091
 6713TIP3    H144334   3.508   0.292  11.108  0.3274 -0.8518  0.5416
 6713TIP3    H244335   3.485   0.441  11.103 -0.8355 -1.0501 -1.0437
 6714TIP3   OH244336   0.879   0.152  11.172 -0.7577  0.1777  0.3118
 6714TIP3    H144337   0.914   0.093  11.104  0.6233 -0.3579  1.4524
 6714TIP3    H244338   0.916   0.119  11.254  0.7898  3.1516  0.9260
 6715TIP3   OH244339   3.130   4.689  10.425 -0.0535 -0.3950  0.4921
 6715TIP3    H144340   3.095   4.612  10.469 -0.5254  0.9299  2.5790
 6715TIP3    H244341   3.060   4.717  10.366 -0.1726 -1.1057  0.2861
 6716TIP3   OH244342   2.267   5.917  10.985 -0.0328 -0.2264 -0.0630
 6716TIP3    H144343   2.337   5.909  10.919  0.4839  0.6154  0.3767
 6716TIP3    H244344   2.234   5.827  10.994  0.2310 -0.4460 -1.0942
 6717TIP3   OH244345   3.994   7.288  12.124 -0.0587 -0.5877  0.2006
 6717TIP3    H144346   4.006   7.207  12.074 -1.2135  0.2012 -1.4522
 6717TIP3    H244347   4.002   7.358  12.059 -0.0868  0.5873  1.4140
 6718TIP3   OH244348   0.140   4.985  11.733  0.8457 -0.2616  0.2014
 6718TIP3    H144349   0.204   4.996  11.662  0.6926 -1.7358 -0.2174
 6718TIP3    H244350   0.188   4.937  11.801  0.0436 -2.0797 -0.4340
 6719TIP3   OH244351   7.505   5.105  13.094  0.0423 -0.5501  0.1068
 6719TIP3    H144352   7.588   5.070  13.064  0.9038  0.4421  1.2280
 6719TIP3    H244353   7.474   5.041  13.158 -0.9790 -1.8197 -1.5761
 6720TIP3   OH244354   5.900   2.644  10.582  0.9427  0.5886  0.2121
 6720TIP3    H144355   5.939   2.718  10.536 -0.2208  1.9576  1.3338
 6720TIP3    H244356   5.906   2.668  10.675 -1.9786  0.6238  0.4746
 6721TIP3   OH244357   5.621   6.799  13.175 -0.3600 -0.1901  0.4109
 6721TIP3    H144358   5.707   6.761  13.158  1.0515  1.6879  2.7158
 6721TIP3    H244359   5.574   6.733  13.225 -0.5324 -1.4236 -1.2775
 6722TIP3   OH244360   2.360   7.312  11.643 -0.3363  0.8252 -0.4653
 6722TIP3    H144361   2.363   7.218  11.626  0.3248  0.9974 -1.3530
 6722TIP3    H244362   2.322   7.349  11.564  2.1324  1.5716 -1.3928
 6723TIP3   OH244363   3.363   3.810  11.740  0.2920  0.3556  0.6713
 6723TIP3    H144364   3.457   3.828  11.737  0.2294  0.6628  0.4754
 6723TIP3    H244365   3.354   3.741  11.806  0.6841  0.1337  0.4997
 6724TIP3   OH244366   6.827   6.200  11.097 -0.4580  0.5647  0.6907
 6724TIP3    H144367   6.773   6.214  11.020  0.8035  2.1305  0.0257
 6724TIP3    H244368   6.864   6.113  11.086  0.1151  0.9684 -0.7798
 6725TIP3   OH244369   4.309   4.070  11.331 -0.3287  0.7759  0.2144
 6725TIP3    H144370   4.363   4.001  11.368 -0.0472  0.5317 -0.6182
 6725TIP3    H244371   4.349   4.088  11.246  0.4157  2.8968  0.9562
 6726TIP3   OH244372   3.400   6.193  10.420  0.0608 -0.3927 -0.9362
 6726TIP3    H144373   3.403   6.159  10.330 -0.1546  1.1714 -1.5734
 6726TIP3    H244374   3.371   6.118  10.473  1.2187 -1.6383 -1.9979
 6727TIP3   OH244375   7.311   5.986  12.070  0.2666 -0.2666  0.1210
 6727TIP3    H144376   7.310   5.896  12.039  0.3578 -0.0987 -0.3874
 6727TIP3    H244377   7.265   5.984  12.154 -1.1750 -0.5190 -0.6413
 6728TIP3   OH244378   5.582   3.540  11.643 -0.3965 -0.1475  0.0969
 6728TIP3    H144379   5.536   3.571  11.565  0.0427 -0.2821 -0.2184
 6728TIP3    H244380   5.561   3.605  11.710 -0.5732  0.1049 -0.1972
 6729TIP3   OH244381   6.646   3.547  12.302 -0.0929 -0.2996 -0.0174
 6729TIP3    H144382   6.649   3.625  12.358 -2.3510  0.5920 -0.9931
 6729TIP3    H244383   6.642   3.474  12.363  1.5234  0.3458  0.9219
 6730TIP3   OH244384   0.426   2.241  12.304 -0.4078 -0.2200  0.0309
 6730TIP3    H144385   0.427   2.171  12.370 -1.2132  1.2682  1.7229
 6730TIP3    H244386   0.381   2.202  12.229 -3.1947 -0.8397  1.8426
 6731TIP3   OH244387   0.616   3.291  12.218 -0.2027 -0.2224  0.0039
 6731TIP3    H144388   0.525   3.277  12.191  0.2969 -2.1346 -0.8809
 6731TIP3    H244389   0.642   3.372  12.174 -1.0538 -0.4194 -0.9096
 6732TIP3   OH244390   4.777   0.344  11.999  0.3095  0.1362  0.0303
 6732TIP3    H144391   4.823   0.310  12.076 -0.9505 -0.2572  0.6267
 6732TIP3    H244392   4.822   0.426  11.979  3.0618 -1.5087 -1.0926
 6733TIP3   OH244393   3.615   2.768  10.449  0.6580  0.4072  0.3588
 6733TIP3    H144394   3.541   2.783  10.508  0.5290 -1.2086  0.6525
 6733TIP3    H244395   3.579   2.783  10.362 -0.1561 -0.7367  0.4688
 6734TIP3   OH244396   4.192   2.081  10.886 -0.4335 -0.2779 -0.0181
 6734TIP3    H144397   4.251   2.068  10.960 -1.4382 -0.1343  0.8366
 6734TIP3    H244398   4.115   2.029  10.909 -0.5504 -0.6552 -1.2216
 6735TIP3   OH244399   2.924   7.606  12.369  0.3043  0.7351 -0.0465
 6735TIP3    H144400   2.996   7.544  12.357 -0.3638 -0.0539  0.0313
 6735TIP3    H244401   2.890   7.587  12.457 -0.3468  0.7472 -0.2946
 6736TIP3   OH244402   7.119   0.345  12.102  0.4408  0.2330  0.1421
 6736TIP3    H144403   7.140   0.432  12.067  0.0441 -0.4434 -1.9532
 6736TIP3    H244404   7.023   0.344  12.107  0.4535 -0.0165  0.3137
 6737TIP3   OH244405   7.238   2.427  11.863  0.1247 -0.4949 -0.1461
 6737TIP3    H144406   7.260   2.386  11.947 -0.0820 -1.7151 -0.6661
 6737TIP3    H244407   7.313   2.408  11.807 -0.0468 -0.2923 -0.4460
 6738TIP3   OH244408   7.288   6.454  11.224  0.0193 -0.9012 -0.2010
 6738TIP3    H144409   7.213   6.508  11.248  0.8384  0.0068  0.3953
 6738TIP3    H244410   7.272   6.371  11.268 -0.5065 -0.6211  0.1539
 6739TIP3   OH244411   2.513   2.513  11.292  0.0592  0.9684 -0.7422
 6739TIP3    H144412   2.448   2.560  11.345  0.4207 -0.1744  0.8044
 6739TIP3    H244413   2.509   2.423  11.325  0.7422  0.3434 -2.2920
 6740TIP3   OH244414   7.113   5.788  11.776 -0.5616 -0.3197  0.2382
 6740TIP3    H144415   7.044   5.805  11.840 -0.2423 -0.7214  0.6983
 6740TIP3    H244416   7.168   5.721  11.817 -0.7890 -1.1638 -0.7739
 6741TIP3   OH244417   7.054   4.247  12.633 -0.0329 -0.1515 -0.1954
 6741TIP3    H144418   7.020   4.239  12.722 -1.1524 -1.9619 -0.7462
 6741TIP3    H244419   7.140   4.205  12.636  0.9962  1.8385  0.5058
 6742TIP3   OH244420   7.486   0.042  12.000 -0.7391 -0.0878  0.2558
 6742TIP3    H144421   7.570   0.085  12.018  0.4858 -2.0165 -0.6129
 6742TIP3    H244422   7.439   0.045  12.084  0.4769  0.3981  0.9397
 6743TIP3   OH244423   1.385   3.823  12.882  0.4221  0.1462 -0.2064
 6743TIP3    H144424   1.307   3.858  12.924  0.6408  1.0959 -0.5762
 6743TIP3    H244425   1.458   3.852  12.937  0.5975  0.1584 -0.4402
 6744TIP3   OH244426   5.843   0.287  10.989  0.1998 -0.3741  0.1023
 6744TIP3    H144427   5.853   0.355  10.923 -2.5567 -0.3557 -0.3880
 6744TIP3    H244428   5.763   0.240  10.965  0.1130 -1.5776  2.3712
 6745TIP3   OH244429   0.600   3.917  10.854  0.0201  0.0466 -0.4999
 6745TIP3    H144430   0.613   3.823  10.861  0.1735  0.1333  0.4862
 6745TIP3    H244431   0.603   3.949  10.944 -0.4569  0.9391 -0.7835
 6746TIP3   OH244432   3.919   7.417  10.831  0.4313 -0.1127 -0.9007
 6746TIP3    H144433   3.858   7.369  10.774  0.0355  1.3399 -1.7629
 6746TIP3    H244434   3.910   7.375  10.916 -0.9485 -0.6601 -1.2865
 6747TIP3   OH244435   1.272   1.923  12.773  0.3171 -0.1777 -0.2710
 6747TIP3    H144436   1.350   1.975  12.758  0.5743 -0.1702  0.9882
 6747TIP3    H244437   1.290   1.876  12.855 -0.5188 -1.0741 -0.5847
 6748TIP3   OH244438   5.016   4.124  12.797  0.1503 -0.2650 -0.3722
 6748TIP3    H144439   4.970   4.175  12.864 -0.1608 -1.3602  0.2807
 6748TIP3    H244440   4.950   4.060  12.767  0.1041  0.5558 -2.1389
 6749TIP3   OH244441   1.142   4.128  11.374  0.0977 -0.6144 -0.0128
 6749TIP3    H144442   1.137   4.106  11.467  0.2130  0.3376  0.2313
 6749TIP3    H244443   1.054   4.155  11.351  0.0690 -0.8540 -0.1824
 6750TIP3   OH244444   6.542   6.184  10.573  0.0838 -0.6008 -0.0503
 6750TIP3    H144445   6.534   6.171  10.479  0.5796 -0.3447 -0.1306
 6750TIP3    H244446   6.458   6.222  10.600  0.2819  0.2161 -0.5463
 6751TIP3   OH244447   3.744   1.233  10.659  0.6841 -0.0851  0.0579
 6751TIP3    H144448   3.675   1.238  10.594  0.0047 -0.1240  0.7654
 6751TIP3    H244449   3.825   1.249  10.610  0.0031  2.2310 -0.4127
 6752TIP3   OH244450   7.140   7.220  11.913  0.1291  0.0042  0.3879
 6752TIP3    H144451   7.101   7.133  11.923  0.7926 -0.7496 -2.4948
 6752TIP3    H244452   7.193   7.213  11.834  2.3174  2.3348  1.4998
 6753TIP3   OH244453   7.497   4.233  10.907 -0.5395  0.4105 -0.2252
 6753TIP3    H144454   7.482   4.271  10.994  1.1825  1.7334 -0.4623
 6753TIP3    H244455   7.418   4.254  10.858 -1.4029 -0.0797  0.8958
 6754TIP3   OH244456   2.735   4.709  11.964  0.0671  0.4522 -0.2461
 6754TIP3    H144457   2.644   4.714  11.995 -0.2432  1.6954 -1.2611
 6754TIP3    H244458   2.730   4.737  11.873  1.3004 -0.7337 -0.6982
 6755TIP3   OH244459   6.862   2.368  10.844 -0.2160 -0.1171 -0.1958
 6755TIP3    H144460   6.823   2.418  10.773 -0.1918  2.1174  1.2524
 6755TIP3    H244461   6.955   2.391  10.842  0.0519 -1.1305 -0.2662
 6756TIP3   OH244462   0.991   4.271  11.147 -0.5177 -0.1109  0.1124
 6756TIP3    H144463   1.005   4.365  11.154  1.6880 -0.3843 -0.0345
 6756TIP3    H244464   1.047   4.243  11.074  0.2562 -1.7741  1.2735
 6757TIP3   OH244465   6.707   6.778  11.704 -0.3845  0.4800 -0.0472
 6757TIP3    H144466   6.700   6.720  11.628  0.9709  0.3879 -0.1216
 6757TIP3    H244467   6.652   6.737  11.770 -0.6971 -0.0396 -0.6179
 6758TIP3   OH244468   5.185   0.218  12.405  1.0045 -0.1560  0.1061
 6758TIP3    H144469   5.200   0.126  12.387  0.1669 -0.2913  0.0368
 6758TIP3    H244470   5.192   0.261  12.320  0.7399 -0.2586  0.0301
 6759TIP3   OH244471   4.993   1.046  11.395 -0.7097 -0.2741  0.1810
 6759TIP3    H144472   4.962   0.966  11.437  0.9940 -2.2107 -1.9745
 6759TIP3    H244473   5.088   1.044  11.408 -0.6989  1.8203  0.7096
 6760TIP3   OH244474   2.191   5.654  12.460 -0.2005 -0.2036  0.4219
 6760TIP3    H144475   2.280   5.619  12.467 -0.7671 -1.7487  0.2580
 6760TIP3    H244476   2.188   5.724  12.525  0.9284 -0.5798  0.9078
 6761TIP3   OH244477   6.978   1.225  11.368  0.0166  0.6531 -0.1273
 6761TIP3    H144478   7.039   1.161  11.332  0.9903  2.3230 -1.5700
 6761TIP3    H244479   6.892   1.197  11.335  0.2574 -0.4975  0.1691
 6762TIP3   OH244480   3.139   5.293  13.124 -0.2287 -0.0468 -0.4603
 6762TIP3    H144481   3.066   5.354  13.108 -0.0521 -0.0571 -1.3528
 6762TIP3    H244482   3.197   5.306  13.049  1.9809  1.8139  1.4296
 6763TIP3   OH244483   1.683   6.927  12.311  0.4017 -0.0037 -0.3957
 6763TIP3    H144484   1.656   6.861  12.374  0.8634  0.3005  0.1375
 6763TIP3    H244485   1.602   6.962  12.275  0.1265 -0.0979  0.1239
 6764TIP3   OH244486   5.089   6.571  11.247  0.5917 -0.1336 -0.1719
 6764TIP3    H144487   5.158   6.579  11.313  0.8640  0.3418 -0.5080
 6764TIP3    H244488   5.038   6.651  11.256 -0.6140 -0.9863  0.8426
 6765TIP3   OH244489   0.859   3.194  12.238  0.2395 -0.3779  0.6289
 6765TIP3    H144490   0.886   3.130  12.303 -0.3613 -1.5549 -0.2414
 6765TIP3    H244491   0.772   3.222  12.267  0.2301 -0.4445  0.6658
 6766TIP3   OH244492   7.192   2.668  11.458 -0.3346 -0.4413  0.4053
 6766TIP3    H144493   7.241   2.697  11.381 -0.5302 -1.0746  0.0371
 6766TIP3    H244494   7.105   2.647  11.424 -1.3535  1.9796  1.2519
 6767TIP3   OH244495   3.681   7.344  11.996 -0.1789  0.1670 -0.3783
 6767TIP3    H144496   3.632   7.424  11.978 -0.0873  0.2523 -0.2537
 6767TIP3    H244497   3.684   7.339  12.092  0.2874  0.3065 -0.3825
 6768TIP3   OH244498   7.356   2.072  12.106 -0.0188  0.6037  0.2285
 6768TIP3    H144499   7.347   2.166  12.088 -0.1100  0.7768  1.1391
 6768TIP3    H244500   7.331   2.030  12.024 -1.1022  1.3365  0.1616
 6769TIP3   OH244501   7.089   5.033  11.528  0.6257 -0.0890  0.2407
 6769TIP3    H144502   7.144   5.104  11.496  0.1578 -0.5549 -1.7430
 6769TIP3    H244503   7.010   5.075  11.560  0.8148  0.3632  0.1166
 6770TIP3   OH244504   0.853   2.861  11.386 -0.7644  0.3108 -0.3912
 6770TIP3    H144505   0.831   2.947  11.350 -1.1076 -0.1430 -1.2887
 6770TIP3    H244506   0.875   2.879  11.478 -1.3355  1.2838 -0.4244
 6771TIP3   OH244507   0.161   4.307  12.337  0.5766 -0.0908 -0.5775
 6771TIP3    H144508   0.097   4.235  12.340  0.4111  0.0335 -0.9762
 6771TIP3    H244509   0.245   4.264  12.318  0.7801 -0.3490  0.8293
 6772TIP3   OH244510   3.753   1.606  12.299  0.0950  0.2446 -0.0997
 6772TIP3    H144511   3.721   1.581  12.212  0.5376 -1.2566  0.1403
 6772TIP3    H244512   3.775   1.699  12.291 -1.2443  0.4888 -1.1675
 6773TIP3   OH244513   0.202   5.866  12.123 -0.2405  0.1638 -0.3562
 6773TIP3    H144514   0.195   5.776  12.092 -0.0760 -0.5736  1.5911
 6773TIP3    H244515   0.111   5.896  12.130 -0.4663 -0.7343  1.2413
 6774TIP3   OH244516   4.453   7.379  11.639  0.7057 -0.5948  1.0168
 6774TIP3    H144517   4.368   7.385  11.682 -1.2349 -0.1960 -2.4492
 6774TIP3    H244518   4.497   7.462  11.658 -2.2193  1.7944 -1.5561
 6775TIP3   OH244519   0.265   7.162  12.327 -0.2252  0.9686 -0.1007
 6775TIP3    H144520   0.210   7.118  12.262  0.9280 -0.5985 -0.0483
 6775TIP3    H244521   0.293   7.092  12.386 -0.1628  2.1509  1.3243
 6776TIP3   OH244522   3.611   0.982  11.541 -0.1081  0.9263 -0.1843
 6776TIP3    H144523   3.619   1.007  11.633 -0.2831 -0.4216  0.2231
 6776TIP3    H244524   3.519   0.993  11.521 -0.6115 -1.2837  0.6162
 6777TIP3   OH244525   3.369   5.999  10.679  0.2318 -0.2893  0.2755
 6777TIP3    H144526   3.355   6.094  10.689  0.3153 -0.2342 -0.1119
 6777TIP3    H244527   3.281   5.962  10.683  0.1915 -0.1880  0.3464
 6778TIP3   OH244528   2.276   6.467  10.792  0.2092  0.4873 -0.1050
 6778TIP3    H144529   2.222   6.546  10.783  0.7114  1.0343  1.3846
 6778TIP3    H244530   2.230   6.401  10.740 -0.0811  1.8108 -1.5992
 6779TIP3   OH244531   3.713   7.575  11.121 -0.2353  0.5742 -0.1426
 6779TIP3    H144532   3.625   7.538  11.115 -0.3836  1.0515 -0.9724
 6779TIP3    H244533   3.771   7.502  11.100 -0.3426 -0.1126  1.7421
 6780TIP3   OH244534   6.253   6.813  12.734  0.5438  0.4150 -0.1666
 6780TIP3    H144535   6.341   6.834  12.767  0.1352 -2.1993  3.1161
 6780TIP3    H244536   6.266   6.733  12.683  0.0342 -0.5063  1.0934
 6781TIP3   OH244537   0.034   3.349  12.360  0.0440 -0.1273 -0.2434
 6781TIP3    H144538  -0.018   3.405  12.302 -0.1803 -1.0623 -0.9758
 6781TIP3    H244539  -0.008   3.264  12.354 -0.6587 -0.0168  2.1852
 6782TIP3   OH244540   1.104   0.566  11.785  0.0226  0.1299  0.5420
 6782TIP3    H144541   1.089   0.512  11.708 -1.6364 -0.3178  1.1449
 6782TIP3    H244542   1.154   0.641  11.752 -3.4921  1.7439 -1.7587
 6783TIP3   OH244543   1.091   5.782  11.878 -0.4923  0.0186  0.3274
 6783TIP3    H144544   1.130   5.792  11.965 -0.4565  1.3341  0.1870
 6783TIP3    H244545   1.007   5.828  11.883 -0.5884 -0.0790 -0.2650
 6784TIP3   OH244546   4.665   2.259  10.462  0.5101 -0.3189  0.4530
 6784TIP3    H144547   4.719   2.331  10.494  1.0764 -0.5771  0.0936
 6784TIP3    H244548   4.727   2.199  10.421 -0.1458 -0.1140 -0.9108
 6785TIP3   OH244549   1.142   6.262  11.672  0.1995 -0.7420 -0.1460
 6785TIP3    H144550   1.210   6.204  11.637 -0.0857 -0.6293 -0.9067
 6785TIP3    H244551   1.060   6.216  11.655 -0.0783  0.1481 -1.3139
 6786TIP3   OH244552   4.565   1.864  11.940  0.1546 -0.4031 -0.5226
 6786TIP3    H144553   4.651   1.837  11.908  0.4706 -2.0409  1.4557
 6786TIP3    H244554   4.528   1.784  11.978 -1.8571  0.4925 -0.4808
 6787TIP3   OH244555   2.007   1.291  12.082  0.3265  0.6384  0.1201
 6787TIP3    H144556   1.935   1.348  12.106 -0.2132  0.9171 -1.9525
 6787TIP3    H244557   2.066   1.346  12.031  2.1615  0.4692  1.9362
 6788TIP3   OH244558   0.725   5.165  10.680  0.3813 -0.4268  0.1153
 6788TIP3    H144559   0.643   5.214  10.679  0.2275 -0.5591  2.2108
 6788TIP3    H244560   0.701   5.076  10.705  0.7368 -1.5666 -3.0996
 6789TIP3   OH244561   0.368   4.710  10.815  0.2803  0.3738 -0.0933
 6789TIP3    H144562   0.305   4.781  10.809 -0.1539  0.1399  1.2721
 6789TIP3    H244563   0.428   4.724  10.742 -0.3509  1.5797 -0.3984
 6790TIP3   OH244564   3.627   6.993  12.807  0.2460 -0.0444 -0.7546
 6790TIP3    H144565   3.569   6.938  12.858  0.0605  0.3220 -0.5655
 6790TIP3    H244566   3.579   7.075  12.796  0.6030  0.1549 -0.8498
 6791TIP3   OH244567   5.032   0.115  13.355  0.2862 -0.2743 -0.2438
 6791TIP3    H144568   5.091   0.171  13.304  0.8040 -1.3116 -0.8045
 6791TIP3    H244569   4.993   0.056  13.290 -0.6629 -0.2197  0.2622
 6792TIP3   OH244570   4.016   2.548  10.865 -0.5174  1.0865 -0.3932
 6792TIP3    H144571   4.044   2.638  10.880  1.0907  0.7627 -1.2454
 6792TIP3    H244572   4.095   2.496  10.875 -1.5318 -0.3275  0.6859
 6793TIP3   OH244573   6.334   1.343  10.501 -0.4017  0.3934  0.3114
 6793TIP3    H144574   6.410   1.292  10.472  0.0632 -0.0295  2.1198
 6793TIP3    H244575   6.356   1.370  10.590 -1.8545  1.3370  0.4199
 6794TIP3   OH244576   4.428   3.134  10.947 -0.0591  0.2041  0.3407
 6794TIP3    H144577   4.368   3.207  10.933  1.5332  1.2709 -1.5813
 6794TIP3    H244578   4.513   3.177  10.964  0.7439 -1.2159  0.0374
 6795TIP3   OH244579   7.236   7.512  11.090 -0.0360  0.1452  0.5112
 6795TIP3    H144580   7.158   7.462  11.114 -0.0492 -0.6003 -0.9466
 6795TIP3    H244581   7.205   7.575  11.024  0.6997 -0.6908 -0.6704
 6796TIP3   OH244582   6.262   6.039  11.436  0.5100 -0.3197 -0.7310
 6796TIP3    H144583   6.344   6.005  11.472  0.3538  1.0585  1.1066
 6796TIP3    H244584   6.267   6.134  11.450 -2.7022 -0.3834  2.6216
 6797TIP3   OH244585   1.217   0.694  10.450  0.0699  0.7700  0.7402
 6797TIP3    H144586   1.234   0.607  10.416 -1.9982  0.8271 -0.6700
 6797TIP3    H244587   1.302   0.727  10.478  0.8199 -1.9074  1.9262
 6798TIP3   OH244588   2.618   7.303  11.822 -0.3807 -0.2585  0.1042
 6798TIP3    H144589   2.550   7.296  11.755 -0.3141  0.8702 -0.0997
 6798TIP3    H244590   2.685   7.360  11.783 -0.1835  0.1427  1.0000
 6799TIP3   OH244591   3.215   5.075  12.014 -0.3975 -0.3032 -0.3200
 6799TIP3    H144592   3.145   5.018  11.984 -0.7013 -0.9839  1.5474
 6799TIP3    H244593   3.296   5.032  11.985 -0.6786 -0.8200 -0.3425
 6800TIP3   OH244594   3.856   1.720  11.383  0.2341 -0.3077 -0.3025
 6800TIP3    H144595   3.889   1.668  11.456  2.8562 -1.5573 -2.2147
 6800TIP3    H244596   3.783   1.668  11.347 -0.4048 -0.1693  0.7455
 6801TIP3   OH244597   3.719   5.968  12.193 -0.1295 -0.0747  0.2536
 6801TIP3    H144598   3.673   6.051  12.202 -0.5840 -0.3002  0.0421
 6801TIP3    H244599   3.792   5.973  12.255 -0.2616  0.4073  0.3663
 6802TIP3   OH244600   3.510   2.721  12.024  0.2021 -0.0858 -0.1064
 6802TIP3    H144601   3.471   2.639  11.993  0.9639 -0.8532  0.8837
 6802TIP3    H244602   3.603   2.713  12.004  0.6029 -0.3254  1.6954
 6803TIP3   OH244603   6.486   3.725  10.962 -0.2012  0.2018  0.1283
 6803TIP3    H144604   6.434   3.775  10.899  0.0387 -0.3028 -0.4788
 6803TIP3    H244605   6.429   3.653  10.988 -0.2284  0.3013  0.3484
 6804TIP3   OH244606   0.025   2.560  12.051  0.1610  0.0165 -0.1578
 6804TIP3    H144607   0.105   2.596  12.087 -0.0954  0.6059 -0.1734
 6804TIP3    H244608   0.009   2.480  12.102  1.1110 -0.4718 -0.5975
 6805TIP3   OH244609   1.526   3.762  10.833 -0.0887 -0.6265  0.4050
 6805TIP3    H144610   1.544   3.669  10.844 -0.1973 -0.4988  1.7680
 6805TIP3    H244611   1.594   3.807  10.883  0.2948  0.0678 -0.6811
 6806TIP3   OH244612   0.357   1.114  12.505  0.4213 -0.2092 -0.5632
 6806TIP3    H144613   0.435   1.142  12.553  0.4109  1.4627 -1.4389
 6806TIP3    H244614   0.320   1.043  12.558  0.6059  1.2838  1.7497
 6807TIP3   OH244615   6.061   0.431  12.168 -0.1357 -0.1869  0.3449
 6807TIP3    H144616   6.018   0.445  12.252  3.3976  3.5745  1.8341
 6807TIP3    H244617   6.137   0.376  12.188  0.3975  0.2248 -0.4761
 6808TIP3   OH244618   4.839   4.561  11.791 -0.1049  0.5207  0.2388
 6808TIP3    H144619   4.863   4.498  11.723 -0.4759  0.3307  0.2850
 6808TIP3    H244620   4.825   4.643  11.744  0.7251  0.6597  0.2181
 6809TIP3   OH244621   2.751   6.228  12.204 -0.6329 -0.1012  0.0732
 6809TIP3    H144622   2.742   6.286  12.280  2.1208  0.1116  0.3459
 6809TIP3    H244623   2.801   6.280  12.141 -0.6783 -1.1726 -0.8605
 6810TIP3   OH244624   5.411   3.191  12.510 -0.1536  0.6263  0.1323
 6810TIP3    H144625   5.320   3.163  12.522 -0.3750  0.4787 -1.6003
 6810TIP3    H244626   5.447   3.128  12.448  0.6853  1.5767 -0.3707
 6811TIP3   OH244627   6.189   2.667  10.920 -0.1802 -0.4216 -0.1309
 6811TIP3    H144628   6.153   2.578  10.921 -0.7579 -0.1884  0.7565
 6811TIP3    H244629   6.279   2.657  10.890 -0.1473 -1.3408  0.2685
 6812TIP3   OH244630   3.658   1.407  10.886 -0.0974  0.1952  0.3857
 6812TIP3    H144631   3.723   1.370  10.826  1.3181  0.9521  1.4150
 6812TIP3    H244632   3.656   1.500  10.864 -0.7571  0.2003  0.4472
 6813TIP3   OH244633   5.361   4.031  11.915  0.1240 -0.3075 -0.6387
 6813TIP3    H144634   5.331   4.038  11.824 -0.3244  4.2142 -0.3544
 6813TIP3    H244635   5.449   3.993  11.909 -0.4318 -1.3788 -2.7752
 6814TIP3   OH244636   7.560   3.523  12.207  0.2425 -0.0414  0.2501
 6814TIP3    H144637   7.583   3.522  12.114 -0.2155 -1.3361  0.1381
 6814TIP3    H244638   7.532   3.614  12.223 -1.2981 -0.1782 -1.3004
 6815TIP3   OH244639   4.411   3.744  10.888 -0.3231  0.0387  0.1876
 6815TIP3    H144640   4.373   3.727  10.802  0.1839 -0.5062  0.0622
 6815TIP3    H244641   4.415   3.658  10.930  0.3265  0.1547  0.3770
 6816TIP3   OH244642   5.284   1.038  12.420 -0.1761  0.3876 -0.4300
 6816TIP3    H144643   5.250   1.122  12.388  0.6701  0.3927 -1.3573
 6816TIP3    H244644   5.299   1.052  12.513  2.3507  2.1334 -1.0008
 6817TIP3   OH244645   7.561   2.191  11.540 -0.1121  0.3448 -0.0635
 6817TIP3    H144646   7.495   2.129  11.573  0.6324  0.3012  1.4425
 6817TIP3    H244647   7.559   2.263  11.602  0.8028  0.6415 -0.3634
 6818TIP3   OH244648   6.007   2.933  10.792 -0.1913 -0.0188 -0.0794
 6818TIP3    H144649   6.048   2.965  10.873  1.3873  1.0516 -1.2646
 6818TIP3    H244650   5.967   2.850  10.818  1.4612 -0.3917  1.5193
 6819TIP3   OH244651   4.598   3.517  11.277  0.1002  0.2141  0.1189
 6819TIP3    H144652   4.641   3.490  11.196 -2.0240 -0.2153 -0.9363
 6819TIP3    H244653   4.587   3.437  11.328  0.4980  0.3201  0.3791
 6820TIP3   OH244654   4.553   1.005  10.810  0.4140  0.5751  0.4214
 6820TIP3    H144655   4.546   1.041  10.722  0.7932  1.9303  0.9156
 6820TIP3    H244656   4.635   0.955  10.810 -1.2115 -2.3064 -0.9240
 6821TIP3   OH244657   4.973   2.122  11.734  0.5175  0.4414  0.7807
 6821TIP3    H144658   4.915   2.192  11.761  0.8839  0.5245  1.3662
 6821TIP3    H244659   4.975   2.128  11.638  1.1053  1.6893  0.8478
 6822TIP3   OH244660   2.159   3.056  10.794 -0.9872 -0.1695  0.3522
 6822TIP3    H144661   2.225   2.988  10.805 -0.1650  0.6121  0.4317
 6822TIP3    H244662   2.161   3.076  10.700 -2.0905 -1.0746  0.1134
 6823TIP3   OH244663   5.868   0.691  11.386 -0.2471  0.2049  0.4231
 6823TIP3    H144664   5.921   0.700  11.465 -0.7126  2.4671  0.5414
 6823TIP3    H244665   5.785   0.653  11.416  0.4190 -1.1693  0.5998
 6824TIP3   OH244666   7.124   3.230  17.566  0.2176 -0.2383 -0.0402
 6824TIP3    H144667   7.205   3.247  17.614 -1.9530  3.0120  2.9930
 6824TIP3    H244668   7.077   3.165  17.618 -0.3134  0.0097 -0.1981
 6825TIP3   OH244669   6.430   4.492  10.428  0.7186 -0.0549  0.2282
 6825TIP3    H144670   6.462   4.563  10.374  0.9627  0.4275  0.9884
 6825TIP3    H244671   6.490   4.489  10.502 -0.5937  0.4637  1.3627
 6826TIP3   OH244672   0.467   4.444  12.305  0.3420 -0.4530  0.2043
 6826TIP3    H144673   0.425   4.509  12.361 -0.2968 -0.8178  0.1543
 6826TIP3    H244674   0.462   4.362  12.355  2.1828 -0.2600  0.7842
 6827TIP3   OH244675   2.271   0.674  13.316 -0.3119  0.0354 -0.6750
 6827TIP3    H144676   2.231   0.757  13.289 -0.5023 -0.4013 -1.8353
 6827TIP3    H244677   2.277   0.624  13.234 -0.7239 -1.3119  0.0873
 6828TIP3   OH244678   4.117   3.323  12.043 -0.1717  0.7210  0.2010
 6828TIP3    H144679   4.118   3.302  11.949 -1.6982  2.0176 -0.1525
 6828TIP3    H244680   4.025   3.320  12.067  0.1678  0.8292  1.5785
 6829TIP3   OH244681   0.480   2.075  10.943  0.0588 -0.3753 -0.1423
 6829TIP3    H144682   0.405   2.030  10.904  0.2855 -1.0374  0.1704
 6829TIP3    H244683   0.524   2.117  10.869 -0.1248 -0.7153 -0.4502
 6830TIP3   OH244684   3.508   7.229  12.858  0.0245 -1.0230 -0.2758
 6830TIP3    H144685   3.534   7.278  12.936  1.1374 -0.3331 -1.0599
 6830TIP3    H244686   3.438   7.280  12.819 -0.2184 -1.1287  0.0224
 6831TIP3   OH244687   6.643   1.151  11.290 -0.3881 -0.1148  0.5199
 6831TIP3    H144688   6.643   1.179  11.382 -1.4248 -0.8772  0.7755
 6831TIP3    H244689   6.650   1.056  11.294  1.0104 -0.0683 -0.2595
 6832TIP3   OH244690   2.962   4.149  10.269 -0.2306  0.0101 -0.4040
 6832TIP3    H144691   2.971   4.162  10.363 -0.6379 -1.1191 -0.1885
 6832TIP3    H244692   3.049   4.126  10.239 -0.2408 -0.3286 -0.1769
 6833TIP3   OH244693   5.575   2.274  11.880  0.1646  0.1158 -0.3301
 6833TIP3    H144694   5.658   2.254  11.922 -0.3946  1.1396  1.3808
 6833TIP3    H244695   5.595   2.282  11.787  1.5413 -1.8493 -0.2353
 6834TIP3   OH244696   1.294   5.519  11.085 -0.0725 -0.0320 -0.1315
 6834TIP3    H144697   1.312   5.569  11.006 -1.2217  0.0232 -0.3750
 6834TIP3    H244698   1.200   5.499  11.081 -0.3636  0.7319  1.6342
 6835TIP3   OH244699   1.172   6.277  12.035  0.2631 -0.0986 -0.0118
 6835TIP3    H144700   1.221   6.204  11.998  0.7721 -0.6988  1.7947
 6835TIP3    H244701   1.209   6.354  11.992  2.3080 -0.5966  0.7247
 6836TIP3   OH244702   6.874   2.718  10.802  0.2232  0.3740 -0.4797
 6836TIP3    H144703   6.957   2.685  10.766  0.5088  0.9595 -0.3674
 6836TIP3    H244704   6.812   2.647  10.789  0.4687  0.3529 -1.6043
 6837TIP3   OH244705   4.193   2.043  11.843  0.2450  0.4643 -0.3490
 6837TIP3    H144706   4.108   2.062  11.883  0.1858 -0.8560  0.2277
 6837TIP3    H244707   4.179   1.962  11.794  1.3599 -0.2944  0.5118
 6838TIP3   OH244708   2.293   0.647  10.683  0.0512  0.0828 -0.0844
 6838TIP3    H144709   2.320   0.711  10.617  1.6613 -1.4426 -1.0003
 6838TIP3    H244710   2.334   0.677  10.764  0.0725  0.6739 -0.3093
 6839TIP3   OH244711   6.613   1.192  12.898  0.6269  0.1059  0.1866
 6839TIP3    H144712   6.648   1.160  12.982 -1.3916 -0.7430  0.7703
 6839TIP3    H244713   6.552   1.123  12.871 -0.4045  1.3988 -0.8642
 6840TIP3   OH244714   2.430   3.366  11.234  0.1007 -0.4671 -0.1633
 6840TIP3    H144715   2.447   3.359  11.328 -0.8192 -1.3356 -0.0545
 6840TIP3    H244716   2.347   3.321  11.221 -0.7621  1.3131 -1.1057
 6841TIP3   OH244717   6.844   4.601  11.368 -0.3125  0.2731 -0.1433
 6841TIP3    H144718   6.844   4.599  11.272 -0.3696 -0.9484 -0.1335
 6841TIP3    H244719   6.920   4.654  11.391  0.0260  0.1120 -0.8659
 6842TIP3   OH244720   4.689   1.614  11.684  0.1016  0.2185 -0.3395
 6842TIP3    H144721   4.619   1.550  11.671 -0.4575 -0.2884  3.7697
 6842TIP3    H244722   4.759   1.564  11.727  1.2873  1.5885 -0.6176
 6843TIP3   OH244723   5.954   1.408  11.440  0.6443  0.7717 -0.1871
 6843TIP3    H144724   5.958   1.351  11.363  1.7225  0.8751 -0.2166
 6843TIP3    H244725   6.005   1.363  11.506  2.0014  1.9474 -0.3891
 6844TIP3   OH244726   3.356   0.705  12.642 -0.2090 -0.7881  0.2153
 6844TIP3    H144727   3.377   0.728  12.732  0.2381 -0.9565  0.1557
 6844TIP3    H244728   3.263   0.726  12.633  0.3575  2.0161 -0.1512
 6845TIP3   OH244729   3.406   3.952  10.588  0.0238  0.2849 -0.3961
 6845TIP3    H144730   3.422   4.012  10.661 -0.1010  0.4831 -0.5322
 6845TIP3    H244731   3.362   3.877  10.628 -0.6417  0.6831 -0.3722
 6846TIP3   OH244732   1.310   0.245  11.106  0.2373 -0.1919  0.0230
 6846TIP3    H144733   1.346   0.288  11.028  1.2994 -3.7975 -1.6804
 6846TIP3    H244734   1.384   0.240  11.167 -0.0838  0.9489  0.5279
 6847TIP3   OH244735   3.442   1.026  10.516  0.5172  0.4875  1.0821
 6847TIP3    H144736   3.527   1.051  10.480  1.2556 -0.7307  1.9095
 6847TIP3    H244737   3.426   1.089  10.587  0.9761  0.4000  1.2647
 6848TIP3   OH244738   7.045   3.672  10.346 -0.7642 -0.4938 -0.4369
 6848TIP3    H144739   7.135   3.694  10.322  0.0167 -0.1937  2.4484
 6848TIP3    H244740   7.047   3.578  10.361 -1.5657 -0.9124 -2.5682
 6849TIP3   OH244741   4.933   2.901  12.524  0.1309 -0.1982  0.1029
 6849TIP3    H144742   5.016   2.878  12.565  0.4365  1.2794  0.3747
 6849TIP3    H244743   4.928   2.845  12.447  1.7959  0.2725 -0.3907
 6850TIP3   OH244744   6.068   6.228  11.553 -0.4359 -0.2202  0.0840
 6850TIP3    H144745   6.095   6.283  11.627  1.9177 -1.0280 -0.0907
 6850TIP3    H244746   6.110   6.144  11.569  0.1927 -0.4057 -2.1580
 6851TIP3   OH244747   3.394   6.820  11.922 -0.4294 -0.0454 -0.0286
 6851TIP3    H144748   3.433   6.739  11.955 -0.2699 -0.1130 -0.3802
 6851TIP3    H244749   3.303   6.816  11.949 -0.7471 -0.9591 -1.1760
 6852TIP3   OH244750   2.041   6.909  11.591  0.0251  0.1546  0.4635
 6852TIP3    H144751   2.077   6.835  11.640 -0.5337  0.4226  1.2997
 6852TIP3    H244752   1.947   6.895  11.594 -0.1681  1.5250  1.6754
 6853TIP3   OH244753   5.219   3.125  12.927 -0.4712  0.2782 -0.3123
 6853TIP3    H144754   5.235   3.208  12.972  1.5078 -1.0972  1.8273
 6853TIP3    H244755   5.137   3.093  12.965  0.3379 -0.1025  1.2010
 6854TIP3   OH244756   1.516   3.520  12.038 -0.1817  0.2532  0.0239
 6854TIP3    H144757   1.563   3.493  12.116 -1.3746  0.1505  0.7141
 6854TIP3    H244758   1.510   3.441  11.984 -1.5986 -0.3225  0.9848
 6855TIP3   OH244759   1.195   3.363  12.272 -0.4205  0.2964 -0.1485
 6855TIP3    H144760   1.169   3.271  12.261 -0.2777  0.1254  0.8407
 6855TIP3    H244761   1.171   3.384  12.362  1.3224  0.6371  0.2780
 6856TIP3   OH244762   7.350   1.569  12.446 -0.2018  0.5394  0.0709
 6856TIP3    H144763   7.390   1.652  12.470  1.7901 -0.1858 -0.5152
 6856TIP3    H244764   7.292   1.591  12.373 -0.4243  1.5523  0.5407
 6857TIP3   OH244765   4.555   3.282  11.555 -0.0437 -0.7271 -0.3662
 6857TIP3    H144766   4.548   3.229  11.634 -1.9645  2.0820  1.5547
 6857TIP3    H244767   4.502   3.235  11.490 -0.9367 -1.6307  0.9572
 6858TIP3   OH244768   1.675   4.556  11.594  0.0218  0.1061  0.1528
 6858TIP3    H144769   1.587   4.593  11.600  0.5205  1.6323 -1.2060
 6858TIP3    H244770   1.665   4.465  11.623 -2.1562  0.0113 -0.7310
 6859TIP3   OH244771   1.413   0.389  12.151 -0.8198 -0.1317 -0.1187
 6859TIP3    H144772   1.456   0.304  12.140 -1.5649 -0.4351 -0.7935
 6859TIP3    H244773   1.434   0.437  12.071 -0.2238  0.4076  0.3557
 6860TIP3   OH244774   5.989   4.161  13.341  1.0388  0.3998  0.6662
 6860TIP3    H144775   6.078   4.142  13.311  1.4040  1.8499  0.7425
 6860TIP3    H244776   5.996   4.247  13.382 -0.3485  0.4026  0.9270
 6861TIP3   OH244777   2.954   3.427  12.296  0.0260 -0.0371 -0.4031
 6861TIP3    H144778   2.922   3.356  12.352 -1.1028 -0.1225 -1.1289
 6861TIP3    H244779   3.024   3.469  12.348 -0.7315 -0.3332  0.9065
 6862TIP3   OH244780   3.612   1.839  11.716  0.3040  0.6900  0.7881
 6862TIP3    H144781   3.705   1.855  11.733  0.3977  0.4509  0.4998
 6862TIP3    H244782   3.593   1.758  11.762  0.4707  0.2323  0.0696
 6863TIP3   OH244783   7.367   5.457  10.619  0.1118 -0.5570 -0.1372
 6863TIP3    H144784   7.290   5.414  10.655  0.1655 -0.8262 -0.3421
 6863TIP3    H244785   7.383   5.413  10.536 -0.8041  0.9403 -1.1574
 6864TIP3   OH244786   0.891   2.879  10.937  0.3661  0.0687  0.1633
 6864TIP3    H144787   0.918   2.791  10.965  0.9535  0.0731 -0.3642
 6864TIP3    H244788   0.900   2.877  10.841 -1.5941  0.0418 -0.0649
 6865TIP3   OH244789   3.180   4.526  11.537 -0.1088  0.8577 -0.2576
 6865TIP3    H144790   3.212   4.552  11.623  0.6978 -1.9183  0.3922
 6865TIP3    H244791   3.170   4.608  11.488  0.9430  2.3710  1.9360
 6866TIP3   OH244792   4.280   2.416  10.827 -0.0748  0.1066  0.2489
 6866TIP3    H144793   4.375   2.422  10.838  0.0583  1.1344 -1.1193
 6866TIP3    H244794   4.268   2.343  10.766 -0.0188  0.8802 -0.7271
 6867TIP3   OH244795   1.152   3.929  11.956 -0.5127  0.4383  0.0328
 6867TIP3    H144796   1.106   3.998  11.908 -0.6685  0.0660 -0.3604
 6867TIP3    H244797   1.096   3.852  11.948  0.7309 -0.3679 -1.5058
 6868TIP3   OH244798   5.856   3.855  12.537  0.5875 -0.3794  0.4527
 6868TIP3    H144799   5.777   3.898  12.504  1.3253 -0.8125 -2.1683
 6868TIP3    H244800   5.826   3.768  12.564  0.0119 -0.2477  0.2594
 6869TIP3   OH244801   4.659   7.356  12.363  0.8793  0.3387 -0.4913
 6869TIP3    H144802   4.600   7.302  12.417  1.0722  0.4250 -0.1871
 6869TIP3    H244803   4.721   7.293  12.327 -0.8388 -0.1431 -2.8444
 6870TIP3   OH244804   3.885   1.250  11.676  0.5461  0.2973 -0.6174
 6870TIP3    H144805   3.808   1.208  11.714  0.4548  0.9707 -0.0271
 6870TIP3    H244806   3.877   1.342  11.701  0.7190  0.6817 -1.9243
 6871TIP3   OH244807   4.024   5.286  12.740 -0.0638 -0.1933  0.0550
 6871TIP3    H144808   3.964   5.231  12.790 -1.1454  1.7041  0.9422
 6871TIP3    H244809   3.968   5.330  12.676  0.6059  0.5780 -0.0135
 6872TIP3   OH244810   7.359   1.716  11.673  0.3573  0.2087 -0.1880
 6872TIP3    H144811   7.430   1.694  11.612 -0.2840 -1.5218 -0.3598
 6872TIP3    H244812   7.364   1.648  11.741 -0.6238  0.5438  0.2367
 6873TIP3   OH244813   2.135   2.410  10.917 -0.4543 -0.4720  0.5346
 6873TIP3    H144814   2.212   2.385  10.968 -1.6389 -1.3739  1.9587
 6873TIP3    H244815   2.123   2.503  10.937 -0.3242 -0.5765  1.1437
 6874TIP3   OH244816   7.392   3.783  11.122  0.0445 -0.2224 -0.2359
 6874TIP3    H144817   7.307   3.805  11.160  1.3622  0.4204  2.5899
 6874TIP3    H244818   7.401   3.689  11.136  0.3864 -0.0426  0.8704
 6875TIP3   OH244819   5.223   5.795  12.073  0.2450  0.2900 -0.1873
 6875TIP3    H144820   5.141   5.750  12.052  0.3972  0.2551 -0.7094
 6875TIP3    H244821   5.282   5.771  12.002 -0.1542  2.6715 -1.3852
 6876TIP3   OH244822   4.136   0.658  10.949 -0.4578  0.6335 -0.3034
 6876TIP3    H144823   4.145   0.596  11.021 -0.6312 -0.6600 -1.3383
 6876TIP3    H244824   4.201   0.726  10.967  0.6903 -0.5392  0.2096
 6877TIP3   OH244825   0.479   0.722  11.140  0.2585  0.6816 -0.1888
 6877TIP3    H144826   0.529   0.718  11.058  1.4527  0.1576  0.5574
 6877TIP3    H244827   0.541   0.752  11.205 -0.5188  0.4689  0.6671
 6878TIP3   OH244828   4.008   0.038  10.713 -0.0841  0.4699 -0.0154
 6878TIP3    H144829   4.083  -0.000  10.668 -0.9106 -1.1792 -0.0774
 6878TIP3    H244830   4.046   0.081  10.790  0.8839 -1.0358  0.4072
 6879TIP3   OH244831   4.974   1.752  11.432 -0.0480 -0.4029  0.2735
 6879TIP3    H144832   5.005   1.800  11.356 -0.3981 -0.4583  0.0942
 6879TIP3    H244833   4.912   1.811  11.475 -0.4506 -0.6741  0.0728
 6880TIP3   OH244834   6.796   0.486  11.846  0.6315 -0.3675  0.9522
 6880TIP3    H144835   6.782   0.542  11.770  1.9783 -1.4493 -0.1329
 6880TIP3    H244836   6.778   0.397  11.815  3.1121 -1.0589  1.3036
 6881TIP3   OH244837   2.047   0.902  10.856 -0.8387 -0.1514  0.3001
 6881TIP3    H144838   2.127   0.952  10.840 -1.4221  0.5457 -0.5496
 6881TIP3    H244839   1.976   0.958  10.822 -1.5268 -1.4598 -0.5081
 6882TIP3   OH244840   4.149   1.689  12.139 -0.2981  0.2327  0.2799
 6882TIP3    H144841   4.139   1.703  12.233 -0.0957  1.8936  0.0685
 6882TIP3    H244842   4.229   1.734  12.116 -0.1311 -0.5078 -0.6422
 6883TIP3   OH244843   6.724   3.713  10.334 -0.0735  0.1302 -0.0408
 6883TIP3    H144844   6.737   3.807  10.324 -1.6159  0.1688 -2.2212
 6883TIP3    H244845   6.804   3.674  10.300 -0.1508  0.6252 -0.8043
 6884TIP3   OH244846   4.675   0.931  13.037  0.1610 -0.0477  0.0223
 6884TIP3    H144847   4.735   0.891  12.973 -1.5890 -2.1436 -0.4230
 6884TIP3    H244848   4.699   0.891  13.120  2.2754  2.4997  0.7524
 6885TIP3   OH244849   4.461   7.342  12.141 -0.0115  0.1504  0.3867
 6885TIP3    H144850   4.431   7.271  12.084  0.1575 -1.0193  1.6864
 6885TIP3    H244851   4.554   7.322  12.156 -0.1308  0.2340  1.3190
 6886TIP3   OH244852   1.901   2.426  12.029 -0.3021  0.5038  0.1991
 6886TIP3    H144853   1.982   2.393  12.068  0.7029  1.4844 -0.9596
 6886TIP3    H244854   1.846   2.449  12.104  1.0853  1.2122  1.0390
 6887TIP3   OH244855   0.220   4.247  10.543  0.0598  0.4319  0.2520
 6887TIP3    H144856   0.186   4.291  10.621 -0.0478  1.1832 -0.2145
 6887TIP3    H244857   0.287   4.187  10.577 -0.3258  0.3969  0.9693
 6888TIP3   OH244858   0.189   3.831  10.950  0.8092 -0.0792  0.2305
 6888TIP3    H144859   0.228   3.798  10.868  0.2792 -0.8262  0.2679
 6888TIP3    H244860   0.100   3.855  10.926  0.9421  0.5891  0.3895
 6889TIP3   OH244861   1.905   7.207  12.120 -0.3962 -0.0672  0.0340
 6889TIP3    H144862   1.920   7.124  12.166 -2.1602 -0.6922 -0.4193
 6889TIP3    H244863   1.972   7.209  12.051  1.2338  0.1058  1.5552
 6890TIP3   OH244864   5.909   3.670  11.100 -0.6579  0.1137 -0.3278
 6890TIP3    H144865   5.865   3.600  11.051 -1.3883  1.0785 -1.0752
 6890TIP3    H244866   5.869   3.751  11.068  0.8752  0.9515 -0.1911
 6891TIP3   OH244867   4.370   3.796  11.396  0.0387 -0.1357 -0.4484
 6891TIP3    H144868   4.324   3.824  11.476  2.5591  1.8209  0.4759
 6891TIP3    H244869   4.350   3.703  11.388 -1.5119 -0.0578  1.6077
 6892TIP3   OH244870   3.636   1.255  12.747 -0.1745 -0.2776  0.0911
 6892TIP3    H144871   3.673   1.307  12.676 -1.3369 -1.6556 -1.6321
 6892TIP3    H244872   3.643   1.311  12.824  2.0257  0.9207 -0.8651
 6893TIP3   OH244873   6.143   0.745  11.487  0.2376  0.0507  0.1911
 6893TIP3    H144874   6.233   0.725  11.513  0.9050  1.6763 -0.6620
 6893TIP3    H244875   6.114   0.668  11.438  1.1049 -0.5698  0.6301
 6894TIP3   OH244876   0.730   7.352  11.582  0.1180  0.3845 -0.5497
 6894TIP3    H144877   0.638   7.351  11.553  0.5562  1.3261 -2.1330
 6894TIP3    H244878   0.775   7.292  11.522  0.4975 -0.3037  0.4087
 6895TIP3   OH244879   5.219   6.697  10.753  0.2012  0.0534 -0.3058
 6895TIP3    H144880   5.124   6.689  10.749 -0.0304  1.4100  1.1599
 6895TIP3    H244881   5.247   6.629  10.814  0.2984 -0.9304 -1.4180
 6896TIP3   OH244882   6.646   1.868  10.568  0.1016  0.2770 -0.4768
 6896TIP3    H144883   6.561   1.863  10.524  1.1493 -1.3164 -2.5057
 6896TIP3    H244884   6.633   1.930  10.639 -2.6955  0.2238 -0.8424
 6897TIP3   OH244885   3.351   3.389  10.944  0.1116 -0.0726  0.5742
 6897TIP3    H144886   3.441   3.359  10.930  0.6049  0.9963  1.3321
 6897TIP3    H244887   3.298   3.311  10.934  1.0352 -0.5562 -0.7897
 6898TIP3   OH244888   5.443   6.023  11.408  0.2320  0.3204 -0.5896
 6898TIP3    H144889   5.400   6.080  11.344 -1.9104 -0.6060 -0.0428
 6898TIP3    H244890   5.380   5.953  11.425  1.4922 -0.4720  1.1664
 6899TIP3   OH244891   2.517   3.972  12.606  0.3642  0.1363  0.2576
 6899TIP3    H144892   2.599   3.942  12.567 -0.1537  0.3263 -1.0206
 6899TIP3    H244893   2.527   3.955  12.699  1.6537 -0.3161  0.0507
 6900TIP3   OH244894   1.709   4.014  11.331  0.0774 -0.3117 -0.6846
 6900TIP3    H144895   1.616   3.997  11.324 -0.2756  0.5179  1.3705
 6900TIP3    H244896   1.740   3.951  11.396  0.3626  1.2949  0.7784
 6901TIP3   OH244897   3.329   4.288  10.767 -0.3352 -0.1540 -0.4487
 6901TIP3    H144898   3.297   4.359  10.711 -0.0251  0.2111 -0.1668
 6901TIP3    H244899   3.249   4.249  10.804 -0.4993  0.1496 -0.4811
 6902TIP3   OH244900   4.507   1.700  12.361 -0.2895 -0.2418  0.2412
 6902TIP3    H144901   4.592   1.735  12.388  0.3914 -1.1592 -0.6384
 6902TIP3    H244902   4.444   1.741  12.420  0.7782  0.3498  0.9958
 6903TIP3   OH244903   4.945   3.334  10.996  0.2088 -0.4564  0.0748
 6903TIP3    H144904   4.983   3.247  10.990 -0.4506 -0.7054 -0.8125
 6903TIP3    H244905   5.019   3.391  11.017  0.5335 -1.2947  1.3139
 6904TIP3   OH244906   5.349   1.357  11.620 -0.0268  0.8823 -0.1782
 6904TIP3    H144907   5.445   1.364  11.614  0.4171 -2.0230  1.4814
 6904TIP3    H244908   5.321   1.335  11.532  1.1042 -0.0188 -0.3436
 6905TIP3   OH244909   7.674   3.501  11.905  0.0204  0.4756 -0.0119
 6905TIP3    H144910   7.763   3.537  11.913  0.1758 -0.0337  0.5917
 6905TIP3    H244911   7.624   3.571  11.863  0.5663  0.9917  0.1849
 6906TIP3   OH244912   3.793   1.827  11.133  0.3276  0.0316 -0.7519
 6906TIP3    H144913   3.821   1.801  11.221  2.5056 -1.2127 -1.7228
 6906TIP3    H244914   3.858   1.892  11.106 -0.0793  0.1032 -1.5819
 6907TIP3   OH244915   1.897   6.116  12.124  0.4280  0.1317 -0.7164
 6907TIP3    H144916   1.981   6.081  12.154  1.0334  2.2294  0.2364
 6907TIP3    H244917   1.903   6.112  12.028  0.6206 -1.8352 -0.6717
 6908TIP3   OH244918   6.834   6.676  10.727 -0.0978 -0.5413 -0.3147
 6908TIP3    H144919   6.928   6.659  10.730 -0.1460 -1.5888 -2.6029
 6908TIP3    H244920   6.794   6.589  10.734 -0.7099 -0.5465 -2.8146
 6909TIP3   OH244921   5.564   7.016  11.688  0.3461 -0.1115 -0.3584
 6909TIP3    H144922   5.587   7.002  11.780 -0.3558  0.5317 -0.0743
 6909TIP3    H244923   5.572   6.929  11.648 -1.1046 -0.7844  0.7152
 6910TIP3   OH244924   0.805   0.961  12.899 -0.5143  0.2691  0.8300
 6910TIP3    H144925   0.829   1.028  12.834 -1.4527 -0.7002 -0.5540
 6910TIP3    H244926   0.768   1.011  12.971 -1.0158  1.2882 -0.0949
 6911TIP3   OH244927   5.107   2.603  13.007 -0.2889 -0.0108 -0.3286
 6911TIP3    H144928   5.072   2.614  13.096 -0.7599 -0.9571 -0.3867
 6911TIP3    H244929   5.142   2.514  13.006  1.2669  0.5669 -0.5848
 6912TIP3   OH244930   4.195   1.796  10.414  0.0265 -0.1758  0.3304
 6912TIP3    H144931   4.151   1.869  10.457  1.1186  1.2221 -0.7926
 6912TIP3    H244932   4.125   1.743  10.378 -1.0225  3.4597 -3.8630
 6913TIP3   OH244933   6.524   1.876  12.529  0.3610  0.0584  0.0801
 6913TIP3    H144934   6.532   1.814  12.602  0.2042 -0.2983 -0.1993
 6913TIP3    H244935   6.490   1.823  12.456 -1.2857  0.7873  0.2624
 6914TIP3   OH244936   5.137   4.456  10.913 -0.9756  0.2762  0.6534
 6914TIP3    H144937   5.063   4.515  10.923 -0.5959  0.9577 -0.3754
 6914TIP3    H244938   5.116   4.380  10.968 -1.1202  1.6826  2.6480
 6915TIP3   OH244939   3.181   0.164  10.973 -0.6066  0.2524  0.3909
 6915TIP3    H144940   3.136   0.158  11.057  0.3392  1.3939  0.9983
 6915TIP3    H244941   3.190   0.258  10.957  1.7087  0.0775  0.3941
 6916TIP3   OH244942   4.316   2.963  12.273 -0.5215 -0.0181  1.0296
 6916TIP3    H144943   4.411   2.952  12.269 -0.5913 -0.5525  0.7247
 6916TIP3    H244944   4.293   3.004  12.189 -0.5218  0.4343  1.2473
 6917TIP3   OH244945   4.102   7.610  12.429 -0.0109 -0.7802 -0.2773
 6917TIP3    H144946   4.160   7.565  12.369 -0.9364 -1.1300 -0.9377
 6917TIP3    H244947   4.123   7.573  12.515  1.7585  0.1873 -0.2683
 6918TIP3   OH244948   1.139   2.073  11.112 -0.1420 -0.7004 -0.0910
 6918TIP3    H144949   1.081   2.054  11.186  1.4419 -0.9503  1.1629
 6918TIP3    H244950   1.081   2.084  11.037 -1.7740 -1.0277  1.0770
 6919TIP3   OH244951   0.062   2.956  12.145 -0.5388 -0.2521  0.1082
 6919TIP3    H144952   0.134   2.919  12.195 -0.2525 -0.6120 -0.5623
 6919TIP3    H244953   0.103   3.024  12.091 -1.3661  2.8564  3.0432
 6920TIP3   OH244954   2.145   6.506  11.485  0.1040 -0.3013  0.0805
 6920TIP3    H144955   2.183   6.507  11.397  0.4677 -0.0525  0.2385
 6920TIP3    H244956   2.208   6.553  11.539 -1.0080  1.2447  0.1062
 6921TIP3   OH244957   2.410   6.917  12.756 -0.1465  0.1020 -0.0797
 6921TIP3    H144958   2.473   6.911  12.828  0.8157  1.0099 -0.8173
 6921TIP3    H244959   2.339   6.858  12.782  0.2882  0.2141  1.4856
 6922TIP3   OH244960   3.281   0.230  12.529 -0.1371  0.5967 -0.6070
 6922TIP3    H144961   3.231   0.224  12.448  0.4994  1.8573 -1.1213
 6922TIP3    H244962   3.255   0.314  12.567  1.1209  1.0099 -0.5982
 6923TIP3   OH244963   7.614   4.012  12.305  0.0058  0.0356  0.0832
 6923TIP3    H144964   7.639   4.022  12.213 -0.9334  4.0628  0.0677
 6923TIP3    H244965   7.533   3.960  12.302 -0.1080  0.2529 -1.3886
 6924TIP3   OH244966   3.929   4.432  10.247  0.3836 -0.1708 -0.1544
 6924TIP3    H144967   3.947   4.481  10.327  2.1106 -2.8587  1.2568
 6924TIP3    H244968   4.012   4.435  10.198 -0.3818  0.6852 -1.4638
 6925TIP3   OH244969   0.248   3.226  11.467 -0.3696  0.9525  0.0063
 6925TIP3    H144970   0.324   3.284  11.480  0.0440 -0.0966  3.1122
 6925TIP3    H244971   0.279   3.140  11.495 -2.2709  0.1337 -0.2769
 6926TIP3   OH244972   6.775   3.384  12.124  0.2998 -0.0719  0.1654
 6926TIP3    H144973   6.730   3.451  12.177  1.0088  0.1629  0.4742
 6926TIP3    H244974   6.843   3.349  12.181 -0.2258 -1.2569  0.0904
 6927TIP3   OH244975   1.009   5.869  12.267 -0.7424 -0.3491 -0.2872
 6927TIP3    H144976   0.996   5.944  12.209 -1.0291  0.4314  0.7540
 6927TIP3    H244977   1.089   5.889  12.315 -1.9675  0.3485  1.5395
 6928TIP3   OH244978   2.761   1.747  12.308  0.5020  0.3200  0.0565
 6928TIP3    H144979   2.850   1.782  12.306  0.6482 -0.0758 -0.9970
 6928TIP3    H244980   2.741   1.737  12.401  1.3213  1.0013  0.3153
 6929TIP3   OH244981   1.878   1.282  10.178 -0.1819  0.4944  0.4828
 6929TIP3    H144982   1.815   1.246  10.116  2.3650 -2.2923 -0.7352
 6929TIP3    H244983   1.906   1.207  10.230  1.3919  1.8102  1.6404
 6930TIP3   OH244984   1.485   4.815  11.001 -0.2487  0.0958  0.4952
 6930TIP3    H144985   1.480   4.898  11.049 -0.3490  0.1648  0.3671
 6930TIP3    H244986   1.509   4.750  11.067 -0.6234  0.1500  0.6882
 6931TIP3   OH244987   1.819   1.589  10.582 -0.5326 -0.1453 -0.1299
 6931TIP3    H144988   1.821   1.571  10.488 -0.2452  0.6455 -0.2860
 6931TIP3    H244989   1.812   1.684  10.588  0.6849 -0.0710  0.6402
 6932TIP3   OH244990   7.347   6.609  12.878 -0.3804 -0.4611  0.2637
 6932TIP3    H144991   7.352   6.516  12.856 -0.5501 -0.6462  0.9697
 6932TIP3    H244992   7.432   6.629  12.918 -0.7706 -0.6099  1.1873
 6933TIP3   OH244993   4.788   5.538  10.571  0.4560  0.3563 -0.3681
 6933TIP3    H144994   4.695   5.530  10.591  0.4863  1.0350  0.0677
 6933TIP3    H244995   4.800   5.630  10.547  0.9637  0.2156 -0.6833
 6934TIP3   OH244996   4.966   6.920  11.938  0.6587 -0.2130  0.6908
 6934TIP3    H144997   4.918   6.874  12.007 -1.4863  1.2095  0.2279
 6934TIP3    H244998   4.970   7.010  11.967  1.8036 -0.0244  0.0133
 6935TIP3   OH244999   2.032   4.732  11.345  0.0978  0.7247  0.3020
 6935TIP3    H145000   2.051   4.777  11.427  0.9062 -0.8445  1.0059
 6935TIP3    H245001   1.954   4.680  11.364 -0.7204  1.6186 -0.4539
 6936TIP3   OH245002   4.998   5.234  12.159  0.2448 -0.0732 -0.1483
 6936TIP3    H145003   5.060   5.162  12.151  0.0043 -0.3361  0.3078
 6936TIP3    H245004   4.923   5.196  12.205  0.4160  0.6468  0.7461
 6937TIP3   OH245005   6.014   5.674  12.288 -0.0729  0.8850 -0.1033
 6937TIP3    H145006   5.960   5.724  12.227  0.5125  2.4588  0.6154
 6937TIP3    H245007   5.989   5.706  12.374 -0.5874 -1.0090  0.5125
 6938TIP3   OH245008   2.564   2.677  10.970 -0.3305 -0.1323  0.3407
 6938TIP3    H145009   2.491   2.724  11.011 -0.2783  0.2981 -0.0422
 6938TIP3    H245010   2.527   2.644  10.888  0.6781  2.8315 -1.4803
 6939TIP3   OH245011   1.220   3.132  10.612  0.3740 -0.3059  0.2192
 6939TIP3    H145012   1.250   3.149  10.701 -0.0186  0.0406  0.2885
 6939TIP3    H245013   1.228   3.217  10.568  1.8154 -0.7495 -0.4562
 6940TIP3   OH245014   1.708   1.792  12.099  0.0843  0.0425 -0.0764
 6940TIP3    H145015   1.708   1.778  12.194  2.8355  1.2520  0.1972
 6940TIP3    H245016   1.618   1.819  12.079 -0.7976 -1.1169  1.9977
 6941TIP3   OH245017   7.235   2.001  11.873 -0.5671  0.4821 -0.6584
 6941TIP3    H145018   7.182   2.044  11.806 -1.3357  2.0082  0.8617
 6941TIP3    H245019   7.177   1.936  11.912 -0.3680  0.1316 -0.9409
 6942TIP3   OH245020   2.762   4.275  11.740  0.2930 -0.5989 -0.0896
 6942TIP3    H145021   2.829   4.297  11.676  0.6763 -1.5366 -0.0368
 6942TIP3    H245022   2.715   4.357  11.756 -1.1201 -0.6798 -3.0689
 6943TIP3   OH245023   0.760   4.860  11.891  0.9202 -0.0170 -0.8237
 6943TIP3    H145024   0.846   4.849  11.851  1.3865  0.9459 -0.1035
 6943TIP3    H245025   0.709   4.908  11.826  0.3550 -2.0490 -1.9784
 6944TIP3   OH245026   5.544   2.739  11.315 -0.9503 -0.1958 -0.1703
 6944TIP3    H145027   5.639   2.740  11.302 -0.8785  2.1606  0.1358
 6944TIP3    H245028   5.517   2.652  11.286  1.2381 -0.7874 -0.6352
 6945TIP3   OH245029   1.764   1.489  12.081  0.1237  0.5196 -0.4404
 6945TIP3    H145030   1.721   1.539  12.011  1.2405  1.2190 -0.6678
 6945TIP3    H245031   1.825   1.552  12.120  0.8257 -0.3889 -0.0415
 6946TIP3   OH245032   0.591   1.993  12.104 -0.2533 -0.2938  0.0328
 6946TIP3    H145033   0.514   1.946  12.071 -0.0785  0.5687 -1.6840
 6946TIP3    H245034   0.562   2.085  12.110  0.0911 -0.2458  1.1851
 6947TIP3   OH245035   3.250   6.478  11.165 -0.0361  0.1877 -0.1984
 6947TIP3    H145036   3.195   6.498  11.089 -1.0085  0.5750  0.5922
 6947TIP3    H245037   3.197   6.502  11.241  0.3622 -1.5002  0.6677
 6948TIP3   OH245038   6.543   7.211  11.207 -0.1068 -0.3731  0.1959
 6948TIP3    H145039   6.538   7.142  11.141  0.5049 -0.4215  0.1921
 6948TIP3    H245040   6.621   7.190  11.258 -0.0037  0.2213  0.2961
 6949TIP3   OH245041   2.670   4.914  12.354  0.2226 -0.1155  0.2677
 6949TIP3    H145042   2.649   4.978  12.422 -2.0074  1.2142 -1.5240
 6949TIP3    H245043   2.674   4.830  12.401 -2.2390  0.5932  1.9686
 6950TIP3   OH245044   1.288   7.029  10.936 -0.0705 -0.2173  0.1118
 6950TIP3    H145045   1.259   6.974  11.008  1.1275  0.1728  0.9399
 6950TIP3    H245046   1.311   6.968  10.866  0.3440 -0.7183  0.6752
 6951TIP3   OH245047   2.528   4.561  11.205  0.4230  0.6150 -0.0445
 6951TIP3    H145048   2.450   4.542  11.153 -0.0422  4.8356 -1.2506
 6951TIP3    H245049   2.599   4.569  11.141  1.8030 -2.1793  0.9440
 6952TIP3   OH245050   2.352   7.635  11.036 -0.0306 -0.1423  0.0464
 6952TIP3    H145051   2.366   7.542  11.054 -1.4009 -0.7937 -1.9235
 6952TIP3    H245052   2.263   7.640  11.003  0.2820  1.7591 -0.6238
 6953TIP3   OH245053   1.126   6.295  11.107 -0.5823  0.4229  0.3039
 6953TIP3    H145054   1.064   6.336  11.047  0.2771  0.2819 -0.7103
 6953TIP3    H245055   1.185   6.244  11.050 -1.4076 -1.9837  1.4745
 6954TIP3   OH245056   0.513   2.611  11.453 -0.3099  0.4804  0.4744
 6954TIP3    H145057   0.569   2.658  11.515  0.2321  0.9981 -0.3960
 6954TIP3    H245058   0.512   2.665  11.375 -3.0028  1.1044  0.8405
 6955TIP3   OH245059   2.398   4.915  10.856 -0.0853  0.2862  0.0942
 6955TIP3    H145060   2.401   4.826  10.821  0.6337  0.7550 -1.0788
 6955TIP3    H245061   2.475   4.920  10.913 -0.4338 -0.0073  0.6004
 6956TIP3   OH245062   4.844   1.056  11.150 -0.0306  0.1681  0.6752
 6956TIP3    H145063   4.921   1.067  11.094 -0.8526 -0.0971 -0.5503
 6956TIP3    H245064   4.878   1.016  11.230  1.0400 -0.3834 -0.0308
 6957TIP3   OH245065   5.296   6.607  11.418 -0.4146 -0.4795 -0.0138
 6957TIP3    H145066   5.258   6.670  11.480 -1.6009 -0.0722 -1.1046
 6957TIP3    H245067   5.374   6.650  11.385 -0.5516 -0.0985  0.1532
 6958TIP3   OH245068   3.792   4.071  10.832  0.7829 -0.7047 -0.2697
 6958TIP3    H145069   3.811   4.152  10.879 -0.0709 -2.0107  2.5464
 6958TIP3    H245070   3.697   4.071  10.820  0.7166 -1.4797  0.1748
 6959TIP3   OH245071   4.140   5.755  12.949 -0.4451 -0.3641  0.3023
 6959TIP3    H145072   4.147   5.687  12.881 -1.9783 -0.4502  0.1996
 6959TIP3    H245073   4.190   5.720  13.022  0.4043 -0.7197 -0.4294
 6960TIP3   OH245074   7.531   1.203  11.948 -0.1007  0.1626  0.3669
 6960TIP3    H145075   7.534   1.142  12.022 -1.3318 -0.7082 -0.2665
 6960TIP3    H245076   7.469   1.163  11.887 -0.7177  1.9144 -0.1978
 6961TIP3   OH245077   5.447   0.519  12.122 -0.0490 -0.1238  0.2851
 6961TIP3    H145078   5.400   0.576  12.183 -1.2434  0.8514 -1.4588
 6961TIP3    H245079   5.391   0.442  12.113 -0.2361  0.0537 -0.1050
 6962TIP3   OH245080   3.509   6.169  12.193 -0.3605  0.1350  0.0635
 6962TIP3    H145081   3.466   6.254  12.204 -1.2401 -0.3055  0.0829
 6962TIP3    H245082   3.439   6.109  12.168  0.5546 -0.2162 -1.8123
 6963TIP3   OH245083   3.726   6.385  10.681  0.9052 -0.4702  0.7169
 6963TIP3    H145084   3.712   6.331  10.759 -0.5012 -2.4211 -0.7890
 6963TIP3    H245085   3.689   6.471  10.705 -1.0319 -1.5045  1.6896
 6964TIP3   OH245086   3.181   1.219  11.383 -0.0961  0.1864 -0.3905
 6964TIP3    H145087   3.228   1.192  11.305 -1.0323 -0.4028 -0.7680
 6964TIP3    H245088   3.089   1.217  11.358 -0.4619 -0.6145  0.9115
 6965TIP3   OH245089   0.752   3.328  11.777 -0.3406  0.4825 -0.4160
 6965TIP3    H145090   0.733   3.361  11.865  1.5645  0.3071  0.1056
 6965TIP3    H245091   0.811   3.393  11.739  0.8890 -0.6775 -0.5824
 6966TIP3   OH245092   4.824   2.473  11.770  0.1768  0.2786  0.0382
 6966TIP3    H145093   4.805   2.498  11.860  0.1259  1.2789 -0.2324
 6966TIP3    H245094   4.917   2.490  11.759  0.0134  1.0027 -0.3363
 6967TIP3   OH245095   1.546   2.578  11.228  0.2030  0.2219 -0.0650
 6967TIP3    H145096   1.559   2.658  11.279 -0.7168  0.1997  0.2175
 6967TIP3    H245097   1.635   2.550  11.206  0.6411  0.2546  1.5044
 6968TIP3   OH245098   1.034   4.100  10.702 -0.3857 -0.1242 -0.0970
 6968TIP3    H145099   0.943   4.081  10.679  0.2044 -0.0791 -2.7845
 6968TIP3    H245100   1.050   4.187  10.665  0.7124 -0.0759  0.4503
 6969TIP3   OH245101   3.593   0.278  11.607  0.2142  0.2365 -0.4155
 6969TIP3    H145102   3.515   0.250  11.654 -1.5113  3.0861 -1.3329
 6969TIP3    H245103   3.630   0.348  11.661 -0.0966  1.5073 -1.7716
 6970TIP3   OH245104   1.208   1.088  12.867  0.3803  0.1420  0.4856
 6970TIP3    H145105   1.277   1.143  12.904  1.1459 -0.9497  0.7311
 6970TIP3    H245106   1.129   1.114  12.915  1.2674 -0.9709  2.7373
 6971TIP3   OH245107   3.174   3.644  11.904 -0.1085 -0.1818  0.0716
 6971TIP3    H145108   3.207   3.592  11.831  0.7717 -2.7958  2.1768
 6971TIP3    H245109   3.081   3.621  11.911 -0.9133  2.0798 -1.7005
 6972TIP3   OH245110   1.762   2.348  11.444  0.0643  0.2861  0.1256
 6972TIP3    H145111   1.825   2.419  11.433  1.0469 -0.6812 -0.7234
 6972TIP3    H245112   1.733   2.329  11.355  1.2026 -1.5773  0.1110
 6973TIP3   OH245113   5.378   5.376  10.548 -0.6830  0.3045 -0.2830
 6973TIP3    H145114   5.456   5.321  10.543 -0.2086  0.9411 -0.0328
 6973TIP3    H245115   5.315   5.334  10.489 -0.0051  0.0168 -0.8175
 6974TIP3   OH245116   1.807   0.002  11.638 -0.0215 -0.3102  0.2622
 6974TIP3    H145117   1.781   0.092  11.654  1.6728  0.1302  0.7668
 6974TIP3    H245118   1.903   0.003  11.646  0.0786 -2.0408 -0.2655
 6975TIP3   OH245119   7.159   2.314  10.540  0.0921 -0.0683  0.0918
 6975TIP3    H145120   7.169   2.220  10.525  0.2371 -0.3016  1.5472
 6975TIP3    H245121   7.105   2.344  10.466  0.2207 -1.2442 -0.5021
 6976TIP3   OH245122   5.944   2.318  12.237  0.0129  0.4628 -0.0115
 6976TIP3    H145123   5.883   2.319  12.163 -1.2371 -0.8715  0.9522
 6976TIP3    H245124   5.889   2.331  12.314  0.9037 -0.9301  0.8948
 6977TIP3   OH245125   3.611   5.136  11.790 -0.4730 -0.7657 -0.2692
 6977TIP3    H145126   3.573   5.051  11.813  2.2991 -2.3849 -1.2455
 6977TIP3    H245127   3.650   5.122  11.704  3.3932  0.2591  1.1155
 6978TIP3   OH245128   5.665   4.304  12.565 -0.4035 -0.9642  0.5956
 6978TIP3    H145129   5.588   4.270  12.521 -1.2757  0.1622  1.2062
 6978TIP3    H245130   5.644   4.395  12.585  2.6825  0.8355 -3.0571
 6979TIP3   OH245131   1.663   1.728  12.352  0.4850  0.0420  0.0788
 6979TIP3    H145132   1.650   1.814  12.392 -1.3538  0.3872 -1.1543
 6979TIP3    H245133   1.606   1.669  12.401  1.3294 -0.3848  0.5686
 6980TIP3   OH245134   3.461   0.244  11.925 -0.1698 -0.7095 -0.5682
 6980TIP3    H145135   3.494   0.329  11.896 -2.4761  0.5496  0.1699
 6980TIP3    H245136   3.480   0.242  12.019  1.4961 -1.8811 -0.8853
 6981TIP3   OH245137   4.469   4.422  12.213 -0.5614 -0.0143 -0.4817
 6981TIP3    H145138   4.447   4.402  12.122  0.4043 -0.0716 -0.7170
 6981TIP3    H245139   4.562   4.402  12.220 -0.3731  1.0034  0.2264
 6982TIP3   OH245140   3.661   2.197  12.327 -0.1533  0.1914 -0.2762
 6982TIP3    H145141   3.727   2.179  12.395 -0.1685 -0.3516 -0.4005
 6982TIP3    H245142   3.636   2.288  12.342  0.2728  0.2547  0.0802
 6983TIP3   OH245143   2.455   5.004  10.511 -0.1548 -0.1735 -0.3508
 6983TIP3    H145144   2.363   5.007  10.539 -0.1551  0.0508 -0.3748
 6983TIP3    H245145   2.503   5.048  10.581 -0.0481 -0.4027 -0.2783
 6984TIP3   OH245146   3.080   0.750  12.641 -0.8908  0.2374 -0.5373
 6984TIP3    H145147   3.052   0.760  12.732 -2.6760  1.5003 -1.1627
 6984TIP3    H245148   2.999   0.733  12.593  0.1216 -1.2320 -1.8048
 6985TIP3   OH245149   2.874   5.428  12.842 -0.6356  0.2066  0.2450
 6985TIP3    H145150   2.908   5.513  12.815  1.0452 -0.4085  0.3226
 6985TIP3    H245151   2.880   5.429  12.938  1.2218 -0.6678  0.1893
 6986TIP3   OH245152   2.424   6.094  12.649  0.3921 -0.4120  0.0461
 6986TIP3    H145153   2.374   6.137  12.580  0.2918 -0.4808  0.0748
 6986TIP3    H245154   2.514   6.124  12.637  0.1197  0.8358  0.8622
 6987TIP3   OH245155   4.698   7.608  13.120 -0.2356 -0.1900  0.3281
 6987TIP3    H145156   4.674   7.518  13.099  1.7298 -1.0933  1.7431
 6987TIP3    H245157   4.791   7.604  13.142  0.4037  2.5131 -1.4054
 6988TIP3   OH245158   4.483   1.705  11.092 -0.2741  0.3252 -0.4048
 6988TIP3    H145159   4.448   1.793  11.078 -1.4876  0.1244  1.0459
 6988TIP3    H245160   4.515   1.706  11.182 -0.9789 -0.9028 -0.1133
 6989TIP3   OH245161   7.007   2.065  12.567 -0.2105 -0.5163  0.4536
 6989TIP3    H145162   6.931   2.032  12.519  1.1201 -0.8323 -1.5511
 6989TIP3    H245163   7.018   2.155  12.535  1.0813 -0.9487 -0.3839
 6990TIP3   OH245164   3.972   3.701  11.748 -0.3657 -0.2038  0.4611
 6990TIP3    H145165   4.042   3.746  11.701 -0.2340  1.3912  2.0828
 6990TIP3    H245166   4.000   3.700  11.839 -1.0177 -2.4135  0.7068
 6991TIP3   OH245167   1.458   5.346  10.863  0.2063 -0.7702  0.0177
 6991TIP3    H145168   1.454   5.251  10.874 -0.3631 -0.8194 -0.5506
 6991TIP3    H245169   1.369   5.371  10.838  0.2126 -0.0123  0.6898
 6992TIP3   OH245170   3.624   2.435  13.428 -0.0572 -0.3800  0.1998
 6992TIP3    H145171   3.716   2.461  13.423  0.1192 -1.2373 -2.0044
 6992TIP3    H245172   3.597   2.423  13.337 -2.4504  0.1110  0.7775
 6993TIP3   OH245173   5.306   4.048  11.094 -0.2819 -0.1425  0.7287
 6993TIP3    H145174   5.372   3.980  11.090  0.1494  0.3283 -0.8202
 6993TIP3    H245175   5.246   4.019  11.163 -0.1078 -2.0722  0.1329
 6994TIP3   OH245176   4.165   1.303  11.246  0.0427 -0.1255 -0.1296
 6994TIP3    H145177   4.082   1.265  11.216 -0.5297  0.6091  0.5083
 6994TIP3    H245178   4.145   1.394  11.263  1.0164  0.0814 -0.0501
 6995TIP3   OH245179   3.742   4.659  10.380  0.0475  0.4305 -0.1609
 6995TIP3    H145180   3.693   4.681  10.301  0.8743 -0.4733 -0.9317
 6995TIP3    H245181   3.683   4.601  10.429 -0.2298  0.5190 -0.3853
 6996TIP3   OH245182   3.265   0.056  11.262 -0.8156  0.0541 -0.0698
 6996TIP3    H145183   3.291  -0.026  11.218 -1.8585 -1.0472  1.2915
 6996TIP3    H245184   3.348   0.091  11.296 -0.4777 -1.0010  0.2486
 6997TIP3   OH245185   7.473   5.933  10.552  0.0586 -0.5019 -0.1670
 6997TIP3    H145186   7.475   6.029  10.558 -0.6138 -0.5436  0.9414
 6997TIP3    H245187   7.383   5.912  10.531  0.2344 -0.8962 -0.5387
 6998TIP3   OH245188   3.331   7.625  10.825 -0.1564 -0.2628  0.1111
 6998TIP3    H145189   3.305   7.717  10.836  1.5241  0.1902  0.7074
 6998TIP3    H245190   3.294   7.581  10.901 -1.2465 -0.1684 -0.3419
 6999TIP3   OH245191   4.396   2.197  11.712 -0.0474  0.6987 -1.1106
 6999TIP3    H145192   4.354   2.146  11.781 -0.8154  1.8799 -0.6725
 6999TIP3    H245193   4.331   2.201  11.642 -0.4344  1.9577 -0.7059
 7000TIP3   OH245194   4.505   0.142  13.142  0.1357 -0.1087 -0.3401
 7000TIP3    H145195   4.485   0.128  13.235 -0.6501 -1.7780 -0.7317
 7000TIP3    H245196   4.576   0.080  13.123  1.0804  1.0239 -0.6039
 7001TIP3   OH245197   4.194   1.376  10.641 -0.6194 -0.1927  0.7070
 7001TIP3    H145198   4.126   1.437  10.612 -0.9330 -1.3797 -1.2391
 7001TIP3    H245199   4.200   1.390  10.736 -1.2267  2.2568  0.4540
 7002TIP3   OH245200   6.146   1.788  12.060  0.0016 -0.0513  0.1915
 7002TIP3    H145201   6.101   1.823  12.136 -2.3651 -1.6863 -0.3415
 7002TIP3    H245202   6.129   1.694  12.063 -1.3768 -0.0344 -3.0136
 7003TIP3   OH245203   6.144   2.460  13.309  0.0041  0.1116 -0.2593
 7003TIP3    H145204   6.189   2.440  13.391 -1.2259 -2.4769 -0.1041
 7003TIP3    H245205   6.198   2.419  13.241 -0.8539 -0.9937 -0.3079
 7004TIP3   OH245206   6.379   4.226  12.230 -0.0305 -0.0766  0.0639
 7004TIP3    H145207   6.393   4.131  12.233 -0.1320 -0.1029 -0.2238
 7004TIP3    H245208   6.443   4.262  12.292  0.0725 -0.3257  0.1030
 7005TIP3   OH245209   1.546   7.305  12.194 -0.2700 -0.2354 -0.8449
 7005TIP3    H145210   1.514   7.311  12.105  0.3515 -1.0885 -1.1389
 7005TIP3    H245211   1.576   7.393  12.215  0.8731 -0.3299 -1.9889
 7006TIP3   OH245212   4.907   0.194  11.177  0.0730  0.4810 -0.1718
 7006TIP3    H145213   4.941   0.282  11.193  0.5656  0.6120 -1.7062
 7006TIP3    H245214   4.942   0.171  11.090 -0.4332 -1.0359  0.0036
 7007TIP3   OH245215   3.174   7.535  11.985 -0.6068 -0.3934 -0.2248
 7007TIP3    H145216   3.155   7.608  12.044 -1.3373 -1.2804  0.6639
 7007TIP3    H245217   3.146   7.457  12.033 -0.7554 -1.1810 -1.5408
 7008TIP3   OH245218   1.491   0.942  12.019  0.1386  0.1121  0.3984
 7008TIP3    H145219   1.465   1.029  11.988 -1.4663 -0.4611  0.0244
 7008TIP3    H245220   1.523   0.898  11.940 -0.3100 -0.0663  0.3118
 7009TIP3   OH245221   2.528   0.078  11.853  0.0479 -0.3223  0.5793
 7009TIP3    H145222   2.599   0.140  11.835  1.3381 -1.9085 -0.0453
 7009TIP3    H245223   2.477   0.077  11.772  1.9512 -2.4433 -0.7153
 7010TIP3   OH245224   3.944   5.264  11.736 -0.1938 -0.2262 -0.1584
 7010TIP3    H145225   3.894   5.260  11.817  0.2503  0.8280  0.1912
 7010TIP3    H245226   3.974   5.355  11.731 -2.3655  0.4444 -2.8159
 7011TIP3   OH245227   6.749   4.833  10.340 -0.0216 -0.1083 -0.4319
 7011TIP3    H145228   6.722   4.914  10.296  1.0977 -0.0889 -1.1196
 7011TIP3    H245229   6.845   4.834  10.336  0.0102 -2.1792 -1.8283
 7012TIP3   OH245230   7.409   6.632  10.742  0.1777  0.0164  0.4192
 7012TIP3    H145231   7.479   6.690  10.772  1.1733 -0.3397 -1.1488
 7012TIP3    H245232   7.384   6.582  10.821  2.1355 -0.3202  0.8710
 7013TIP3   OH245233   1.765   6.394  11.760  0.2207 -0.3425 -0.0401
 7013TIP3    H145234   1.855   6.378  11.789  0.0202 -3.0086 -0.6723
 7013TIP3    H245235   1.772   6.413  11.667  0.2349  1.2949  0.2587
 7014TIP3   OH245236   6.163   3.961  11.162 -0.4985  0.4399  0.4006
 7014TIP3    H145237   6.152   4.052  11.188  3.4077  0.6856  1.8822
 7014TIP3    H245238   6.175   3.964  11.067 -0.8914  1.3863  0.3733
 7015TIP3   OH245239   4.736   4.314  12.167 -0.4037 -0.0365 -0.2772
 7015TIP3    H145240   4.828   4.323  12.192  0.1173  0.1293 -2.1456
 7015TIP3    H245241   4.723   4.220  12.154 -0.8206 -0.1834  1.0216
 7016TIP3   OH245242   2.882   3.275  11.925  0.1524  0.3487 -0.5311
 7016TIP3    H145243   2.966   3.229  11.927 -0.7114 -1.2914 -0.0644
 7016TIP3    H245244   2.817   3.207  11.941 -1.2109  1.7643  0.2502
 7017TIP3   OH245245   3.851   6.500  12.463  0.2727 -0.3316  0.2707
 7017TIP3    H145246   3.899   6.487  12.545  0.5747 -0.6301  0.0523
 7017TIP3    H245247   3.831   6.411  12.433  1.8627 -0.3078 -0.9593
 7018TIP3   OH245248   1.667   3.136  10.924  0.0344 -0.0234  0.3514
 7018TIP3    H145249   1.651   3.202  10.857 -0.2812  0.6676  1.0921
 7018TIP3    H245250   1.739   3.171  10.976  2.3408 -1.9040 -1.3499
 7019TIP3   OH245251   1.061   4.753  12.172 -0.6133  0.1120 -0.1444
 7019TIP3    H145252   0.974   4.793  12.168 -0.2068  1.0317  0.0948
 7019TIP3    H245253   1.097   4.782  12.255 -0.5071 -1.2067  0.2925
 7020TIP3   OH245254   6.920   3.300  12.355  0.2928  0.2755 -0.0087
 7020TIP3    H145255   6.969   3.381  12.370  0.8504 -0.2204  0.8834
 7020TIP3    H245256   6.828   3.326  12.360  0.4447  1.0791 -0.9836
 7021TIP3   OH245257   2.416   1.696  12.708  0.1662 -0.8067  0.1691
 7021TIP3    H145258   2.348   1.638  12.672  0.5747 -0.6300 -0.9179
 7021TIP3    H245259   2.492   1.681  12.652  1.3820 -1.7811  1.9920
 7022TIP3   OH245260   4.714   6.413  10.374 -0.2925 -0.5535 -0.0883
 7022TIP3    H145261   4.652   6.351  10.339 -1.5215  1.6173 -2.0168
 7022TIP3    H245262   4.665   6.495  10.381  1.8618  0.8071  0.0425
 7023TIP3   OH245263   2.977   3.927  12.363  0.1063  0.1564  0.3299
 7023TIP3    H145264   3.057   3.897  12.406  0.8023 -0.1635 -1.1434
 7023TIP3    H245265   2.968   3.870  12.287 -0.9388  0.8939 -0.1146
 7024TIP3   OH245266   4.221   1.357  12.662 -0.2812  0.2323 -0.1492
 7024TIP3    H145267   4.244   1.366  12.569  2.2303 -0.8468  0.2842
 7024TIP3    H245268   4.261   1.434  12.703  0.5599 -0.4505  0.3240
 7025TIP3   OH245269   2.743   4.347  10.335  0.2051 -0.1985 -0.0140
 7025TIP3    H145270   2.816   4.300  10.295 -0.1618 -0.5054 -0.3373
 7025TIP3    H245271   2.744   4.433  10.295  0.2618 -0.2750 -0.1784
 7026TIP3   OH245272   5.244   4.337  10.711  0.1384 -0.0525  0.2691
 7026TIP3    H145273   5.205   4.379  10.787 -0.7887 -1.0649  0.3884
 7026TIP3    H245274   5.286   4.258  10.746  0.2334 -0.2071 -0.1859
 7027TIP3   OH245275   2.330   3.666  12.668 -0.1113 -0.0416  0.6076
 7027TIP3    H145276   2.280   3.653  12.587 -0.8591 -1.0890  1.2119
 7027TIP3    H245277   2.306   3.755  12.696 -1.1319 -0.2712  0.5237
 7028TIP3   OH245278   6.593   4.408  11.365  0.0040  0.3386 -0.0208
 7028TIP3    H145279   6.540   4.451  11.297 -0.6820  0.4977  0.5980
 7028TIP3    H245280   6.671   4.463  11.373 -0.5356  1.0948  0.2568
 7029TIP3   OH245281   7.253   7.159  11.654  0.3959 -0.0577  0.2631
 7029TIP3    H145282   7.246   7.241  11.604 -1.6415 -0.9765 -1.0912
 7029TIP3    H245283   7.315   7.106  11.603 -1.0671 -0.6891 -0.9198
 7030TIP3   OH245284   7.094   2.681  10.590 -0.4026  0.3660  0.2444
 7030TIP3    H145285   7.108   2.772  10.563  2.1999 -0.0756 -0.0772
 7030TIP3    H245286   7.176   2.636  10.569 -1.6791 -2.1255  0.2386
 7031TIP3   OH245287   4.534   5.366  12.618  0.5231 -0.2670  0.2972
 7031TIP3    H145288   4.462   5.380  12.557  1.3356  0.1537 -0.5950
 7031TIP3    H245289   4.492   5.354  12.703 -0.6127 -0.4977 -0.2837
 7032TIP3   OH245290   5.134   4.028  12.068  0.2553  0.2172  0.2056
 7032TIP3    H145291   5.076   4.035  11.993 -1.1061  1.6699  1.3252
 7032TIP3    H245292   5.222   4.030  12.031 -0.3880  0.2977 -1.3706
 7033TIP3   OH245293   3.211   0.842  13.190  0.0518 -0.2784 -0.1465
 7033TIP3    H145294   3.123   0.878  13.204 -0.1521 -0.1677 -1.5180
 7033TIP3    H245295   3.270   0.916  13.203 -0.2886  0.3600 -1.9156
 7034TIP3   OH245296   4.457   1.738  10.304  0.1039 -0.1462  0.1642
 7034TIP3    H145297   4.370   1.776  10.314  0.6410  0.7372  1.7596
 7034TIP3    H245298   4.466   1.677  10.376  1.0607  0.3183  0.4692
 7035TIP3   OH245299   2.808   4.556  11.077  0.6354 -0.5037 -0.4062
 7035TIP3    H145300   2.799   4.645  11.043  0.0773 -1.1222 -2.0032
 7035TIP3    H245301   2.901   4.535  11.066  0.7698 -0.1297 -0.0152
 7036TIP3   OH245302   5.096   1.544  11.900  0.5555  0.3001 -0.4772
 7036TIP3    H145303   5.121   1.479  11.834  0.3034  1.7477 -2.0846
 7036TIP3    H245304   5.087   1.626  11.851 -0.7793  1.2215  1.1819
 7037TIP3   OH245305   3.796   0.886  12.726  0.3438  0.1214  0.2212
 7037TIP3    H145306   3.804   0.915  12.635  1.4017 -0.3583  0.1540
 7037TIP3    H245307   3.732   0.947  12.765  0.1208  0.5253 -0.7522
 7038TIP3   OH245308   6.549   4.838  17.235 -0.2545  0.1922  0.4359
 7038TIP3    H145309   6.578   4.832  17.144 -0.8560 -0.9813  0.3034
 7038TIP3    H245310   6.587   4.761  17.278 -0.5978  0.3262  0.9933
 7039TIP3   OH245311   7.354   3.092  10.559  0.3352  0.2567  0.1276
 7039TIP3    H145312   7.324   3.156  10.624 -2.2394  0.5715 -1.2639
 7039TIP3    H245313   7.333   3.132  10.475  2.5625 -0.6392 -0.9363
 7040TIP3   OH245314   3.625   7.096  12.246  0.5807  0.0165  0.4168
 7040TIP3    H145315   3.560   7.050  12.299  0.0980  0.2783  0.0545
 7040TIP3    H245316   3.637   7.180  12.291  1.9285 -0.6666  1.4396
 7041TIP3   OH245317   1.380   5.254  12.488 -0.3473  0.2690 -0.1615
 7041TIP3    H145318   1.303   5.217  12.530 -0.1806  0.6274  0.4801
 7041TIP3    H245319   1.350   5.336  12.450 -0.4580  0.0281 -0.6020
 7042TIP3   OH245320   6.972   6.881  12.247 -0.2755  0.3891 -0.3340
 7042TIP3    H145321   6.892   6.895  12.298 -0.4444 -0.1925 -0.4376
 7042TIP3    H245322   6.971   6.788  12.225  0.1764  0.4823 -0.7638
 7043TIP3   OH245323   0.214   5.488  12.378  0.6248  0.0407  0.2222
 7043TIP3    H145324   0.225   5.490  12.473  1.1033  1.3921  0.1536
 7043TIP3    H245325   0.120   5.504  12.364  0.3212 -1.3378  0.4757
 7044TIP3   OH245326   1.997   5.686  10.627 -0.0604  0.0364 -0.2995
 7044TIP3    H145327   1.951   5.619  10.576  0.0232 -0.1411 -0.1434
 7044TIP3    H245328   1.976   5.665  10.718  0.0861  0.1355 -0.2436
 7045TIP3   OH245329   2.713   7.633  11.347  0.8260 -0.4125 -0.0132
 7045TIP3    H145330   2.746   7.658  11.261  0.8271  0.8988  0.3383
 7045TIP3    H245331   2.771   7.678  11.409  0.4659 -0.8569  0.6665
 7046TIP3   OH245332   4.777   3.590  11.625 -0.2037  0.0890 -0.7541
 7046TIP3    H145333   4.773   3.683  11.648 -0.9944 -0.1574  0.2294
 7046TIP3    H245334   4.793   3.588  11.531 -0.2207  1.2234 -0.7900
 7047TIP3   OH245335   6.912   3.161  11.137  0.2381  0.6481 -0.5237
 7047TIP3    H145336   6.938   3.214  11.213  1.9435 -0.3482 -0.3555
 7047TIP3    H245337   6.995   3.129  11.102 -0.6413 -0.2598 -1.8261
 7048TIP3   OH245338   0.025   3.928  10.672 -0.6779  0.2051 -0.2500
 7048TIP3    H145339   0.054   4.015  10.697 -0.0693  0.4014 -1.5885
 7048TIP3    H245340   0.075   3.869  10.729  1.6492  0.5787 -1.7653
 7049TIP3   OH245341   6.334   7.620  12.347 -0.4133 -0.5169  0.0428
 7049TIP3    H145342   6.404   7.560  12.371 -0.4570 -0.2157  0.9710
 7049TIP3    H245343   6.325   7.611  12.253  2.3476  1.0175 -0.4627
 7050TIP3   OH245344   6.080   4.333  11.602  0.3657  0.2159 -0.4450
 7050TIP3    H145345   6.155   4.363  11.654  0.9492 -1.5254 -0.2083
 7050TIP3    H245346   6.004   4.373  11.644  0.9597  0.0377  0.8539
 7051TIP3   OH245347   2.411   0.289  12.183 -0.5552 -0.2800 -0.6676
 7051TIP3    H145348   2.386   0.379  12.161 -1.2390 -0.6498 -1.4906
 7051TIP3    H245349   2.497   0.297  12.223 -0.8054  0.7844 -0.3146
 7052TIP3   OH245350   3.735   4.866  10.763 -0.1366  0.8694  0.1880
 7052TIP3    H145351   3.724   4.893  10.671 -0.5597  0.2742  0.0593
 7052TIP3    H245352   3.817   4.908  10.790 -0.0460  1.1142 -0.4394
 7053TIP3   OH245353   0.905   1.333  11.661  0.2382 -0.1439  0.1026
 7053TIP3    H145354   0.848   1.403  11.627 -0.2621 -1.2060 -1.3163
 7053TIP3    H245355   0.904   1.346  11.756 -0.3476  1.3926 -0.0866
 7054TIP3   OH245356   4.396   3.246  11.256  0.8081 -0.0134  0.8688
 7054TIP3    H145357   4.305   3.274  11.258  0.6050 -0.6944  1.9936
 7054TIP3    H245358   4.401   3.184  11.182  0.0884 -0.8204  1.4797
 7055TIP3   OH245359   7.323   0.938  13.191 -0.1842 -0.7055 -0.3786
 7055TIP3    H145360   7.394   0.893  13.237  0.3621 -0.4062 -0.9221
 7055TIP3    H245361   7.353   0.945  13.100  0.8793  2.9046  0.0969
 7056TIP3   OH245362   0.907   2.002  10.965 -0.0289  0.8488 -0.1508
 7056TIP3    H145363   0.887   1.920  10.921  2.1317  0.0425  0.2252
 7056TIP3    H245364   0.845   2.007  11.037 -0.4096 -0.2914 -0.3783
 7057TIP3   OH245365   0.424   7.592  10.997  0.5233 -0.2018  1.1771
 7057TIP3    H145366   0.496   7.646  11.028  0.6054  0.8565 -0.6780
 7057TIP3    H245367   0.346   7.633  11.033  0.7157 -0.1895  1.5899
 7058TIP3   OH245368   3.870   5.814  11.270  0.1333  0.0830 -0.5057
 7058TIP3    H145369   3.964   5.824  11.259  0.4218 -0.9069  0.8414
 7058TIP3    H245370   3.832   5.873  11.204  1.6738  0.6374 -0.9440
 7059TIP3   OH245371   2.020   6.180  10.341  0.0921  0.1309  0.1483
 7059TIP3    H145372   1.983   6.127  10.412  0.2085  0.5062  0.4903
 7059TIP3    H245373   2.054   6.116  10.279 -1.0663 -0.2301 -0.1447
 7060TIP3   OH245374   7.028   5.249  11.087  0.5330 -0.3442  0.1937
 7060TIP3    H145375   7.113   5.284  11.115  0.4566 -1.4147  1.8783
 7060TIP3    H245376   6.966   5.280  11.153  0.0241 -1.4578  0.2690
 7061TIP3   OH245377   6.294   7.326  12.178  0.3262 -0.1425 -0.0152
 7061TIP3    H145378   6.232   7.339  12.250 -0.9547  0.6604 -1.1832
 7061TIP3    H245379   6.293   7.410  12.131  0.1056 -1.0274 -1.6862
 7062TIP3   OH245380   2.107   6.351  11.135 -0.0840 -0.7077 -0.0667
 7062TIP3    H145381   2.137   6.293  11.064 -0.6209 -0.5216 -0.4445
 7062TIP3    H245382   2.150   6.315  11.214 -1.0548 -2.1444 -0.1496
 7063TIP3   OH245383   6.038   3.430  10.879 -0.0972 -0.0915  0.7777
 7063TIP3    H145384   6.112   3.486  10.902 -0.3369 -0.0126  1.3679
 7063TIP3    H245385   5.961   3.478  10.910 -0.3517 -0.4617  0.7220
 7064TIP3   OH245386   2.844   6.539  11.809 -0.6826  0.2789 -0.2866
 7064TIP3    H145387   2.832   6.463  11.752 -0.0382 -1.4741  1.7660
 7064TIP3    H245388   2.882   6.606  11.753  0.0574 -1.4066 -1.8818
 7065TIP3   OH245389   5.429   4.748  11.015 -0.5026  0.0122  0.0154
 7065TIP3    H145390   5.392   4.664  11.043  0.4646 -0.8881 -1.2784
 7065TIP3    H245391   5.508   4.758  11.068 -1.7049  1.1944  1.6908
 7066TIP3   OH245392   0.435   4.686  12.061  0.2449 -0.1226 -0.0644
 7066TIP3    H145393   0.451   4.702  12.154  2.1273  0.4811 -0.4461
 7066TIP3    H245394   0.340   4.681  12.053  0.0558 -0.3452  1.9093
 7067TIP3   OH245395   5.832   1.229  11.230 -0.3021  0.4590 -0.0680
 7067TIP3    H145396   5.746   1.196  11.256  0.0927  0.0368  0.7215
 7067TIP3    H245397   5.866   1.162  11.170 -1.2457  1.4710 -1.8314
 7068TIP3   OH245398   2.308   5.315  10.455 -0.0704 -0.5102 -0.2230
 7068TIP3    H145399   2.387   5.267  10.431  0.4661  1.0318 -1.7866
 7068TIP3    H245400   2.319   5.401  10.414 -2.2337 -0.0083  0.1191
 7069TIP3   OH245401   2.537   1.454  12.962  0.5594  0.1374 -0.5193
 7069TIP3    H145402   2.607   1.518  12.944 -0.8430  1.8214 -0.3114
 7069TIP3    H245403   2.456   1.504  12.951 -0.7050 -2.1097 -2.1675
 7070TIP3   OH245404   0.577   7.013  12.367 -0.1122 -0.4533  0.0487
 7070TIP3    H145405   0.521   7.000  12.291  0.4526  0.1929 -0.4825
 7070TIP3    H245406   0.608   6.925  12.390 -1.1544 -0.7917  0.2211
 7071TIP3   OH245407   3.218   3.269  11.487  0.1377  0.0318  0.7943
 7071TIP3    H145408   3.210   3.258  11.392  0.8850 -0.2132  0.7580
 7071TIP3    H245409   3.174   3.192  11.523 -2.3585  1.3174  0.7236
 7072TIP3   OH245410   7.631   5.536  12.315  0.2248  0.2421 -0.2406
 7072TIP3    H145411   7.570   5.466  12.338  0.0814  0.4463  0.0128
 7072TIP3    H245412   7.593   5.614  12.356 -0.6381  0.8411 -2.0781
 7073TIP3   OH245413   7.210   5.854  10.519 -0.0519  0.1050  0.4348
 7073TIP3    H145414   7.205   5.761  10.542 -0.2248 -0.1920 -0.7237
 7073TIP3    H245415   7.119   5.878  10.498  0.4929 -0.6633 -3.5660
 7074TIP3   OH245416   1.437   0.495  11.385  0.5329  0.3481  0.1798
 7074TIP3    H145417   1.417   0.545  11.464  0.7069  0.5099  0.1239
 7074TIP3    H245418   1.522   0.529  11.356  1.9871 -1.8036  1.6208
 7075TIP3   OH245419   4.186   1.701  12.424 -0.5305  0.1571  0.1091
 7075TIP3    H145420   4.171   1.688  12.518  1.4489 -0.9653  0.3273
 7075TIP3    H245421   4.244   1.776  12.420  1.0035 -0.9926 -0.0337
 7076TIP3   OH245422   5.883   0.580  11.682 -0.8730 -0.1130 -0.4380
 7076TIP3    H145423   5.854   0.508  11.626 -0.8404  1.2623 -2.2793
 7076TIP3    H245424   5.946   0.539  11.742 -1.9382 -1.8946 -0.4507
 7077TIP3   OH245425   4.519   1.414  11.668  0.3586  0.3835 -0.1197
 7077TIP3    H145426   4.469   1.363  11.604 -0.8569 -1.1362  1.8769
 7077TIP3    H245427   4.516   1.360  11.747  3.8664  1.0172  0.5722
 7078TIP3   OH245428   3.588   5.847  10.806 -0.0361 -0.1504  0.3999
 7078TIP3    H145429   3.619   5.789  10.737  1.4384 -0.5625  1.3432
 7078TIP3    H245430   3.521   5.901  10.764 -0.2854 -1.4173 -0.9201
 7079TIP3   OH245431   4.995   6.700  13.293  0.0794  0.3552 -0.1770
 7079TIP3    H145432   4.910   6.726  13.328  0.2494 -1.1749  1.5561
 7079TIP3    H245433   4.984   6.609  13.265  0.7739  0.5953 -1.2903
 7080TIP3   OH245434   0.678   3.120  10.732  0.0475 -0.2649 -0.8986
 7080TIP3    H145435   0.734   3.065  10.787  1.7033  2.3892  0.2689
 7080TIP3    H245436   0.688   3.083  10.644 -1.6702 -3.8455  0.2144
 7081TIP3   OH245437   1.803   2.956  11.766  0.0898  0.6169  0.0492
 7081TIP3    H145438   1.778   2.866  11.788 -0.3148  0.9415  0.9694
 7081TIP3    H245439   1.817   2.955  11.671 -1.4363 -0.0488 -0.1852
 7082TIP3   OH245440   3.024   6.001  11.383  0.0518  0.3013 -0.4533
 7082TIP3    H145441   3.074   6.015  11.463  0.1099  0.5965 -0.5394
 7082TIP3    H245442   3.032   6.084  11.335  0.9096 -0.2216 -1.2608
 7083TIP3   OH245443   1.848   2.277  11.759 -0.1511 -0.2113  0.3217
 7083TIP3    H145444   1.847   2.345  11.826 -0.3652  0.5890 -0.4667
 7083TIP3    H245445   1.771   2.224  11.777 -1.1735  1.0259 -0.2935
 7084TIP3   OH245446   1.188   5.731  12.536 -0.0668 -0.2852 -0.0549
 7084TIP3    H145447   1.169   5.666  12.603  1.0468  0.4307  0.9959
 7084TIP3    H245448   1.167   5.815  12.577  2.3260  0.3135  0.1066
 7085TIP3   OH245449   4.244   7.569  12.658 -0.2254  0.0139  0.3443
 7085TIP3    H145450   4.230   7.491  12.712  2.5572 -1.4744 -0.8986
 7085TIP3    H245451   4.326   7.605  12.690 -0.0664  0.8441 -0.9339
 7086TIP3   OH245452   5.207   0.498  12.892  0.2195 -0.4269  0.1643
 7086TIP3    H145453   5.119   0.529  12.910 -0.0612 -0.5656 -0.9315
 7086TIP3    H245454   5.198   0.440  12.817  1.3080 -0.0592 -0.2767
 7087TIP3   OH245455   1.024   6.917  12.108 -0.2228 -0.2413 -0.0628
 7087TIP3    H145456   0.930   6.920  12.123 -0.3100  0.7611 -0.7397
 7087TIP3    H245457   1.035   6.852  12.038 -0.4573 -0.0086 -0.3168
 7088TIP3   OH245458   5.093   1.322  11.706  0.3322  0.1332  0.3249
 7088TIP3    H145459   5.188   1.328  11.694  0.3238 -0.1405  0.1234
 7088TIP3    H245460   5.078   1.231  11.733  0.2217  0.4119  1.2289
 7089TIP3   OH245461   4.090   7.074  10.943  0.7991 -0.3061  0.0332
 7089TIP3    H145462   4.003   7.043  10.915  0.8062 -0.2283 -0.0793
 7089TIP3    H245463   4.117   7.013  11.011  0.3415  0.0923  0.5745
 7090TIP3   OH245464   1.371   7.600  11.711 -0.2723  0.3299  0.3818
 7090TIP3    H145465   1.283   7.633  11.729 -0.8705 -0.6652 -0.6440
 7090TIP3    H245466   1.411   7.668  11.656 -0.1624  1.0688  1.3452
 7091TIP3   OH245467   0.056   4.635  12.810 -0.1581  0.0995  0.4106
 7091TIP3    H145468  -0.030   4.634  12.851 -0.5353 -0.2738 -0.3632
 7091TIP3    H245469   0.111   4.582  12.868 -0.9274 -1.2429 -0.0451
 7092TIP3   OH245470   4.647   2.916  11.537  0.2080 -0.1955 -0.1470
 7092TIP3    H145471   4.718   2.908  11.473 -0.1476  0.4413 -0.6289
 7092TIP3    H245472   4.651   3.007  11.567 -0.3680 -0.1687 -0.1340
 7093TIP3   OH245473   2.088   4.401  10.866  0.0522 -0.1911  0.3417
 7093TIP3    H145474   2.077   4.465  10.795  0.3164 -0.2128  0.2780
 7093TIP3    H245475   2.003   4.358  10.872  0.7397 -2.0451 -1.7781
 7094TIP3   OH245476   4.001   0.641  11.297 -0.3290  0.2119 -0.5512
 7094TIP3    H145477   4.009   0.582  11.222 -1.1827 -1.0005  0.2660
 7094TIP3    H245478   4.002   0.583  11.373  0.6029  1.4242  0.3935
 7095TIP3   OH245479   2.133   2.664  10.560 -0.1622 -0.0880  0.0179
 7095TIP3    H145480   2.156   2.709  10.478  0.6392  0.0813  0.3307
 7095TIP3    H245481   2.167   2.575  10.549  0.7505  0.1906  0.5219
 7096TIP3   OH245482   1.408   3.998  11.650 -0.0570  0.2742 -0.0781
 7096TIP3    H145483   1.412   4.070  11.712 -1.0123  0.3691 -0.1192
 7096TIP3    H245484   1.500   3.980  11.628  0.1765  1.6551 -0.2909
 7097TIP3   OH245485   5.165   7.391  12.986  0.3414  0.1793  0.2434
 7097TIP3    H145486   5.170   7.422  13.077 -0.2240  1.5099 -0.1540
 7097TIP3    H245487   5.255   7.373  12.962  0.4881 -0.3254  1.1080
 7098TIP3   OH245488   1.604   4.721  12.800  0.2923  0.0988 -0.4435
 7098TIP3    H145489   1.677   4.709  12.861  0.9677 -0.4111 -1.3183
 7098TIP3    H245490   1.564   4.804  12.826 -0.8373 -1.1136  2.0992
 7099TIP3   OH245491   5.449   7.411  11.188  0.6536 -0.5102  0.3193
 7099TIP3    H145492   5.480   7.345  11.125 -3.4159 -1.7644 -0.6979
 7099TIP3    H245493   5.418   7.359  11.262 -0.5430  0.4209  0.4865
 7100TIP3   OH245494   4.306   1.190  11.503  0.0721  0.2806 -0.1299
 7100TIP3    H145495   4.326   1.106  11.461 -0.1626 -0.7968  1.7573
 7100TIP3    H245496   4.241   1.231  11.446 -0.1973 -1.0716 -0.8421
 7101TIP3   OH245497   3.136   0.190  10.660  0.1115  0.3412 -0.2646
 7101TIP3    H145498   3.109   0.188  10.752  0.1706 -1.3788 -0.2582
 7101TIP3    H245499   3.230   0.206  10.663 -0.2790  3.1585 -0.1781
 7102TIP3   OH245500   1.834   3.408  10.889 -0.0226 -0.0196  0.3396
 7102TIP3    H145501   1.854   3.498  10.864  0.9905 -0.3359 -0.0527
 7102TIP3    H245502   1.896   3.355  10.839 -0.5241 -0.9308  0.6579
 7103TIP3   OH245503   2.389   2.665  12.956 -0.6669  0.5801 -0.4506
 7103TIP3    H145504   2.442   2.597  12.996  0.4188  1.0739 -0.9918
 7103TIP3    H245505   2.335   2.619  12.892 -1.1301  0.0280  0.3293
 7104TIP3   OH245506   0.140   0.292  11.591  0.0098  0.0904  0.2450
 7104TIP3    H145507   0.092   0.331  11.664 -0.6886  0.6839 -0.5192
 7104TIP3    H245508   0.164   0.205  11.622  2.5227  1.3866  2.4164
 7105TIP3   OH245509   5.586   6.429  10.634  0.2483  0.1647  0.0672
 7105TIP3    H145510   5.561   6.439  10.725 -0.5757 -0.2849 -0.0963
 7105TIP3    H245511   5.503   6.418  10.587  0.6895 -0.3245 -0.6375
 7106TIP3   OH245512   1.939   4.627  12.025  0.3749 -1.0447 -0.2776
 7106TIP3    H145513   1.904   4.612  12.113 -1.6987  1.8091 -0.4731
 7106TIP3    H245514   1.866   4.668  11.977  2.0571 -0.7183 -2.7164
 7107TIP3   OH245515   6.839   0.706  10.826  0.1345  0.1549 -0.1519
 7107TIP3    H145516   6.803   0.784  10.783 -0.1690 -0.5872 -1.2972
 7107TIP3    H245517   6.766   0.644  10.826  0.4009 -0.1684  0.6746
 7108TIP3   OH245518   3.075   4.784  11.440  0.2656 -0.0310 -0.3896
 7108TIP3    H145519   3.130   4.861  11.430 -0.4673  0.5576  0.0408
 7108TIP3    H245520   3.037   4.770  11.353  0.1745  0.2675 -0.3978
 7109TIP3   OH245521   0.766   7.069  10.531  0.2455  0.1534 -0.1886
 7109TIP3    H145522   0.713   7.145  10.558 -1.1250 -0.6160 -0.6287
 7109TIP3    H245523   0.721   7.034  10.454  0.5905 -1.3912  0.2775
 7110TIP3   OH245524   1.571   6.814  13.333 -0.0931  0.1036 -0.2625
 7110TIP3    H145525   1.637   6.755  13.297  0.7077  0.3790  0.7230
 7110TIP3    H245526   1.620   6.893  13.358 -0.6349 -0.0047  1.2575
 7111TIP3   OH245527   4.784   0.528  10.432 -0.1269 -0.1586  0.0268
 7111TIP3    H145528   4.768   0.622  10.441 -0.1517 -0.0980 -0.5985
 7111TIP3    H245529   4.722   0.500  10.364 -0.4386 -0.7150  0.5372
 7112TIP3   OH245530   3.375   2.992  11.301 -0.0386 -0.7737 -0.1937
 7112TIP3    H145531   3.315   2.931  11.342  0.0159 -1.2378 -0.7997
 7112TIP3    H245532   3.319   3.061  11.264 -0.0234  0.3162  1.7094
 7113TIP3   OH245533   2.946   1.574  12.580 -0.5604  0.6574  0.1561
 7113TIP3    H145534   3.033   1.575  12.540  0.1312  2.2775  1.5942
 7113TIP3    H245535   2.961   1.545  12.669 -1.7317 -0.4595  0.0175
 7114TIP3   OH245536   3.772   3.534  10.412 -0.1622 -0.2900  0.1217
 7114TIP3    H145537   3.721   3.538  10.493 -0.2838  2.4342  0.0222
 7114TIP3    H245538   3.713   3.496  10.348 -1.1994  0.4351  0.6188
 7115TIP3   OH245539   0.061   5.818  11.117 -0.2334 -0.7017 -0.0871
 7115TIP3    H145540   0.050   5.887  11.182  1.8578  0.4085 -0.8442
 7115TIP3    H245541   0.112   5.751  11.162  0.0151 -0.5575 -0.1526
 7116TIP3   OH245542   7.676   2.299  12.155 -0.0782  0.4046  0.3596
 7116TIP3    H145543   7.667   2.223  12.213 -0.8876 -0.3590 -0.6957
 7116TIP3    H245544   7.752   2.279  12.101 -1.6627 -0.9230 -1.5804
 7117TIP3   OH245545   5.819   1.356  10.694  0.7120  0.0625  0.1324
 7117TIP3    H145546   5.844   1.350  10.786  0.0858 -2.1212  0.2053
 7117TIP3    H245547   5.896   1.324  10.646  0.2527 -0.9000  0.0284
 7118TIP3   OH245548   4.987   4.635  12.871  0.3533 -0.5782  0.0629
 7118TIP3    H145549   4.943   4.552  12.886  2.2190 -1.3613  1.6379
 7118TIP3    H245550   4.966   4.687  12.948 -0.7933  0.4602 -0.9053
 7119TIP3   OH245551   7.256   7.063  12.556 -0.1236 -0.2512 -0.1723
 7119TIP3    H145552   7.272   7.147  12.599  0.8363  0.2178 -1.3865
 7119TIP3    H245553   7.202   7.014  12.619  0.9354  0.5164  1.4034
 7120TIP3   OH245554   6.906   1.618  11.650 -0.4035 -0.6070  0.1167
 7120TIP3    H145555   6.980   1.675  11.665 -0.5412 -0.4619  0.2463
 7120TIP3    H245556   6.849   1.667  11.591 -0.5405 -0.5954  0.2595
 7121TIP3   OH245557   1.458   0.304  12.620 -0.3711  0.4776 -0.4259
 7121TIP3    H145558   1.395   0.288  12.550  1.0050 -1.8657 -1.2385
 7121TIP3    H245559   1.541   0.318  12.575  0.2967  0.2544  0.6931
 7122TIP3   OH245560   0.998   5.521  11.062  0.3386 -0.1804 -0.1057
 7122TIP3    H145561   0.929   5.464  11.095  0.9124 -0.5688  0.4486
 7122TIP3    H245562   0.957   5.571  10.991 -0.2710 -1.0220 -0.3556
 7123TIP3   OH245563   6.844   4.858  10.814 -0.0247 -0.6737  0.0679
 7123TIP3    H145564   6.781   4.829  10.748  1.2299 -1.3456 -0.8871
 7123TIP3    H245565   6.799   4.845  10.897 -0.9946 -1.5381 -0.5605
 7124TIP3   OH245566   7.047   4.909  10.347  0.6135 -0.1262 -0.2223
 7124TIP3    H145567   7.081   4.891  10.434 -0.0170  0.0955  0.0756
 7124TIP3    H245568   7.118   4.885  10.288  1.4274  0.6884  0.3949
 7125TIP3   OH245569   4.352   6.735  12.866  0.4728 -0.1295  0.2677
 7125TIP3    H145570   4.410   6.700  12.798  0.1688  0.5306 -0.3454
 7125TIP3    H245571   4.346   6.828  12.846 -0.3191 -0.0882  0.6862
 7126TIP3   OH245572   6.699   7.112  11.772  0.1303  0.5683 -0.0515
 7126TIP3    H145573   6.731   7.150  11.854  1.1655  1.5311 -0.8674
 7126TIP3    H245574   6.746   7.029  11.764  0.6112  0.8353 -0.0460
 7127TIP3   OH245575   0.457   6.997  12.130 -0.5076  0.0861  0.0135
 7127TIP3    H145576   0.414   7.066  12.079  0.1927 -0.1484 -0.9346
 7127TIP3    H245577   0.418   6.916  12.096 -0.7818 -0.0268  0.5906
 7128TIP3   OH245578   7.235   7.288  12.164 -0.4087  0.3435 -0.4893
 7128TIP3    H145579   7.212   7.284  12.071 -1.5737 -0.1902 -0.1887
 7128TIP3    H245580   7.205   7.205  12.200 -0.2482  0.6741  0.4382
 7129TIP3   OH245581   0.583   4.983  12.222 -0.0680 -0.5991  0.2024
 7129TIP3    H145582   0.594   5.073  12.251 -1.3949 -0.5827  0.7084
 7129TIP3    H245583   0.526   4.943  12.287 -0.2240 -1.5557 -0.4911
 7130TIP3   OH245584   6.272   2.403  12.013  0.4405  0.2478 -0.0399
 7130TIP3    H145585   6.351   2.358  11.982  0.7695 -0.5320  1.8227
 7130TIP3    H245586   6.209   2.332  12.029 -0.3573  0.7949 -0.7084
 7131TIP3   OH245587   4.602   5.202  11.363 -0.0740  0.2451  0.1144
 7131TIP3    H145588   4.577   5.293  11.347  1.2417  0.3510 -1.7655
 7131TIP3    H245589   4.642   5.202  11.449 -0.8728  1.2522  0.5084
 7132TIP3   OH245590   1.332   2.427  11.160 -0.4638  0.5958  0.2103
 7132TIP3    H145591   1.277   2.464  11.090 -1.4624  1.0851  1.2231
 7132TIP3    H245592   1.404   2.489  11.169  0.7254 -0.4335 -1.6405
 7133TIP3   OH245593   7.120   2.685  13.294  0.7392  0.0200 -0.6952
 7133TIP3    H145594   7.056   2.626  13.255 -0.4048  0.0687  0.9848
 7133TIP3    H245595   7.169   2.631  13.356  0.0510  0.6648  0.4532
 7134TIP3   OH245596   1.346   0.202  12.846 -0.5798 -0.3541 -0.2946
 7134TIP3    H145597   1.409   0.134  12.869  0.8630  0.5674 -1.3223
 7134TIP3    H245598   1.375   0.233  12.760 -1.6769  1.0009 -0.2148
 7135TIP3   OH245599   3.297   5.526  12.375  0.6469  0.6864  0.0440
 7135TIP3    H145600   3.207   5.528  12.344  0.5626 -0.8806  0.1154
 7135TIP3    H245601   3.350   5.536  12.296  0.4081 -0.1190 -0.2286
 7136TIP3   OH245602   2.553   0.974  12.105 -0.0083 -0.3310  0.5639
 7136TIP3    H145603   2.615   0.915  12.062  0.9009  1.7621 -1.2285
 7136TIP3    H245604   2.489   0.995  12.037  0.9531  2.3912  0.3906
 7137TIP3   OH245605   6.531   3.909  12.002 -0.1420  0.3520 -0.0770
 7137TIP3    H145606   6.512   3.824  12.041 -0.8472  0.7316  0.4363
 7137TIP3    H245607   6.570   3.889  11.917 -0.9835 -0.4873 -0.2761
 7138TIP3   OH245608   4.101   0.434  11.117 -0.0644  0.1204 -0.1716
 7138TIP3    H145609   4.187   0.392  11.117 -0.0994  0.0431 -0.9350
 7138TIP3    H245610   4.039   0.362  11.114 -0.1204  0.1651 -3.2428
 7139TIP3   OH245611   0.242   1.967  10.836  0.1232  0.3371  0.7720
 7139TIP3    H145612   0.205   1.880  10.815  1.3274 -0.0553  0.1775
 7139TIP3    H245613   0.170   2.014  10.878 -1.1006 -0.3651 -0.4268
 7140TIP3   OH245614   1.163   4.891  12.444  0.1064  0.4841 -0.2412
 7140TIP3    H145615   1.134   4.959  12.505  1.1469  1.8945 -1.2424
 7140TIP3    H245616   1.257   4.882  12.463  0.4704  1.0284 -1.6596
 7141TIP3   OH245617   2.037   7.393  10.466 -0.0350 -0.3961  0.1223
 7141TIP3    H145618   1.953   7.435  10.447  1.2992  2.0080 -0.8737
 7141TIP3    H245619   2.015   7.324  10.529 -2.9148 -0.7406 -1.1029
 7142TIP3   OH245620   5.839   4.891  13.405  0.0282  0.3611  0.2805
 7142TIP3    H145621   5.931   4.876  13.384 -0.0320 -2.1111  1.4878
 7142TIP3    H245622   5.795   4.896  13.319  0.8742 -1.4463 -0.2912
 7143TIP3   OH245623   1.894   0.854  11.554  0.9417  0.0819  0.0620
 7143TIP3    H145624   1.898   0.949  11.546 -1.9977  0.2727  0.0906
 7143TIP3    H245625   1.935   0.835  11.638  1.2486  1.3336  0.2107
 7144TIP3   OH245626   7.510   7.615  11.333 -0.3523 -0.0531 -0.5934
 7144TIP3    H145627   7.487   7.696  11.288 -0.2696 -0.0695 -0.6666
 7144TIP3    H245628   7.442   7.603  11.399  0.5531  0.9665  0.5541
 7145TIP3   OH245629   1.250   0.060  13.230  0.0840 -0.0061 -0.4693
 7145TIP3    H145630   1.182   0.057  13.297 -1.0353 -0.0663 -1.5795
 7145TIP3    H245631   1.229   0.137  13.177  2.9171  2.1277  1.2093
 7146TIP3   OH245632   4.737   5.536  12.021  0.4843 -0.2494 -0.2872
 7146TIP3    H145633   4.734   5.600  11.950  2.4972  1.2661  0.9041
 7146TIP3    H245634   4.647   5.533  12.054 -0.2539 -0.1879 -2.1544
 7147TIP3   OH245635   4.371   0.574  12.679 -0.2736  0.7036 -0.2033
 7147TIP3    H145636   4.283   0.540  12.691 -0.7606  1.6483 -0.9462
 7147TIP3    H245637   4.401   0.594  12.768 -1.3871  1.7217 -0.0240
 7148TIP3   OH245638   3.847   4.727  11.269  0.3730  0.0333 -0.4840
 7148TIP3    H145639   3.889   4.641  11.262 -0.0955 -0.1457 -1.2772
 7148TIP3    H245640   3.782   4.716  11.338  1.0589  0.0765  0.1821
 7149TIP3   OH245641   1.236   3.636  11.761 -0.2101  0.3330  0.2717
 7149TIP3    H145642   1.166   3.646  11.825 -0.3384  0.9480  0.0482
 7149TIP3    H245643   1.233   3.717  11.709  0.7826  0.4467  0.3691
 7150TIP3   OH245644   0.101   4.687  10.473 -0.1118 -0.3019 -0.1527
 7150TIP3    H145645   0.016   4.689  10.428  1.1699 -0.8046 -2.8313
 7150TIP3    H245646   0.133   4.598  10.458  1.1298  0.0464  0.3138
 7151TIP3   OH245647   2.282   1.934  11.442  0.4715  0.2851  0.5418
 7151TIP3    H145648   2.200   1.885  11.435  0.3743  0.4649  0.3931
 7151TIP3    H245649   2.262   2.004  11.505  0.3712  0.6015  0.1667
 7152TIP3   OH245650   0.168   2.310  10.803  0.1210  0.0091 -0.1502
 7152TIP3    H145651   0.165   2.272  10.715  0.5561  0.3049 -0.2941
 7152TIP3    H245652   0.139   2.239  10.861  1.8824 -0.8775 -0.3057
 7153TIP3   OH245653   3.994   7.625  12.175  0.3082  0.4357 -0.2778
 7153TIP3    H145654   3.995   7.613  12.270  2.0763 -1.4318 -0.4591
 7153TIP3    H245655   4.077   7.668  12.155  1.2418 -1.6205 -1.1500
 7154TIP3   OH245656   0.058   7.501  11.922  0.1961  0.5560 -0.2061
 7154TIP3    H145657   0.104   7.469  11.844  0.6767 -2.4031  1.1452
 7154TIP3    H245658   0.128   7.539  11.975  0.7647 -1.5354  0.6715
 7155TIP3   OH245659   1.610   5.265  12.932  0.3580 -0.7660  0.4322
 7155TIP3    H145660   1.700   5.232  12.929  0.1164 -1.3934 -0.4428
 7155TIP3    H245661   1.586   5.275  12.840  0.8486  3.1598  0.5422
 7156TIP3   OH245662   0.418   4.349  12.586  0.2643 -0.0488 -0.3505
 7156TIP3    H145663   0.361   4.340  12.663  0.8719  3.0816  0.6047
 7156TIP3    H245664   0.476   4.274  12.591  0.5378  0.2350  2.5464
 7157TIP3   OH245665   4.555   6.463  13.147 -0.0181 -0.3280  0.4883
 7157TIP3    H145666   4.464   6.490  13.153  0.2557  0.3311  2.7098
 7157TIP3    H245667   4.575   6.465  13.053 -1.7069  1.4962  0.0919
 7158TIP3   OH245668   2.179   6.853  12.360 -0.2052 -0.3052  0.7239
 7158TIP3    H145669   2.273   6.837  12.345 -0.7048 -1.0303 -2.4689
 7158TIP3    H245670   2.165   6.830  12.451  2.8462  0.5503  1.5448
 7159TIP3   OH245671   0.866   2.050  10.338 -0.2027 -0.2436 -0.6844
 7159TIP3    H145672   0.797   1.989  10.310 -0.8711  0.2753 -0.1931
 7159TIP3    H245673   0.858   2.124  10.278 -1.5759  0.8267  0.7647
 7160TIP3   OH245674   2.731   5.511  12.575 -0.0096  0.3328 -0.1090
 7160TIP3    H145675   2.825   5.529  12.577  0.1910 -0.7270  1.2131
 7160TIP3    H245676   2.691   5.595  12.551  1.2586  0.7835 -0.7237
 7161TIP3   OH245677   4.513   2.679  11.939 -0.1738 -0.1839  1.0898
 7161TIP3    H145678   4.497   2.724  11.856 -0.3368 -0.3598  1.0258
 7161TIP3    H245679   4.533   2.589  11.914 -0.4045 -0.2800  1.2522
 7162TIP3   OH245680   1.256   0.262  11.611 -0.0187 -0.1650 -0.0433
 7162TIP3    H145681   1.180   0.269  11.669 -0.6488 -0.8732 -0.7586
 7162TIP3    H245682   1.224   0.212  11.536  0.7744  0.7262 -1.0092
 7163TIP3   OH245683   1.235   5.969  12.367 -0.2460 -0.1320 -0.2989
 7163TIP3    H145684   1.233   5.909  12.441 -0.1969  0.5028  0.2236
 7163TIP3    H245685   1.320   6.012  12.373 -0.7434  0.8349  0.0223
 7164TIP3   OH245686   5.873   4.381  10.933 -0.2967 -0.4676  0.2993
 7164TIP3    H145687   5.854   4.375  10.839 -0.2968  0.9108  0.2009
 7164TIP3    H245688   5.809   4.323  10.974 -2.1758  1.0491 -0.3468
 7165TIP3   OH245689   5.853   4.016  12.123  0.0047 -0.1437  0.2478
 7165TIP3    H145690   5.829   4.081  12.189  0.2990 -2.6295  2.9980
 7165TIP3    H245691   5.913   4.062  12.064 -0.0378  2.1098  1.8422
 7166TIP3   OH245692   5.190   3.661  11.835  0.1435 -0.3371 -0.2841
 7166TIP3    H145693   5.175   3.570  11.809  1.2392 -0.8195  0.6897
 7166TIP3    H245694   5.141   3.671  11.917 -0.1997  0.0427 -0.5303
 7167TIP3   OH245695   1.640   6.699  12.452 -0.0024 -0.0530 -0.5013
 7167TIP3    H145696   1.702   6.685  12.381 -0.4023 -1.2524 -0.6462
 7167TIP3    H245697   1.657   6.628  12.513  1.1873  1.6600  1.2647
 7168TIP3   OH245698   6.660   0.500  10.825  0.2245  0.1206 -0.4350
 7168TIP3    H145699   6.582   0.499  10.770  0.0178  2.3852 -0.3034
 7168TIP3    H245700   6.667   0.411  10.860 -2.1058 -0.2278 -0.7120
 7169TIP3   OH245701   4.737   4.762  12.361 -0.0871 -0.0155 -0.2267
 7169TIP3    H145702   4.818   4.794  12.401 -0.4201 -0.4770  0.8673
 7169TIP3    H245703   4.672   4.830  12.381 -0.3102 -0.3601  0.2545
 7170TIP3   OH245704   5.466   6.832  12.384  0.3032 -0.0760  0.4258
 7170TIP3    H145705   5.505   6.772  12.322 -0.0980  0.0228  0.0678
 7170TIP3    H245706   5.490   6.798  12.470  1.9680  0.5221  0.2190
 7171TIP3   OH245707   4.933   7.378  12.574  0.1806  0.3821 -0.2111
 7171TIP3    H145708   4.885   7.365  12.492  0.7747 -0.8840 -0.3881
 7171TIP3    H245709   5.015   7.330  12.562 -0.7524 -2.0027  2.0079
 7172TIP3   OH245710   6.472   1.292  11.762  0.0588  0.6581  0.2960
 7172TIP3    H145711   6.492   1.231  11.834  2.0881  0.2861 -0.5122
 7172TIP3    H245712   6.499   1.377  11.794 -0.3833  0.7347  0.4791
 7173TIP3   OH245713   4.156   5.870  12.604 -0.4904  0.0177 -0.1171
 7173TIP3    H145714   4.135   5.956  12.639 -0.8805 -0.1989  0.1855
 7173TIP3    H245715   4.103   5.862  12.525  0.2887  0.4517 -0.7008
 7174TIP3   OH245716   2.022   0.749  10.341  0.1650 -0.4022 -0.1787
 7174TIP3    H145717   2.112   0.729  10.364 -0.0566 -1.6613 -0.3466
 7174TIP3    H245718   1.982   0.664  10.323 -0.9508  0.1661 -0.4887
 7175TIP3   OH245719   0.681   4.590  12.219  0.3410 -0.0254 -0.4115
 7175TIP3    H145720   0.600   4.539  12.214 -0.0896  0.6275 -0.2394
 7175TIP3    H245721   0.673   4.654  12.148  0.0435  0.9616  0.4830
 7176TIP3   OH245722   2.704   6.588  11.497  0.2834 -0.2048  0.3921
 7176TIP3    H145723   2.751   6.667  11.525 -0.7346  0.6829 -0.3178
 7176TIP3    H245724   2.771   6.520  11.497  1.2635  0.7210  0.7446
 7177TIP3   OH245725   2.708   3.664  11.548 -0.2055  0.1349  0.5088
 7177TIP3    H145726   2.768   3.702  11.613 -0.4335  1.1435  0.1425
 7177TIP3    H245727   2.688   3.577  11.583 -0.5332  0.7561  1.9392
 7178TIP3   OH245728   5.717   0.159  12.023  0.3895  0.1770 -0.3317
 7178TIP3    H145729   5.768   0.230  11.983 -0.4173  0.9828  0.0234
 7178TIP3    H245730   5.712   0.092  11.955 -1.1248  1.5934 -1.7256
 7179TIP3   OH245731   3.371   4.110  11.898  0.2150  0.0853 -0.5561
 7179TIP3    H145732   3.366   4.098  11.803  0.6230  1.6203 -0.7919
 7179TIP3    H245733   3.295   4.164  11.919  1.1074  1.2898 -0.3021
 7180TIP3   OH245734   2.611   0.595  12.261 -0.1035 -0.1121  0.2463
 7180TIP3    H145735   2.516   0.597  12.264 -0.1129 -0.8607  1.4052
 7180TIP3    H245736   2.634   0.513  12.307  1.1119  0.5924  0.9534
 7181TIP3   OH245737   2.457   5.827  10.672 -0.5409  0.1925  0.5082
 7181TIP3    H145738   2.536   5.824  10.617 -0.8826  0.2045  0.0136
 7181TIP3    H245739   2.491   5.828  10.762  0.0134 -0.8932  0.3369
 7182TIP3   OH245740   5.895   3.463  12.163 -0.5449  0.0962 -0.4456
 7182TIP3    H145741   5.905   3.556  12.141  0.0960  0.2503  0.4613
 7182TIP3    H245742   5.862   3.463  12.253  0.7979 -0.5661  0.0626
 7183TIP3   OH245743   0.123   6.235  10.554  0.2432 -0.5811  0.7729
 7183TIP3    H145744   0.063   6.165  10.579 -0.9747  0.0885 -0.1901
 7183TIP3    H245745   0.073   6.315  10.562  1.2871  0.0960  0.7875
 7184TIP3   OH245746   1.301   1.993  11.507 -0.2871  0.0119  0.2839
 7184TIP3    H145747   1.288   2.075  11.460 -1.6168 -0.1307  0.3391
 7184TIP3    H245748   1.367   1.946  11.457 -0.1448  0.7468 -0.2353
 7185TIP3   OH245749   1.414   6.191  10.685  0.4733  0.1064  0.2937
 7185TIP3    H145750   1.410   6.096  10.680 -4.0161  0.0651  0.3124
 7185TIP3    H245751   1.487   6.215  10.628  1.1954 -3.2648 -0.4300
 7186TIP3   OH245752   0.918   2.312  12.743  0.3711  0.1338  0.7922
 7186TIP3    H145753   0.832   2.343  12.773  0.4860  0.1250  1.1237
 7186TIP3    H245754   0.935   2.233  12.794  1.2926  1.0054  1.8830
 7187TIP3   OH245755   4.823   3.031  11.061  0.0657 -0.2477 -0.3501
 7187TIP3    H145756   4.870   3.026  10.978 -0.3795  0.4010 -0.6549
 7187TIP3    H245757   4.774   2.949  11.067  1.3252 -1.0035  0.0447
 7188TIP3   OH245758   4.878   0.827  11.491 -0.3582 -0.2696  0.4477
 7188TIP3    H145759   4.819   0.842  11.565 -0.5863  1.3804 -0.0204
 7188TIP3    H245760   4.819   0.807  11.418 -0.2664  0.0047  0.2957
 7189TIP3   OH245761   2.970   4.471  10.541 -0.2126 -0.1434 -0.3637
 7189TIP3    H145762   2.923   4.390  10.521  0.5787 -0.3469 -1.4925
 7189TIP3    H245763   3.025   4.449  10.617 -0.0817 -0.6388 -0.5978
 7190TIP3   OH245764   5.160   0.064  12.965 -0.3617 -0.0645  0.4359
 7190TIP3    H145765   5.231   0.057  12.901  0.6261 -2.4663  1.6582
 7190TIP3    H245766   5.199   0.111  13.039 -0.5429  0.0335  0.4679
 7191TIP3   OH245767   0.156   5.706  10.876  0.6343 -0.7917 -0.2311
 7191TIP3    H145768   0.129   5.615  10.862  2.0680 -1.2555 -0.2299
 7191TIP3    H245769   0.089   5.742  10.933  0.2258 -1.9759  0.0821
 7192TIP3   OH245770   1.538   3.202  11.187  0.1492  0.3499 -0.0663
 7192TIP3    H145771   1.454   3.166  11.215  0.3158  0.7616  1.0590
 7192TIP3    H245772   1.564   3.149  11.112 -0.7322 -0.3067  0.0773
 7193TIP3   OH245773   5.567   7.301  12.007  0.2917 -0.5861  0.3279
 7193TIP3    H145774   5.595   7.363  11.939  1.3369 -2.0379 -0.6124
 7193TIP3    H245775   5.605   7.336  12.088 -0.5715  0.9063  0.1348
 7194TIP3   OH245776   7.639   7.096  11.526 -0.0861 -0.0036 -0.1379
 7194TIP3    H145777   7.715   7.136  11.567 -1.9369  2.6870  0.9646
 7194TIP3    H245778   7.605   7.036  11.591 -2.0050  2.9642  1.8404
 7195TIP3   OH245779   0.345   4.769  10.373  0.0584  0.0298 -0.2756
 7195TIP3    H145780   0.368   4.692  10.322  0.4254  1.0498 -1.6962
 7195TIP3    H245781   0.250   4.766  10.381 -0.0123 -0.0752 -1.1274
 7196TIP3   OH245782   3.580   6.817  11.049 -0.1636  1.1806  0.0400
 7196TIP3    H145783   3.502   6.830  10.995  0.8527  0.1631 -1.8115
 7196TIP3    H245784   3.558   6.743  11.105  0.4072 -1.2624 -2.6878
 7197TIP3   OH245785   4.032   3.594  10.560  0.1125  0.0499  0.0237
 7197TIP3    H145786   4.036   3.688  10.577 -0.7578  0.1607 -0.3688
 7197TIP3    H245787   3.955   3.582  10.505 -0.6961 -1.0731  1.3218
 7198TIP3   OH245788   4.189   0.265  11.611 -0.5041 -0.3911  0.5422
 7198TIP3    H145789   4.137   0.226  11.681  0.3309 -0.6918  1.0069
 7198TIP3    H245790   4.205   0.192  11.551  0.1563 -0.5235  0.8710
 7199TIP3   OH245791   1.604   0.226  11.989 -0.0582 -0.7966 -0.4395
 7199TIP3    H145792   1.697   0.241  11.969 -0.4416 -0.4935 -2.1136
 7199TIP3    H245793   1.603   0.143  12.038  1.2112 -0.0817  0.8816
 7200TIP3   OH245794   7.007   1.746  12.961  0.8168  0.2357  0.0975
 7200TIP3    H145795   6.934   1.701  13.003  2.0772 -0.0693  2.0893
 7200TIP3    H245796   6.999   1.724  12.868 -1.7765  0.4870  0.1902
 7201TIP3   OH245797   0.553   3.646  10.249  0.0202 -0.1269  0.1227
 7201TIP3    H145798   0.460   3.663  10.262 -0.2118  1.3961 -2.6827
 7201TIP3    H245799   0.560   3.551  10.249 -1.2161 -0.2657  1.9352
 7202TIP3   OH245800   1.478   2.354  11.670  0.2037  0.1401 -0.3701
 7202TIP3    H145801   1.562   2.381  11.633  0.4340 -0.6768 -0.4589
 7202TIP3    H245802   1.500   2.295  11.742 -0.2607  1.3334  0.7921
 7203TIP3   OH245803   0.649   4.250  10.627 -0.0691  0.2761  0.5774
 7203TIP3    H145804   0.702   4.176  10.596  0.7792  0.9675  0.3561
 7203TIP3    H245805   0.679   4.265  10.717  0.9101  1.3667  0.0883
 7204TIP3   OH245806   4.997   5.545  12.259  0.1266 -0.7509  0.5021
 7204TIP3    H145807   4.977   5.639  12.265  1.4809 -0.4705  1.1387
 7204TIP3    H245808   4.979   5.523  12.167  3.1629  1.0432 -0.7137
 7205TIP3   OH245809   0.690   3.323  10.488  0.0672  0.1004 -0.0065
 7205TIP3    H145810   0.599   3.325  10.456 -1.0040  1.4317  2.7464
 7205TIP3    H245811   0.722   3.236  10.466 -1.3844  0.0480 -2.2339
 7206TIP3   OH245812   6.080   1.128  12.934  0.4181 -0.2239  0.2034
 7206TIP3    H145813   6.107   1.180  12.858 -0.6567 -2.2979 -1.7171
 7206TIP3    H245814   6.123   1.043  12.921  0.5553 -0.5125  2.1897
 7207TIP3   OH245815   6.685   4.310  10.524 -0.0757  0.2282 -0.5513
 7207TIP3    H145816   6.762   4.362  10.503  2.2442 -1.7757  2.1680
 7207TIP3    H245817   6.632   4.366  10.581  2.0944 -0.0046  1.8749
 7208TIP3   OH245818   5.827   5.510  12.000 -0.4274 -0.3312 -0.0853
 7208TIP3    H145819   5.806   5.505  12.093 -0.7134  0.6777 -0.0886
 7208TIP3    H245820   5.750   5.551  11.960 -0.5277 -1.2276 -0.8489
 7209TIP3   OH245821   5.414   3.295  10.615  0.4402  0.1575 -0.2131
 7209TIP3    H145822   5.498   3.298  10.660 -0.0958 -0.4711  0.8505
 7209TIP3    H245823   5.389   3.387  10.606  1.1713  0.3442 -0.4194
 7210TIP3   OH245824   5.743   6.815  11.231  0.4977 -0.0632 -0.0426
 7210TIP3    H145825   5.776   6.844  11.316  0.6908 -0.7187  0.1098
 7210TIP3    H245826   5.820   6.782  11.185  0.3490  0.0468 -0.3736
 7211TIP3   OH245827   3.503   3.564  12.006  0.1394 -0.6574 -0.1635
 7211TIP3    H145828   3.451   3.643  11.994 -0.9514 -1.2606  0.4400
 7211TIP3    H245829   3.528   3.538  11.917 -1.6959 -1.0611 -0.6148
 7212TIP3   OH245830   1.772   4.175  12.507 -0.3920 -0.5075 -0.2751
 7212TIP3    H145831   1.864   4.153  12.522 -0.4523 -1.2018 -0.8748
 7212TIP3    H245832   1.742   4.211  12.591  1.0551  2.1067 -0.7729
 7213TIP3   OH245833   6.002   4.451  12.759 -0.3564 -0.3176 -0.2037
 7213TIP3    H145834   6.090   4.439  12.796  0.1643  2.4897 -0.3243
 7213TIP3    H245835   5.951   4.487  12.831 -0.6857  0.4783 -0.8198
 7214TIP3   OH245836   2.085   7.174  11.697  0.4411 -0.4742  0.1195
 7214TIP3    H145837   2.096   7.090  11.654  1.5950 -0.5816  0.5894
 7214TIP3    H245838   2.004   7.209  11.660  0.3480 -1.4422 -0.6461
 7215TIP3   OH245839   4.190   3.143  10.464  0.2599  0.2761  0.3008
 7215TIP3    H145840   4.283   3.123  10.466  0.3103  0.5206  1.3772
 7215TIP3    H245841   4.150   3.068  10.420  0.9637  0.2155 -0.2547
 7216TIP3   OH245842   4.376   4.346  11.076  0.7547 -0.0390 -0.0202
 7216TIP3    H145843   4.366   4.412  11.145 -1.1782  0.3212 -0.5931
 7216TIP3    H245844   4.301   4.360  11.018  0.7745 -2.1758 -0.6437
 7217TIP3   OH245845   3.008   3.703  12.175  0.2224 -0.0810  0.3651
 7217TIP3    H145846   2.922   3.743  12.162  0.5185  0.6137  0.5219
 7217TIP3    H245847   2.989   3.614  12.204 -0.4456 -0.2239 -0.4596
 7218TIP3   OH245848   2.025   1.892  11.576 -0.1443  0.0616  0.1236
 7218TIP3    H145849   1.972   1.893  11.656 -0.1550 -0.4922  0.1277
 7218TIP3    H245850   1.981   1.954  11.518  0.7407  1.6589  1.0881
 7219TIP3   OH245851   3.908   2.528  10.593  0.2227  0.1570  0.1911
 7219TIP3    H145852   3.918   2.555  10.685  0.3224  1.4767 -0.1885
 7219TIP3    H245853   3.997   2.517  10.561  0.2782  1.8167 -0.3222
 7220TIP3   OH245854   7.379   4.189  11.231  0.5390  0.4307  0.0816
 7220TIP3    H145855   7.378   4.201  11.326 -0.6133  1.8721 -0.0638
 7220TIP3    H245856   7.287   4.195  11.205  0.7528 -0.7259 -1.0525
 7221TIP3   OH245857   5.693   2.760  11.582 -0.4624 -0.6150 -0.5088
 7221TIP3    H145858   5.756   2.831  11.572 -0.8363  0.1702  2.1469
 7221TIP3    H245859   5.623   2.782  11.521  0.0392  0.5681 -0.6803
 7222TIP3   OH245860   6.340   2.065  12.266  0.4551  0.2563 -0.0834
 7222TIP3    H145861   6.381   2.074  12.352  1.4545 -0.3251 -0.4834
 7222TIP3    H245862   6.370   1.979  12.235 -0.2271  0.2868 -0.8392
 7223TIP3   OH245863   6.952   6.879  12.947 -0.5612 -0.4234  0.3089
 7223TIP3    H145864   6.932   6.959  12.997  1.8460  0.4671  0.0157
 7223TIP3    H245865   7.046   6.865  12.962 -0.0940 -1.0499 -2.6386
 7224TIP3   OH245866   6.178   1.237  12.344 -0.1240 -0.1341 -0.1281
 7224TIP3    H145867   6.152   1.307  12.284  1.0352  0.8477  0.4545
 7224TIP3    H245868   6.268   1.260  12.369  0.6065 -2.3166 -0.5822
 7225TIP3   OH245869   1.673   2.956  10.619  0.5094  0.3003  0.0282
 7225TIP3    H145870   1.636   2.891  10.678  1.4361 -0.3707 -0.1098
 7225TIP3    H245871   1.597   2.998  10.578 -0.0981 -0.4941  0.3344
 7226TIP3   OH245872   6.091   5.995  10.655  0.4768 -0.7412 -0.6268
 7226TIP3    H145873   6.109   6.053  10.582  0.0268 -0.5413 -0.5822
 7226TIP3    H245874   6.001   5.966  10.641  0.1790 -0.2227  0.1668
 7227TIP3   OH245875   6.522   2.396  12.233  0.3230 -0.5689  0.2261
 7227TIP3    H145876   6.460   2.346  12.180  0.7523 -0.9401  0.0670
 7227TIP3    H245877   6.607   2.358  12.212  0.6167 -0.0052  0.3736
 7228TIP3   OH245878   4.786   6.767  12.106  0.5967 -0.1329 -0.0884
 7228TIP3    H145879   4.717   6.802  12.050  0.8297 -0.3732 -0.5427
 7228TIP3    H245880   4.749   6.765  12.194  1.0296  2.5157  0.2097
 7229TIP3   OH245881   4.420   6.090  13.024 -0.0563 -0.3891  0.2467
 7229TIP3    H145882   4.329   6.060  13.016 -0.2691  0.1082  0.7034
 7229TIP3    H245883   4.412   6.180  13.055  0.5937 -0.3002  0.1564
 7230TIP3   OH245884   5.581   5.811  12.213 -0.0321 -0.4694 -0.1705
 7230TIP3    H145885   5.577   5.877  12.282 -2.4707  0.5560 -1.1890
 7230TIP3    H245886   5.593   5.728  12.260  0.1147  0.3801  1.3529
 7231TIP3   OH245887   7.110   2.366  11.145 -0.4415 -0.2201 -0.0812
 7231TIP3    H145888   7.183   2.403  11.096  0.1371  0.2641  1.0983
 7231TIP3    H245889   7.061   2.442  11.177 -0.1664 -0.4818  1.0086
 7232TIP3   OH245890   2.238   0.932  11.380  0.0829 -0.1761 -0.2085
 7232TIP3    H145891   2.295   0.954  11.454 -2.5961 -1.1633  2.3365
 7232TIP3    H245892   2.189   1.012  11.362 -1.3235 -0.6808  1.1438
 7233TIP3   OH245893   6.844   6.211  11.756 -0.1134 -0.1206 -0.5089
 7233TIP3    H145894   6.851   6.266  11.678 -0.4787  0.8986  0.1518
 7233TIP3    H245895   6.758   6.231  11.792  0.9861  1.3614  1.5324
 7234TIP3   OH245896   3.344   2.797  10.571  0.1460 -0.5385  0.5440
 7234TIP3    H145897   3.335   2.873  10.514  0.8595 -0.8017  0.0733
 7234TIP3    H245898   3.254   2.769  10.587 -0.0939  0.0007  0.1754
 7235TIP3   OH245899   5.478   5.811  12.612  0.1697  0.2290 -0.0955
 7235TIP3    H145900   5.402   5.867  12.599  0.1220  0.0181 -0.7717
 7235TIP3    H245901   5.443   5.731  12.651  0.2140  0.5904  0.6994
 7236TIP3   OH245902   0.822   2.636  10.448  0.3018  0.2202 -0.4629
 7236TIP3    H145903   0.851   2.708  10.392  1.1541 -0.8347 -1.4502
 7236TIP3    H245904   0.854   2.658  10.535 -0.5404  1.6280 -0.4913
 7237TIP3   OH245905   2.151   5.563  11.516  0.2426 -0.1130 -0.0731
 7237TIP3    H145906   2.238   5.565  11.555  0.1315  2.4679  0.1731
 7237TIP3    H245907   2.097   5.515  11.579  1.4489 -1.8265 -0.2762
 7238TIP3   OH245908   7.346   2.010  11.369  0.0125  0.3475 -0.4647
 7238TIP3    H145909   7.271   2.069  11.365 -0.0072  0.2860 -1.1204
 7238TIP3    H245910   7.350   1.970  11.282  1.3533  1.0579 -0.7657
 7239TIP3   OH245911   2.885   5.917  10.540  0.4358  0.0427 -0.0742
 7239TIP3    H145912   2.883   5.846  10.477 -1.4845  0.8720 -1.0526
 7239TIP3    H245913   2.950   5.978  10.505 -0.7118  0.5649 -1.4044
 7240TIP3   OH245914   2.880   5.820  11.992 -0.3514 -0.4770 -0.4372
 7240TIP3    H145915   2.931   5.842  12.070  0.3697 -2.2173 -0.3608
 7240TIP3    H245916   2.901   5.890  11.930  0.0489  0.2643  0.5018
 7241TIP3   OH245917   3.089   6.079  12.953  0.1081  0.1138  0.3830
 7241TIP3    H145918   3.085   6.143  13.024 -0.4100 -0.8936  1.2839
 7241TIP3    H245919   3.178   6.043  12.958 -0.0076 -0.1341  0.6894
 7242TIP3   OH245920   2.823   3.654  10.903 -0.0199 -0.0811 -0.0111
 7242TIP3    H145921   2.773   3.735  10.897  0.3673  0.3478  1.9073
 7242TIP3    H245922   2.787   3.609  10.980 -0.4146 -1.8821 -1.1806
 7243TIP3   OH245923   6.432   4.046  11.404 -0.1414 -0.3304  0.2948
 7243TIP3    H145924   6.414   4.008  11.318  0.0362  0.0879  0.0688
 7243TIP3    H245925   6.363   4.111  11.416  1.1354  1.2714 -0.5707
 7244TIP3   OH245926   7.162   3.388  11.850 -0.1795 -0.2589 -0.2194
 7244TIP3    H145927   7.166   3.310  11.905  0.0955  1.2580  2.0623
 7244TIP3    H245928   7.226   3.448  11.889  0.0516  0.9094 -2.2455
 7245TIP3   OH245929   2.644   3.228  12.370  0.3689  0.4380 -0.6012
 7245TIP3    H145930   2.581   3.156  12.372 -0.8164  1.4403  0.3589
 7245TIP3    H245931   2.728   3.187  12.388 -0.0214 -0.9160 -1.6975
 7246TIP3   OH245932   5.323   3.557  10.645  0.0865 -0.6273 -0.1396
 7246TIP3    H145933   5.374   3.631  10.611 -0.1042  0.3121  1.4697
 7246TIP3    H245934   5.235   3.571  10.611  0.1045 -0.2351 -0.0309
 7247TIP3   OH245935   0.647   3.661  11.858  0.2645  0.0928  0.3875
 7247TIP3    H145936   0.669   3.753  11.842 -1.8841  0.4532 -0.9455
 7247TIP3    H245937   0.578   3.642  11.795 -0.0401 -2.1705  1.3119
 7248TIP3   OH245938   2.082   5.013  11.205  0.5349 -0.5455 -0.0893
 7248TIP3    H145939   2.070   5.108  11.201 -1.9741 -0.8371 -0.9699
 7248TIP3    H245940   2.123   4.990  11.122  2.4401 -0.1530  0.6765
 7249TIP3   OH245941   2.923   3.018  13.030  0.3287  0.5160  0.0189
 7249TIP3    H145942   2.895   3.107  13.010 -0.4172  0.5511  1.1257
 7249TIP3    H245943   3.007   3.029  13.074  0.6998  0.5986 -0.6912
 7250TIP3   OH245944   4.307   5.636  12.568 -0.6474  0.6436 -0.0507
 7250TIP3    H145945   4.366   5.651  12.494 -1.6027 -1.4750 -1.3228
 7250TIP3    H245946   4.241   5.705  12.560  0.0648  1.3255 -0.2657
 7251TIP3   OH245947   2.231   6.177  10.962  0.0706 -0.3727 -0.0196
 7251TIP3    H145948   2.237   6.086  10.991  0.4069 -0.6920 -1.0354
 7251TIP3    H245949   2.274   6.178  10.876 -0.9017  0.5191 -0.5200
 7252TIP3   OH245950   0.256   5.167  12.251  0.0959  0.0256  0.0926
 7252TIP3    H145951   0.301   5.167  12.335  0.1094  0.0697  0.0851
 7252TIP3    H245952   0.324   5.184  12.186 -0.1284  1.3254  0.1789
 7253TIP3   OH245953   1.804   5.878  11.444 -0.1602  1.0585 -0.3622
 7253TIP3    H145954   1.884   5.901  11.397 -1.7611  3.3811 -2.1744
 7253TIP3    H245955   1.781   5.791  11.411  2.3428 -0.4432  1.4134
 7254TIP3   OH245956   5.084   1.295  12.076 -0.2862  0.1926 -0.3785
 7254TIP3    H145957   5.125   1.311  12.160 -2.0228  1.5213  0.2877
 7254TIP3    H245958   5.105   1.372  12.023 -0.2837 -0.0268 -0.7036
 7255TIP3   OH245959   6.612   4.743  10.568 -0.2004  0.0459 -0.2671
 7255TIP3    H145960   6.681   4.728  10.503 -0.6269  2.7857 -1.4546
 7255TIP3    H245961   6.609   4.838  10.579 -2.3413 -0.1369  1.3806
 7256TIP3   OH245962   1.843   6.317  11.303  0.1620  0.1590 -0.0942
 7256TIP3    H145963   1.882   6.387  11.250  0.0541  0.4793  0.2512
 7256TIP3    H245964   1.858   6.343  11.393  0.7735 -0.6321  0.0445
 7257TIP3   OH245965   0.407   3.012  12.356  0.0168  0.6738  0.1615
 7257TIP3    H145966   0.380   3.077  12.292 -2.4392 -0.7705 -0.3827
 7257TIP3    H245967   0.361   3.036  12.437  0.6697  0.7331  0.5242
 7258TIP3   OH245968   4.081   0.429  10.760 -0.2245 -0.6931 -0.3386
 7258TIP3    H145969   3.987   0.423  10.740 -0.1783  2.2627 -2.0081
 7258TIP3    H245970   4.088   0.503  10.820  1.0692 -0.4892 -0.7060
 7259TIP3   OH245971   3.998   4.545  12.132  0.0391 -0.0074  0.2876
 7259TIP3    H145972   3.934   4.563  12.201  0.7453  0.5616  0.8113
 7259TIP3    H245973   3.991   4.451  12.116 -0.2308 -0.1280  1.0498
 7260TIP3   OH245974   6.130   5.093  11.734  0.5742 -0.0083 -0.4976
 7260TIP3    H145975   6.051   5.106  11.682  0.3326 -0.0495 -0.1454
 7260TIP3    H245976   6.124   5.160  11.803 -0.2040 -1.3407  0.7820
 7261TIP3   OH245977   0.018   3.037  11.727  0.1148 -0.0496 -0.3089
 7261TIP3    H145978   0.036   3.131  11.723 -0.6903  0.1216 -0.1638
 7261TIP3    H245979  -0.045   3.028  11.799 -1.2518 -0.4464 -1.5138
 7262TIP3   OH245980   3.544   0.169  11.344 -0.2033  0.1260  0.0751
 7262TIP3    H145981   3.530   0.231  11.272 -1.8635 -0.0415  0.2182
 7262TIP3    H245982   3.572   0.223  11.418 -1.8418  0.7697  0.2622
 7263TIP3   OH245983   2.820   3.829  12.770  0.4238 -0.2640  1.1366
 7263TIP3    H145984   2.900   3.869  12.805  1.2205 -1.9970  1.4219
 7263TIP3    H245985   2.832   3.735  12.786 -1.2593 -0.6501  0.3147
 7264TIP3   OH245986   2.394   4.329  13.148  0.3621 -0.4673  0.0337
 7264TIP3    H145987   2.483   4.355  13.128  0.7052 -0.7474  1.1734
 7264TIP3    H245988   2.339   4.394  13.103  1.1301 -0.0442 -0.3066
 7265TIP3   OH245989   6.780   5.497  18.922 -0.0119  0.1557  0.1097
 7265TIP3    H145990   6.690   5.478  18.948 -1.0270  0.8139 -2.6109
 7265TIP3    H245991   6.812   5.416  18.883 -0.2819  0.6109 -1.0742
 7266TIP3   OH245992   0.958   3.731  11.000  0.3265  0.0321  0.1893
 7266TIP3    H145993   1.031   3.781  11.035 -1.6454  1.6909  2.1752
 7266TIP3    H245994   0.882   3.788  11.008 -1.2556 -1.5870 -1.8372
 7267TIP3   OH245995   1.016   2.138  11.949 -0.1612 -0.0439  0.2922
 7267TIP3    H145996   0.943   2.183  11.992  0.8078  1.6677  0.2505
 7267TIP3    H245997   0.994   2.142  11.856  0.6898  1.9519  0.1191
 7268TIP3   OH245998   1.965   0.920  10.134 -0.1654  0.0720  0.4258
 7268TIP3    H145999   2.038   0.881  10.086 -1.8383 -1.3584 -1.1006
 7268TIP3    H246000   1.966   0.876  10.219 -0.6680 -1.6951 -0.4600
 7269TIP3   OH246001   0.594   5.707  12.163 -0.4216 -0.3312 -0.0356
 7269TIP3    H146002   0.689   5.702  12.166 -0.5036 -1.6643  1.2464
 7269TIP3    H246003   0.567   5.639  12.102 -0.5627  0.0128 -0.3620
 7270TIP3   OH246004   4.351   4.998  11.581 -0.2463  0.6168  0.2542
 7270TIP3    H146005   4.378   5.064  11.517 -1.3929  0.0662 -0.8525
 7270TIP3    H246006   4.288   5.043  11.638 -0.8359  0.5636 -0.3427
 7271TIP3   OH246007   2.366   0.725  10.182 -0.1227 -0.0911  0.6094
 7271TIP3    H146008   2.307   0.675  10.239 -0.7107 -0.5378 -0.3662
 7271TIP3    H246009   2.341   0.700  10.093 -1.6333  3.1940 -0.0552
 7272TIP3   OH246010   1.303   7.472  12.720 -0.0262 -0.0638 -0.4372
 7272TIP3    H146011   1.222   7.472  12.771 -0.2379 -1.3387 -0.7412
 7272TIP3    H246012   1.328   7.380  12.714 -0.1308 -0.0143 -2.7838
 7273TIP3   OH246013   1.281   3.205  11.989  0.8941 -0.4187 -0.1481
 7273TIP3    H146014   1.368   3.204  11.950  1.3389  1.2203  0.7007
 7273TIP3    H246015   1.280   3.128  12.046  2.0652 -0.1032  0.3439
 7274TIP3   OH246016   0.142   3.147  13.053  0.2683 -0.1911 -0.5989
 7274TIP3    H146017   0.172   3.058  13.035 -1.5107 -0.9843  0.0964
 7274TIP3    H246018   0.156   3.159  13.146  0.7558  0.3626 -0.7436
 7275TIP3   OH246019   4.400   6.112  11.038  0.2600  0.1009  0.4480
 7275TIP3    H146020   4.333   6.176  11.059  0.3115  0.1044  0.6028
 7275TIP3    H246021   4.386   6.041  11.100 -2.1341 -1.7680 -1.9844
 7276TIP3   OH246022   0.374   6.399  11.121 -0.5138 -0.6297  0.0773
 7276TIP3    H146023   0.364   6.390  11.216 -0.7889  0.0531  0.1226
 7276TIP3    H246024   0.286   6.422  11.090 -0.0026  1.3752 -0.0469
 7277TIP3   OH246025   3.843   1.283  11.257  0.4192 -0.1110  0.3263
 7277TIP3    H146026   3.872   1.237  11.336  1.5872  1.7817  1.0819
 7277TIP3    H246027   3.782   1.223  11.215  1.7992 -2.3004  1.2562
 7278TIP3   OH246028   3.092   4.910  11.804  1.0573  0.2845  0.4103
 7278TIP3    H146029   3.154   4.844  11.775  0.0783 -0.5226  0.1097
 7278TIP3    H246030   3.021   4.906  11.740 -0.5001 -0.5803  2.1063
 7279TIP3   OH246031   4.887   4.887  11.479  0.7214  0.2096 -0.3212
 7279TIP3    H146032   4.836   4.818  11.521 -1.4862  1.7183 -0.3569
 7279TIP3    H246033   4.952   4.840  11.426 -0.4048 -1.8227  0.0060
 7280TIP3   OH246034   6.744   2.224  10.434 -0.3189 -0.0352 -0.2223
 7280TIP3    H146035   6.651   2.218  10.413 -0.5330 -1.2084  0.9374
 7280TIP3    H246036   6.781   2.141  10.403  0.1262 -0.0402  0.3109
 7281TIP3   OH246037   2.171   3.181  11.787  0.2718 -0.8287  0.6157
 7281TIP3    H146038   2.162   3.102  11.734 -0.8522 -0.2742 -0.0508
 7281TIP3    H246039   2.159   3.151  11.877 -0.8391 -1.3213  0.3191
 7282TIP3   OH246040   0.405   4.882  12.946  0.1996  0.0766 -0.3491
 7282TIP3    H146041   0.486   4.852  12.986 -0.7539 -1.8489  0.2292
 7282TIP3    H246042   0.359   4.802  12.920 -1.3231  1.1319 -1.0624
 7283TIP3   OH246043   0.578   1.480  12.138  0.0020  0.2566 -0.0917
 7283TIP3    H146044   0.624   1.401  12.109 -0.1998  0.4534 -0.9630
 7283TIP3    H246045   0.512   1.495  12.071 -0.1259  1.0277  0.2015
 7284TIP3   OH246046   0.035   4.130  11.285  0.0651 -0.8109 -0.5727
 7284TIP3    H146047   0.128   4.136  11.265 -0.1347 -0.3121 -1.3647
 7284TIP3    H246048  -0.009   4.139  11.201 -0.6747 -2.1050 -0.3498
 7285TIP3   OH246049   3.215   0.832  11.957 -0.1391  0.1668  0.1608
 7285TIP3    H146050   3.179   0.854  12.043  0.1579  1.3959 -0.0107
 7285TIP3    H246051   3.245   0.915  11.922  2.5784 -0.7352  0.1364
 7286TIP3   OH246052   4.498   3.371  10.456  0.2672 -0.1584  0.1737
 7286TIP3    H146053   4.471   3.313  10.527  0.5303 -1.5733 -0.8396
 7286TIP3    H246054   4.422   3.376  10.399  0.7219 -0.7252 -0.5027
 7287TIP3   OH246055   2.486   5.268  12.272  0.4059 -0.1558 -0.2263
 7287TIP3    H146056   2.565   5.323  12.265  0.4117 -0.2212 -0.7148
 7287TIP3    H246057   2.496   5.203  12.203 -0.4605  0.3282 -0.8302
 7288TIP3   OH246058   3.867   2.417  13.349 -0.2404  0.0851  0.3465
 7288TIP3    H146059   3.834   2.395  13.262  0.6219  1.8073 -0.4633
 7288TIP3    H246060   3.962   2.422  13.339  0.0085 -1.1190  1.7613
 7289TIP3   OH246061   2.068   0.269  10.635  0.1679  0.6649 -0.0855
 7289TIP3    H146062   2.132   0.218  10.685 -0.2251  0.7030  0.4742
 7289TIP3    H246063   2.082   0.359  10.665 -0.2697  0.6470  0.1862
 7290TIP3   OH246064   7.400   7.679  12.368  0.1869 -0.6376 -0.0016
 7290TIP3    H146065   7.394   7.750  12.305  1.0634  0.3929  1.0378
 7290TIP3    H246066   7.335   7.701  12.435  0.7081 -0.6078  0.5046
 7291TIP3   OH246067   6.786   2.147  10.698  0.2407  0.5046 -0.2158
 7291TIP3    H146068   6.823   2.219  10.749 -0.4223  2.5904 -2.4991
 7291TIP3    H246069   6.793   2.175  10.607 -1.5312 -1.6269 -1.1195
 7292TIP3   OH246070   2.303   2.135  11.640 -0.2513 -0.1532  0.1502
 7292TIP3    H146071   2.224   2.187  11.625 -0.2668 -0.4377 -0.7950
 7292TIP3    H246072   2.368   2.198  11.671  0.3048  0.8447 -2.7730
 7293TIP3   OH246073   0.481   7.498  12.558  0.4752  0.1812 -0.3215
 7293TIP3    H146074   0.558   7.470  12.607  0.5881  1.2468  0.1424
 7293TIP3    H246075   0.515   7.529  12.474  0.3076 -1.4067 -1.0058
 7294TIP3   OH246076   0.410   4.057  10.657  0.9219 -0.3141  0.1625
 7294TIP3    H146077   0.484   4.117  10.664  0.6782 -0.1046  1.0094
 7294TIP3    H246078   0.442   3.974  10.692  1.4452 -0.8819 -1.5528
 7295TIP3   OH246079   0.669   5.245  11.423  0.6353  0.1926  0.0964
 7295TIP3    H146080   0.682   5.338  11.402  0.2605  0.6007  1.5376
 7295TIP3    H246081   0.754   5.205  11.405  0.5724  0.6442 -1.3246
 7296TIP3   OH246082   1.670   1.124  10.453 -0.0292 -0.2146  0.4418
 7296TIP3    H146083   1.691   1.123  10.359  1.1003  1.3238  0.6331
 7296TIP3    H246084   1.579   1.095  10.458 -0.9570  2.0362 -1.3975
 7297TIP3   OH246085   5.328   6.072  11.175  0.1002 -0.4354 -0.1194
 7297TIP3    H146086   5.388   6.132  11.132 -0.8407  1.1934  0.7316
 7297TIP3    H246087   5.305   6.008  11.107 -0.4931  1.3948 -1.7219
 7298TIP3   OH246088   3.863   6.533  10.446 -0.3835  0.2285 -0.4208
 7298TIP3    H146089   3.832   6.463  10.503  2.0034 -0.6100 -0.0496
 7298TIP3    H246090   3.922   6.585  10.501 -0.5041  1.2843 -1.2647
 7299TIP3   OH246091   3.082   5.216  11.308  0.1319 -0.5715  0.6240
 7299TIP3    H146092   3.114   5.243  11.222 -0.4110  0.2338  0.6681
 7299TIP3    H246093   3.142   5.147  11.335  0.1852 -0.9882 -0.4929
 7300TIP3   OH246094   6.465   3.257  12.303  0.0392 -0.1775  0.0308
 7300TIP3    H146095   6.383   3.302  12.280  1.7883  1.9870 -2.6324
 7300TIP3    H246096   6.464   3.178  12.250 -1.3766 -1.5352  1.9458
 7301TIP3   OH246097   6.850   4.138  11.623  0.0838  0.3427 -0.0713
 7301TIP3    H146098   6.837   4.232  11.614  0.6550  0.5524  1.0906
 7301TIP3    H246099   6.789   4.099  11.560  0.4817  1.5029 -1.2163
 7302TIP3   OH246100   5.963   2.522  11.947 -0.2438 -0.2948  0.0410
 7302TIP3    H146101   6.057   2.508  11.959 -0.1059  1.2479  1.0710
 7302TIP3    H246102   5.948   2.504  11.854  0.5127 -3.2429  0.4060
 7303TIP3   OH246103   0.043   4.618  10.771 -0.6022 -0.1223 -0.6541
 7303TIP3    H146104   0.060   4.673  10.694 -0.7922 -0.1785 -0.7391
 7303TIP3    H246105   0.023   4.680  10.841 -1.3129 -0.0922 -0.8741
 7304TIP3   OH246106   3.443   7.508  11.194 -0.3953 -0.0274 -0.0128
 7304TIP3    H146107   3.382   7.461  11.137 -0.5748  0.6473 -0.3881
 7304TIP3    H246108   3.420   7.480  11.282  0.4093 -1.7182 -0.2850
 7305TIP3   OH246109   5.007   5.365  13.008 -0.3622 -0.3176 -0.0633
 7305TIP3    H146110   4.959   5.363  13.091 -0.9777 -0.6921 -0.4251
 7305TIP3    H246111   4.962   5.433  12.957 -1.9082 -2.1285 -1.2217
 7306TIP3   OH246112   1.834   5.457  11.257  0.7102  0.0104 -0.0810
 7306TIP3    H146113   1.760   5.445  11.198  0.7859  1.1987 -0.4274
 7306TIP3    H246114   1.800   5.431  11.343 -0.1927  0.7882 -0.1914
 7307TIP3   OH246115   5.474   6.191  11.631 -0.2084  0.0042 -0.1524
 7307TIP3    H146116   5.464   6.146  11.547  2.2708 -1.1025  0.0499
 7307TIP3    H246117   5.429   6.135  11.694  1.0536 -1.1787 -0.2368
 7308TIP3   OH246118   1.005   3.638  10.743 -0.5494  0.3926 -0.2353
 7308TIP3    H146119   1.093   3.603  10.759 -0.0805  1.3553 -0.6618
 7308TIP3    H246120   0.987   3.693  10.819 -0.7499  0.2711 -0.1935
 7309TIP3   OH246121   5.489   5.536  12.077  0.2320  0.5442 -0.3630
 7309TIP3    H146122   5.558   5.521  12.141  1.2005 -0.5748 -1.6256
 7309TIP3    H246123   5.534   5.577  12.003 -0.7808  1.3638 -0.5473
 7310TIP3   OH246124   6.466   6.656  10.687  0.0103  0.8601  0.5159
 7310TIP3    H146125   6.380   6.686  10.716 -0.6668  0.1480 -0.6677
 7310TIP3    H246126   6.457   6.647  10.592  1.4453  0.9178  0.3540
 7311TIP3   OH246127   6.017   3.126  12.580  0.0524  0.2718  0.2817
 7311TIP3    H146128   5.939   3.160  12.536 -0.6668 -1.5487  0.0430
 7311TIP3    H246129   6.032   3.041  12.540  1.5445  0.1215  1.0756
 7312TIP3   OH246130   0.944   1.510  12.276 -0.0080  0.2459  0.3019
 7312TIP3    H146131   0.881   1.575  12.246 -2.5828 -1.5114  1.4635
 7312TIP3    H246132   0.909   1.427  12.244  3.2564 -0.6667 -1.3152
 7313TIP3   OH246133   5.128   2.498  11.768 -0.4023  0.1103 -0.4809
 7313TIP3    H146134   5.192   2.559  11.731 -0.6804  0.3574 -0.5548
 7313TIP3    H246135   5.161   2.480  11.857  1.1731 -1.7698 -1.3577
 7314TIP3   OH246136   5.108   2.550  11.033  0.6729 -0.3473  0.3340
 7314TIP3    H146137   5.177   2.492  11.002  2.6984  1.2409  1.6514
 7314TIP3    H246138   5.112   2.544  11.128  0.4779  1.4098  0.4826
 7315TIP3   OH246139   1.303   5.514  12.392  0.3612  0.1404  0.1277
 7315TIP3    H146140   1.374   5.553  12.339 -0.1810  0.0079 -0.7197
 7315TIP3    H246141   1.257   5.590  12.427  0.1141  0.2598 -0.4319
 7316TIP3   OH246142   2.419   4.107  12.226  0.6858 -0.1684  0.2831
 7316TIP3    H146143   2.337   4.149  12.199  0.6741 -1.5554 -2.0911
 7316TIP3    H246144   2.390   4.023  12.263  0.9823 -0.1134  0.6425
 7317TIP3   OH246145   2.617   4.379  12.668  0.0748 -0.2362  0.2457
 7317TIP3    H146146   2.590   4.347  12.582 -1.9388 -0.8200  1.0336
 7317TIP3    H246147   2.547   4.351  12.727  1.1866  0.5266  2.0095
 7318TIP3   OH246148   1.203   1.652  12.157  0.3528 -0.7761 -0.3433
 7318TIP3    H146149   1.158   1.591  12.217 -0.2972 -0.5995 -0.6371
 7318TIP3    H246150   1.292   1.619  12.152  1.2456  0.7574  2.8727
 7319TIP3   OH246151   5.603   0.836  10.839 -0.1755 -0.0266 -0.4321
 7319TIP3    H146152   5.524   0.781  10.841 -1.2639  1.4949  1.0194
 7319TIP3    H246153   5.664   0.793  10.898 -0.0680 -0.9434 -1.1767
 7320TIP3   OH246154   0.665   7.364  10.512  0.0307  0.4678 -0.0370
 7320TIP3    H146155   0.608   7.434  10.481 -0.5143  0.4152  0.8029
 7320TIP3    H246156   0.677   7.308  10.435 -2.1399 -0.2315  0.0383
 7321TIP3   OH246157   2.573   0.134  12.543 -0.3701  0.1446  0.1621
 7321TIP3    H146158   2.508   0.110  12.609 -2.1643 -1.2915 -2.0273
 7321TIP3    H246159   2.567   0.067  12.476  1.4144  1.5158 -1.5128
 7322TIP3   OH246160   3.865   0.190  11.554  0.1486  0.0922  0.0278
 7322TIP3    H146161   3.773   0.174  11.574  0.0056 -0.9884 -1.3653
 7322TIP3    H246162   3.890   0.118  11.496  1.5842  0.9542 -0.4666
 7323TIP3   OH246163   2.811   0.769  12.171 -0.9302 -0.5718  0.4336
 7323TIP3    H146164   2.812   0.790  12.078  0.1340  0.9040  0.7395
 7323TIP3    H246165   2.728   0.723  12.185 -1.2467 -0.5314 -1.1731
 7324TIP3   OH246166   5.659   4.831  12.535  0.5888  0.6602 -0.0951
 7324TIP3    H146167   5.652   4.917  12.576  2.5629  0.5471  0.5988
 7324TIP3    H246168   5.701   4.848  12.451 -0.8884  0.5650 -0.8889
 7325TIP3   OH246169   5.470   3.681  11.865  0.0967  0.6533 -0.5074
 7325TIP3    H146170   5.494   3.770  11.891 -0.1248  0.8445 -0.9523
 7325TIP3    H246171   5.378   3.686  11.841 -0.2534  0.0403  0.6123
 7326TIP3   OH246172   4.628   5.136  12.718  0.1104 -0.1836 -0.1339
 7326TIP3    H146173   4.581   5.116  12.799  0.8392 -0.2348  0.2845
 7326TIP3    H246174   4.587   5.217  12.686  0.4377  0.3605  0.7855
 7327TIP3   OH246175   5.335   6.066  11.820 -0.6907 -0.5781 -0.0624
 7327TIP3    H146176   5.243   6.059  11.846 -0.0295  0.9579  3.3608
 7327TIP3    H246177   5.379   5.995  11.866  0.1970  0.5644  0.9335
 7328TIP3   OH246178   1.602   7.132  10.892 -0.5025 -0.4297  0.3591
 7328TIP3    H146179   1.538   7.142  10.822  0.4583 -0.4778 -0.5423
 7328TIP3    H246180   1.551   7.146  10.972 -1.6730 -0.6586 -0.3162
 7329TIP3   OH246181   1.817   2.549  11.173 -0.1747 -0.8213  0.2478
 7329TIP3    H146182   1.797   2.610  11.102  0.1583  1.1185  1.7357
 7329TIP3    H246183   1.847   2.470  11.128 -1.0849 -0.1003 -1.7791
 7330TIP3   OH246184   1.707   2.507  10.786  0.8489 -0.2655  0.1545
 7330TIP3    H146185   1.746   2.552  10.711 -0.4825 -0.1631 -0.4986
 7330TIP3    H246186   1.615   2.532  10.784  0.8389 -0.0238  2.0063
 7331TIP3   OH246187   1.196   4.313  12.195  0.2333  0.2965 -0.3711
 7331TIP3    H146188   1.130   4.260  12.150 -0.2922  0.6443 -0.0180
 7331TIP3    H246189   1.270   4.314  12.134 -0.4746  0.7884 -1.2616
 7332TIP3   OH246190   0.666   0.865  11.567  0.2017  0.0266  0.2034
 7332TIP3    H146191   0.655   0.948  11.614  0.2290  0.6845 -0.8917
 7332TIP3    H246192   0.735   0.819  11.615 -0.2813  0.3378  1.2185
 7333TIP3   OH246193   7.337   6.213  11.864 -0.4413  0.2002 -0.0207
 7333TIP3    H146194   7.362   6.141  11.806  0.0420 -1.1638  1.8018
 7333TIP3    H246195   7.279   6.172  11.929  1.3816  0.9787  2.2223
 7334TIP3   OH246196   2.722   5.387  11.693 -0.5113 -0.5305  0.9958
 7334TIP3    H146197   2.630   5.363  11.685 -0.6842 -0.2715  1.9792
 7334TIP3    H246198   2.766   5.307  11.720 -0.5834 -0.4871  1.2536
 7335TIP3   OH246199   4.689   2.975  12.599  0.1885  0.2293  0.2832
 7335TIP3    H146200   4.654   2.919  12.669  1.3739 -3.6357 -1.9236
 7335TIP3    H246201   4.778   2.944  12.586  1.3153  3.4275 -0.5097
 7336TIP3   OH246202   1.466   4.354  11.358  0.0965 -0.0699 -0.0288
 7336TIP3    H146203   1.550   4.370  11.315 -0.9148  1.2117 -1.6378
 7336TIP3    H246204   1.457   4.259  11.357  1.6057 -0.2501  0.3794
 7337TIP3   OH246205   3.862   6.818  11.725  0.1913 -0.2580 -0.0169
 7337TIP3    H146206   3.932   6.794  11.785  2.0061  0.0417 -1.9110
 7337TIP3    H246207   3.782   6.809  11.777  1.5844 -0.8186  2.1603
 7338TIP3   OH246208   2.571   2.176  11.110  0.3423 -0.1021 -0.2167
 7338TIP3    H146209   2.611   2.236  11.048  2.3331 -2.5575 -1.5177
 7338TIP3    H246210   2.533   2.106  11.056  2.0850 -2.2978  1.2016
 7339TIP3   OH246211   7.353   3.408  12.381 -0.4463 -0.3357 -0.3418
 7339TIP3    H146212   7.302   3.487  12.396 -0.4103 -0.4336  0.3335
 7339TIP3    H246213   7.434   3.438  12.340 -0.7987 -0.1226 -0.8957
 7340TIP3   OH246214   5.891   4.232  11.292  0.1208 -0.4059 -0.3200
 7340TIP3    H146215   5.866   4.142  11.315  1.8338 -0.3824  2.0106
 7340TIP3    H246216   5.826   4.287  11.334 -0.5140 -0.5116 -1.1404
 7341TIP3   OH246217   5.583   3.834  12.228 -0.4157  0.0609 -0.0338
 7341TIP3    H146218   5.627   3.902  12.279 -0.5533 -0.0190  0.1911
 7341TIP3    H246219   5.528   3.788  12.292  0.0168 -0.5445 -0.0894
 7342TIP3   OH246220   6.941   5.604  12.854  0.6839 -0.1217 -0.1093
 7342TIP3    H146221   6.876   5.658  12.899  0.5602 -0.8078  0.5623
 7342TIP3    H246222   6.942   5.522  12.904  2.5458  0.1096  0.3017
 7343TIP3   OH246223   6.922   1.486  10.560 -0.0132 -0.3042 -0.7641
 7343TIP3    H146224   6.878   1.417  10.610  1.5537  0.2658  1.5493
 7343TIP3    H246225   7.008   1.450  10.540  0.0050  0.1535 -1.5611
 7344TIP3   OH246226   5.765   0.790  12.166  0.0661  0.6649 -0.0266
 7344TIP3    H146227   5.799   0.866  12.118  0.1327  0.4325 -0.3539
 7344TIP3    H246228   5.678   0.816  12.196  0.0449  0.8304 -0.2333
 7345TIP3   OH246229   1.783   7.462  12.232 -0.5196 -0.6474 -0.0469
 7345TIP3    H146230   1.823   7.498  12.312 -0.9531 -1.2136  0.4385
 7345TIP3    H246231   1.803   7.368  12.236  3.1403 -0.1731 -2.7591
 7346TIP3   OH246232   2.014   0.707  11.344 -0.5516  0.0092  0.1171
 7346TIP3    H146233   1.957   0.761  11.400  0.1468  1.2016 -0.2799
 7346TIP3    H246234   2.097   0.754  11.342  0.1962 -1.2701 -0.0054
 7347TIP3   OH246235   3.407   2.489  10.277  0.3075 -0.5982  1.0318
 7347TIP3    H146236   3.461   2.557  10.318  0.2026 -0.1265  0.3979
 7347TIP3    H246237   3.468   2.417  10.260  0.9118  0.2259 -0.3736
 7348TIP3   OH246238   4.519   0.138  10.786 -0.5870  0.7881  0.3221
 7348TIP3    H146239   4.506   0.096  10.701 -1.3809 -1.1202  1.3155
 7348TIP3    H246240   4.437   0.185  10.802 -0.2391  1.5947 -0.1532
 7349TIP3   OH246241   4.486   2.690  10.898  0.4043 -0.0668 -0.2403
 7349TIP3    H146242   4.510   2.657  10.812 -0.4107 -0.4060 -0.3477
 7349TIP3    H246243   4.434   2.768  10.881 -0.8306 -0.8404 -0.1085
 7350TIP3   OH246244   2.299   1.645  11.036  0.3579 -0.0159  0.6782
 7350TIP3    H146245   2.272   1.582  10.969  2.3418 -0.2260  0.0074
 7350TIP3    H246246   2.393   1.655  11.023  0.6170  0.7750  2.7546
 7351TIP3   OH246247   3.114   0.245  11.528 -0.1878  0.2152  0.4146
 7351TIP3    H146248   3.145   0.201  11.607  2.0924 -0.7091 -0.9114
 7351TIP3    H246249   3.120   0.338  11.549  0.7588 -0.0064  1.2185
 7352TIP3   OH246250   5.934   5.136  12.445  0.5772  0.4985 -0.2480
 7352TIP3    H146251   5.975   5.197  12.506  1.4179  0.9971 -1.2843
 7352TIP3    H246252   5.895   5.192  12.378  0.0064 -0.0569 -0.3895
 7353TIP3   OH246253   3.795   5.457  12.822 -0.3623  0.0750  0.6833
 7353TIP3    H146254   3.862   5.526  12.826  0.5944 -0.7880  0.1902
 7353TIP3    H246255   3.714   5.500  12.846  0.0437  1.6016 -0.5665
 7354TIP3   OH246256   1.179   1.331  11.983 -0.1226  0.2523  0.4450
 7354TIP3    H146257   1.259   1.307  11.935 -0.0264  2.4968 -0.6657
 7354TIP3    H246258   1.194   1.300  12.072  1.4229 -0.5363 -0.0540
 7355TIP3   OH246259   7.617   7.162  11.907 -0.0758  0.3255  0.1266
 7355TIP3    H146260   7.567   7.175  11.987  1.0310 -0.4635  0.9892
 7355TIP3    H246261   7.580   7.083  11.868 -2.3387  2.0761 -1.5799
 7356TIP3   OH246262   3.393   3.850  12.728 -0.2107 -0.1519  0.2661
 7356TIP3    H146263   3.415   3.812  12.813  0.3240 -0.1212  0.1476
 7356TIP3    H246264   3.477   3.853  12.681 -0.0134  2.0899  0.6428
 7357TIP3   OH246265   4.485   4.086  12.750 -0.3214  0.0048  0.1246
 7357TIP3    H146266   4.432   4.118  12.677 -2.0167 -0.5139  1.0741
 7357TIP3    H246267   4.437   4.010  12.782  2.2865 -2.0576 -0.4937
 7358TIP3   OH246268   6.935   7.134  11.604 -0.3459  0.7287  0.1772
 7358TIP3    H146269   6.972   7.193  11.539 -1.0537  0.2761 -0.6407
 7358TIP3    H246270   6.953   7.177  11.688  1.6907  0.7126 -0.1948
 7359TIP3   OH246271   0.069   3.732  12.343 -0.1030 -0.1954 -0.5713
 7359TIP3    H146272  -0.019   3.722  12.307 -1.2143  2.0411  1.2377
 7359TIP3    H246273   0.115   3.786  12.279  0.0126 -1.3958 -1.5394
 7360TIP3   OH246274   2.595   3.697  11.894  0.3796 -0.8346  0.2546
 7360TIP3    H146275   2.664   3.718  11.831  0.1946 -2.4705 -0.5424
 7360TIP3    H246276   2.612   3.607  11.920  1.0272  0.0904  3.3967
 7361TIP3   OH246277   4.873   5.259  10.683  0.1540 -0.5190  0.0083
 7361TIP3    H146278   4.833   5.187  10.733 -3.8222  0.7562 -1.0042
 7361TIP3    H246279   4.828   5.257  10.598  0.8840  2.3152 -0.5285
 7362TIP3   OH246280   5.884   5.770  10.973 -0.0879 -0.1275  0.9211
 7362TIP3    H146281   5.793   5.799  10.964  0.2535  1.1651  1.3926
 7362TIP3    H246282   5.909   5.745  10.884 -0.8342 -0.2960  0.7466
 7363TIP3   OH246283   0.736   4.461  12.755 -0.2856 -0.2190 -0.5467
 7363TIP3    H146284   0.655   4.480  12.802  0.0456 -0.2982  0.0645
 7363TIP3    H246285   0.805   4.503  12.807 -0.1605  2.1178 -2.4151
 7364TIP3   OH246286   3.780   6.976  12.035 -0.3995  0.1753 -0.4935
 7364TIP3    H146287   3.715   6.980  11.965  0.4989  2.7317 -1.3045
 7364TIP3    H246288   3.748   7.039  12.100 -0.3210 -0.8893  0.6029
 7365TIP3   OH246289   3.272   7.373  10.990 -0.1957 -0.0536  0.0368
 7365TIP3    H146290   3.323   7.330  10.922  1.1684 -0.1432  1.0747
 7365TIP3    H246291   3.184   7.338  10.979 -0.2953  0.7387 -2.3366
 7366TIP3   OH246292   6.713   4.146  11.057 -0.1531 -0.7547 -0.1838
 7366TIP3    H146293   6.726   4.060  11.017 -0.9107 -0.6471 -0.6782
 7366TIP3    H246294   6.620   4.163  11.048 -0.2120 -0.3871  0.9755
 7367TIP3   OH246295   1.695   4.794  10.838 -0.1284  0.0923  0.3222
 7367TIP3    H146296   1.724   4.733  10.906 -0.0666 -0.5854 -0.2956
 7367TIP3    H246297   1.609   4.824  10.867  0.1947  0.3523  1.0381
 7368TIP3   OH246298   6.316   3.585  11.116 -0.0951  0.1160 -0.4292
 7368TIP3    H146299   6.239   3.578  11.173 -0.0187  1.2042 -0.1654
 7368TIP3    H246300   6.387   3.613  11.174 -0.4640  3.2739 -1.3000
 7369TIP3   OH246301   6.484   2.980  11.122  0.0960 -0.3746 -0.0491
 7369TIP3    H146302   6.533   3.061  11.115 -1.1159  0.3385 -0.6135
 7369TIP3    H246303   6.435   2.973  11.040  0.1877 -1.6857 -0.0222
 7370TIP3   OH246304   4.510   3.806  10.488 -0.2211  0.6359 -0.2951
 7370TIP3    H146305   4.476   3.743  10.551 -1.7559  1.6006 -0.1243
 7370TIP3    H246306   4.513   3.889  10.535 -0.1506  1.1142 -1.1157
 7371TIP3   OH246307   0.964   0.995  12.279  0.7510  0.5874  0.1988
 7371TIP3    H146308   1.006   0.983  12.194  0.9437 -0.2669  0.4038
 7371TIP3    H246309   1.020   0.948  12.340  0.3765  0.8229  0.7334
 7372TIP3   OH246310   2.376   3.333  10.462  0.1621 -0.0129  0.0861
 7372TIP3    H146311   2.373   3.386  10.541  2.0064 -2.8294  2.2708
 7372TIP3    H246312   2.415   3.389  10.395  0.1964  1.9238  1.6679
 7373TIP3   OH246313   0.670   5.293  12.597 -0.2155 -0.2225  0.0291
 7373TIP3    H146314   0.686   5.380  12.562  1.0282 -1.1788 -1.9280
 7373TIP3    H246315   0.752   5.246  12.584 -1.6504 -2.4946 -1.6058
 7374TIP3   OH246316   0.089   0.269  11.323 -0.0377  0.1425 -0.8971
 7374TIP3    H146317   0.002   0.229  11.322  0.4744 -1.0044 -2.2179
 7374TIP3    H246318   0.121   0.256  11.412 -0.4996 -1.0650 -0.8886
 7375TIP3   OH246319   7.222   5.468  11.656  0.1114 -0.2913  0.5353
 7375TIP3    H146320   7.271   5.542  11.622 -0.5381  0.7214  1.7178
 7375TIP3    H246321   7.236   5.471  11.750 -1.2796 -0.6462  0.7820
 7376TIP3   OH246322   4.898   4.564  10.245  0.0900  0.2418 -0.2372
 7376TIP3    H146323   4.931   4.604  10.326  1.2308 -0.2844 -0.4281
 7376TIP3    H246324   4.961   4.495  10.225 -0.9367 -0.5448 -0.8306
 7377TIP3   OH246325   2.958   1.220  11.951  0.5595 -0.2227 -0.0359
 7377TIP3    H146326   2.942   1.149  11.889 -0.6670 -1.1045  1.2155
 7377TIP3    H246327   2.876   1.229  12.000  1.6866 -0.1260  1.9835
 7378TIP3   OH246328   6.313   4.082  11.852  0.5648 -0.1298  0.2828
 7378TIP3    H146329   6.354   4.017  11.910 -1.1088 -0.4901  1.1304
 7378TIP3    H246330   6.259   4.030  11.792 -0.3919  0.4255  0.6408
 7379TIP3   OH246331   1.811   4.309  12.125 -0.2636  0.5763  0.0564
 7379TIP3    H146332   1.829   4.398  12.155 -1.0940  1.1470 -1.0656
 7379TIP3    H246333   1.726   4.288  12.163  0.3838 -0.1363  1.1410
 7380TIP3   OH246334   3.352   1.056  11.869 -0.0446 -0.4549  0.0263
 7380TIP3    H146335   3.429   1.001  11.855 -1.2367 -2.7850  1.9398
 7380TIP3    H246336   3.386   1.134  11.913  1.4988 -0.2258 -1.4688
 7381TIP3   OH246337   5.566   7.234  11.005  0.2530  0.0936  0.2849
 7381TIP3    H146338   5.573   7.142  10.979 -2.2751 -0.1995  0.3902
 7381TIP3    H246339   5.653   7.271  10.986  0.8047 -1.8780 -1.4530
 7382TIP3   OH246340   5.597   3.901  11.960  0.1247 -0.0062  0.0370
 7382TIP3    H146341   5.594   3.873  12.051 -1.0428  1.4831  0.5077
 7382TIP3    H246342   5.686   3.934  11.948  0.3959 -0.5330  0.5158
 7383TIP3   OH246343   1.724   3.338  12.248  0.2483 -0.5292  0.0466
 7383TIP3    H146344   1.645   3.292  12.278 -0.4224 -0.5288 -1.5731
 7383TIP3    H246345   1.793   3.271  12.249 -0.4477 -1.3214 -1.1730
 7384TIP3   OH246346   4.484   0.273  10.255  0.2870 -0.0365  0.4082
 7384TIP3    H146347   4.478   0.192  10.204 -0.9475 -0.5099  1.2433
 7384TIP3    H246348   4.402   0.275  10.306  1.1559  0.7525  1.8383
 7385TIP3   OH246349   4.597   4.920  10.418  0.3640  0.2042  0.0428
 7385TIP3    H146350   4.548   4.853  10.370  0.3309  0.0932  0.2310
 7385TIP3    H246351   4.685   4.916  10.381  1.1445 -1.8436  1.8984
 7386TIP3   OH246352   2.105   4.950  11.526  0.7243 -0.4858 -0.0284
 7386TIP3    H146353   2.192   4.964  11.490  0.5061 -0.5969 -0.6050
 7386TIP3    H246354   2.048   5.009  11.477 -0.0176 -2.4611 -1.7212
 7387TIP3   OH246355   2.380   6.187  11.668  0.5051  0.0635 -0.8524
 7387TIP3    H146356   2.286   6.203  11.677  0.6434  1.1876 -1.2828
 7387TIP3    H246357   2.410   6.252  11.605  1.9611  1.2196  0.9257
 7388TIP3   OH246358   0.230   3.379  10.749 -0.0516  0.0589 -0.0869
 7388TIP3    H146359   0.309   3.342  10.788 -0.3112 -0.8097 -0.3645
 7388TIP3    H246360   0.158   3.338  10.797 -0.3512  1.7251  0.9666
 7389TIP3   OH246361   7.080   6.916  10.903 -0.2511  0.0635  0.7311
 7389TIP3    H146362   6.987   6.897  10.915 -0.3086  0.2764  0.6211
 7389TIP3    H246363   7.094   6.908  10.809  0.4252 -2.6484  0.9534
 7390TIP3   OH246364   4.823   7.381  11.798  0.0258  0.1513 -0.8685
 7390TIP3    H146365   4.816   7.463  11.846  0.2530 -1.8922  3.0630
 7390TIP3    H246366   4.908   7.345  11.825 -0.9730 -2.2907 -0.7074
 7391TIP3   OH246367   0.838   2.368  13.154  0.1044 -0.4828  0.4897
 7391TIP3    H146368   0.840   2.462  13.168 -0.4596 -0.1093 -1.5697
 7391TIP3    H246369   0.746   2.348  13.139  0.2614 -1.3039  0.5663
 7392TIP3   OH246370   4.675   7.073  11.391  0.3669 -0.4838 -0.1890
 7392TIP3    H146371   4.701   7.081  11.299  1.4495 -2.5773 -0.1162
 7392TIP3    H246372   4.701   7.157  11.430  3.0571 -0.7989 -1.0919
 7393TIP3   OH246373   1.535   3.392  10.783  0.1759  0.3823  0.5062
 7393TIP3    H146374   1.582   3.356  10.708 -0.9285 -0.7910  0.3424
 7393TIP3    H246375   1.603   3.422  10.842  1.1415 -1.0862  0.1936
 7394TIP3   OH246376   5.037   1.764  10.953 -0.0188  0.2102  0.1606
 7394TIP3    H146377   4.954   1.809  10.971 -0.7302 -0.0473 -2.2098
 7394TIP3    H246378   5.018   1.672  10.972 -0.0224  0.2472  0.3447
 7395TIP3   OH246379   3.074   6.942  11.549 -0.0142  0.6118 -0.1544
 7395TIP3    H146380   3.067   6.935  11.453  1.9530 -1.4057 -0.2356
 7395TIP3    H246381   3.163   6.975  11.564  0.0198  0.0434  0.9865
 7396TIP3   OH246382   3.706   1.529  10.302 -0.1488  0.4514 -0.5410
 7396TIP3    H146383   3.668   1.519  10.215 -0.8466  1.7596 -0.4223
 7396TIP3    H246384   3.643   1.584  10.349 -0.0099 -0.5906  0.9365
 7397TIP3   OH246385   0.282   5.323  10.945  0.3025  0.0038 -0.1434
 7397TIP3    H146386   0.221   5.362  10.883  0.6321  0.7565 -0.0008
 7397TIP3    H246387   0.348   5.281  10.890 -0.0472 -0.3436 -0.2971
 7398TIP3   OH246388   5.895   5.868  11.540  0.3399 -0.5988  0.1422
 7398TIP3    H146389   5.872   5.958  11.560  1.0035 -0.3181 -0.3083
 7398TIP3    H246390   5.812   5.825  11.523  0.1044  0.2651 -0.9817
 7399TIP3   OH246391   0.426   3.483  11.343 -0.1307 -0.6708  0.7537
 7399TIP3    H146392   0.450   3.569  11.310 -1.8200 -0.0620  1.0167
 7399TIP3    H246393   0.492   3.424  11.307  0.3557  0.5471 -0.4245
 7400TIP3   OH246394   5.649   2.882  10.957 -0.3166 -0.7636  0.2581
 7400TIP3    H146395   5.660   2.976  10.941 -1.8524 -0.8718 -1.7610
 7400TIP3    H246396   5.569   2.875  11.008  0.6158 -0.9341  1.7739
 7401TIP3   OH246397   3.381   6.599  10.773 -0.0351 -0.2011 -0.1344
 7401TIP3    H146398   3.390   6.588  10.678  1.4294 -2.2775  0.1594
 7401TIP3    H246399   3.344   6.686  10.784  0.7489  0.5153 -2.5651
 7402TIP3   OH246400   1.986   6.634  10.265  0.2843 -0.4260 -0.3354
 7402TIP3    H146401   2.051   6.627  10.195 -0.7330 -0.9548 -1.2489
 7402TIP3    H246402   1.940   6.716  10.248  0.6731 -0.0724  0.2855
 7403TIP3   OH246403   2.636   2.522  12.966 -0.0479  0.3517 -0.6281
 7403TIP3    H146404   2.699   2.580  13.009  0.0613 -0.1036 -0.1540
 7403TIP3    H246405   2.681   2.437  12.963 -1.1490 -0.3307  0.9740
 7404TIP3   OH246406   3.696   3.380  13.084  0.6148 -0.0622  0.1773
 7404TIP3    H146407   3.724   3.302  13.132 -0.1253 -0.3121  0.2137
 7404TIP3    H246408   3.730   3.366  12.995 -1.1108 -1.3451 -0.3249
 7405TIP3   OH246409   3.317   4.377  11.045 -0.4191  0.7347 -0.1112
 7405TIP3    H146410   3.338   4.351  10.955 -0.9612  0.6801 -0.2238
 7405TIP3    H246411   3.399   4.413  11.079 -0.2499  0.8942 -0.6761
 7406TIP3   OH246412   2.402   0.589  11.400 -0.4481 -0.5033  0.2004
 7406TIP3    H146413   2.489   0.626  11.420 -0.1122 -0.0792 -1.8074
 7406TIP3    H246414   2.355   0.592  11.483  1.0058  0.5445  1.0356
 7407TIP3   OH246415   6.876   0.961  12.683 -0.2381 -0.3639  0.0436
 7407TIP3    H146416   6.780   0.952  12.678 -0.4346  0.8812  1.2405
 7407TIP3    H246417   6.898   0.926  12.770  0.4367 -0.8330 -0.3088
 7408TIP3   OH246418   3.623   5.665  13.265 -0.1338  0.0193 -0.0050
 7408TIP3    H146419   3.620   5.761  13.263 -0.8247 -0.0086 -0.4084
 7408TIP3    H246420   3.536   5.637  13.237 -0.5383 -0.7310  1.8424
 7409TIP3   OH246421   5.909   2.927  12.200 -1.1819  0.1589  0.6889
 7409TIP3    H146422   5.845   2.897  12.264 -0.8522 -0.7099  0.6152
 7409TIP3    H246423   5.884   3.018  12.183 -2.5669 -0.2398  0.4530
 7410TIP3   OH246424   2.244   3.704  10.502 -0.0218 -0.3746 -0.2881
 7410TIP3    H146425   2.214   3.788  10.470 -1.2436  0.0681  1.8100
 7410TIP3    H246426   2.170   3.645  10.491 -0.3735 -0.2796  1.3480
 7411TIP3   OH246427   5.316   0.393  11.486  0.3789  0.4608 -0.4912
 7411TIP3    H146428   5.389   0.440  11.527  1.4377 -0.3065 -1.4314
 7411TIP3    H246429   5.263   0.462  11.447  1.3289  0.9701 -0.9251
 7412TIP3   OH246430   1.353   6.765  12.432  0.3191  0.0890  0.0517
 7412TIP3    H146431   1.302   6.694  12.392  0.8235 -0.0039 -0.4374
 7412TIP3    H246432   1.441   6.729  12.441  0.7310  0.8509 -0.7580
 7413TIP3   OH246433   0.414   5.101  12.765  0.6374 -0.1967 -0.1682
 7413TIP3    H146434   0.486   5.150  12.806 -1.8257  1.7991  2.0998
 7413TIP3    H246435   0.382   5.043  12.834 -1.2975  0.5644 -0.3732
 7414TIP3   OH246436   5.935   3.778  10.710 -0.3812  0.3046 -0.6411
 7414TIP3    H146437   5.994   3.741  10.775 -0.3768  0.3759 -0.6045
 7414TIP3    H246438   5.937   3.715  10.637 -1.7320 -0.6824  0.1238
 7415TIP3   OH246439   4.238   0.448  12.437 -0.4786  0.5431 -0.1590
 7415TIP3    H146440   4.201   0.483  12.518 -1.2609  1.3009 -0.8263
 7415TIP3    H246441   4.201   0.361  12.429  0.0461  0.2380  0.5743
 7416TIP3   OH246442   4.693   5.941  11.979 -0.0180 -0.0582  0.0592
 7416TIP3    H146443   4.637   6.011  11.947  2.7358  1.8226 -1.0339
 7416TIP3    H246444   4.680   5.941  12.074 -1.5351  0.5489 -0.1216
 7417TIP3   OH246445   7.626   2.768  13.438  0.1290 -0.0261  0.2255
 7417TIP3    H146446   7.691   2.732  13.498  2.0780  2.2790 -0.3486
 7417TIP3    H246447   7.543   2.760  13.485  1.4280  0.7989  2.8512
 7418TIP3   OH246448   7.085   3.162  12.025 -0.0202 -0.2242 -0.2729
 7418TIP3    H146449   7.113   3.079  11.988 -0.3169 -0.5947  0.3171
 7418TIP3    H246450   7.157   3.187  12.084  0.7375  0.6736 -1.5336
 7419TIP3   OH246451   6.086   6.879  12.453  0.6640  0.8439  0.7188
 7419TIP3    H146452   6.117   6.816  12.518  0.2359  0.8222  0.9098
 7419TIP3    H246453   6.000   6.845  12.427  0.2116  1.6080  1.1855
 7420TIP3   OH246454   7.553   6.862  11.202 -0.3868 -0.3785  0.8181
 7420TIP3    H146455   7.527   6.934  11.259 -1.7123 -0.6650  0.6103
 7420TIP3    H246456   7.498   6.872  11.124 -1.6073 -2.3897  1.3569
 7421TIP3   OH246457   3.266   4.697  12.067 -0.0678  0.7995  0.2403
 7421TIP3    H146458   3.286   4.695  11.974 -0.5587  0.0677  0.1442
 7421TIP3    H246459   3.182   4.741  12.072 -0.8068 -0.5450  0.1753
 7422TIP3   OH246460   4.231   0.525  10.534  0.4290  0.4918 -0.0458
 7422TIP3    H146461   4.171   0.534  10.609  0.1826  0.5448 -0.2482
 7422TIP3    H246462   4.309   0.574  10.560  1.4116 -1.6357  1.2840
 7423TIP3   OH246463   7.657   4.536  11.976 -0.0840 -0.0946  0.0390
 7423TIP3    H146464   7.699   4.487  11.905  1.2506  0.3747  0.4822
 7423TIP3    H246465   7.642   4.623  11.940  0.1671  0.0037  0.1648
 7424TIP3   OH246466   4.338   5.351  11.360 -0.0440  0.4340  0.2776
 7424TIP3    H146467   4.260   5.396  11.390 -0.8694 -1.1185  0.5600
 7424TIP3    H246468   4.395   5.347  11.437  0.7649  2.3865 -0.1611
 7425TIP3   OH246469   3.204   4.735  12.875 -0.3770  0.2599 -0.0034
 7425TIP3    H146470   3.297   4.760  12.876 -0.4683  0.6379  1.3553
 7425TIP3    H246471   3.189   4.700  12.788  0.6099  1.8397 -0.8445
 7426TIP3   OH246472   5.400   1.608  12.957 -0.1819  0.2842  0.2880
 7426TIP3    H146473   5.371   1.699  12.954 -1.7271 -0.1867 -2.1015
 7426TIP3    H246474   5.322   1.559  12.983  0.1608 -0.4752 -0.0832
 7427TIP3   OH246475   4.660   4.409  10.886  0.1788  0.1680  0.0250
 7427TIP3    H146476   4.627   4.362  10.809 -0.9100  0.1172  0.4956
 7427TIP3    H246477   4.708   4.342  10.936  1.0024  0.2349 -0.6647
 7428TIP3   OH246478   3.117   1.991  11.481 -0.2531  0.3151 -0.6085
 7428TIP3    H146479   3.111   2.077  11.439  1.9151  0.3109 -1.0711
 7428TIP3    H246480   3.186   1.946  11.432 -0.8226 -1.4120  0.1190
 7429TIP3   OH246481   5.912   2.192  11.040  0.2641  0.2797  0.7411
 7429TIP3    H146482   5.850   2.238  10.985  0.1118  0.4878  1.0807
 7429TIP3    H246483   5.876   2.200  11.129  1.5042  1.6421  1.1504
 7430TIP3   OH246484   4.146   0.853  11.659 -0.0338  0.1460  0.2530
 7430TIP3    H146485   4.101   0.862  11.575  1.6485 -0.0160 -0.7099
 7430TIP3    H246486   4.185   0.939  11.674  2.6277 -0.7241 -0.9707
 7431TIP3   OH246487   3.942   1.949  10.875  0.1882 -0.0444 -0.4226
 7431TIP3    H146488   3.944   1.945  10.780  1.6316 -1.1883 -0.3761
 7431TIP3    H246489   3.902   1.867  10.903 -2.6042  1.3255 -0.0312
 7432TIP3   OH246490   7.311   4.499  12.556  0.1615 -0.3706 -0.7173
 7432TIP3    H146491   7.403   4.523  12.556  0.4059 -1.1881 -2.6519
 7432TIP3    H246492   7.286   4.500  12.649  2.0104  0.1629 -0.1930
 7433TIP3   OH246493   2.264   6.256  12.490 -0.2180 -0.0535  0.3435
 7433TIP3    H146494   2.288   6.227  12.402  0.2678  0.3892  0.3221
 7433TIP3    H246495   2.194   6.319  12.477 -1.4079 -1.3236  0.4010
 7434TIP3   OH246496   3.958   3.853  12.224  0.2642 -0.5308  0.8291
 7434TIP3    H146497   3.989   3.795  12.155 -0.4904  0.1912 -0.1481
 7434TIP3    H246498   4.024   3.845  12.293  0.6916 -1.7732  0.3132
 7435TIP3   OH246499   4.509   3.613  12.338  0.0087  0.3038  0.4786
 7435TIP3    H146500   4.563   3.686  12.369 -0.5753  0.7339  0.5012
 7435TIP3    H246501   4.498   3.629  12.244  1.0532 -0.5281  0.1979
 7436TIP3   OH246502   4.718   1.854  11.562 -0.9030  0.3785 -0.0228
 7436TIP3    H146503   4.690   1.925  11.620 -0.7408  0.2076  0.2689
 7436TIP3    H246504   4.710   1.775  11.616  3.0468  0.5942  1.1539
 7437TIP3   OH246505   0.279   6.070  11.853  1.3324 -0.6931 -0.4014
 7437TIP3    H146506   0.285   6.145  11.912 -0.9021  0.6081 -1.6777
 7437TIP3    H246507   0.247   5.998  11.907  0.6909  0.0901  0.2851
 7438TIP3   OH246508   6.151   2.300  12.639 -0.0083 -0.4796  0.5782
 7438TIP3    H146509   6.200   2.291  12.720 -0.6399 -1.1692  0.8947
 7438TIP3    H246510   6.158   2.393  12.617 -1.1427  0.0478  2.2551
 7439TIP3   OH246511   5.068   4.385  10.416  0.3857  0.1261  0.4495
 7439TIP3    H146512   5.140   4.392  10.479  0.3764  1.8753  0.2911
 7439TIP3    H246513   5.078   4.296  10.380  1.9887  0.0422  0.9800
 7440TIP3   OH246514   5.605   5.170  10.923  0.4139  0.0248 -1.0374
 7440TIP3    H146515   5.625   5.186  10.831  2.0615  0.4260 -0.6444
 7440TIP3    H246516   5.535   5.232  10.943  0.6570  0.5609 -1.7991
 7441TIP3   OH246517   4.316   1.114  10.646  0.7587 -0.3804 -0.7842
 7441TIP3    H146518   4.376   1.159  10.705 -0.2299  0.9913 -0.7687
 7441TIP3    H246519   4.261   1.183  10.609 -0.3102 -1.4892 -1.3869
 7442TIP3   OH246520   2.801   3.943  10.192 -0.0097 -0.3825 -0.1202
 7442TIP3    H146521   2.879   3.889  10.202  0.1163 -0.7752 -2.6398
 7442TIP3    H246522   2.829   4.032  10.215  0.3547 -0.9740  1.8748
 7443TIP3   OH246523   1.192   4.453  11.536  0.3503  0.1373 -0.7638
 7443TIP3    H146524   1.191   4.464  11.441 -1.0792  0.6142 -0.7199
 7443TIP3    H246525   1.106   4.485  11.564  1.4105  1.7380  0.8821
 7444TIP3   OH246526   4.420   6.150  10.755 -0.0741  0.2500 -0.5593
 7444TIP3    H146527   4.366   6.114  10.685  1.8287 -0.1291 -1.9074
 7444TIP3    H246528   4.420   6.081  10.822 -2.4193  0.8714  0.1770
 7445TIP3   OH246529   4.570   0.678  11.492  0.0302  0.7186  0.2806
 7445TIP3    H146530   4.569   0.763  11.536 -2.3894  0.4458  0.8952
 7445TIP3    H246531   4.505   0.686  11.422  0.7517 -0.2176 -0.5291
 7446TIP3   OH246532   5.743   5.021  12.844  0.2776  0.2026 -0.2870
 7446TIP3    H146533   5.765   5.106  12.881 -0.6282 -0.0282  0.8615
 7446TIP3    H246534   5.690   5.042  12.766 -0.4271  0.6987  0.3091
 7447TIP3   OH246535   0.188   6.880  11.798 -0.0704  0.0637  0.2382
 7447TIP3    H146536   0.258   6.910  11.856 -1.6315  2.7273  0.9141
 7447TIP3    H246537   0.112   6.871  11.856 -0.9630 -0.0909 -0.9300
 7448TIP3   OH246538   4.243   2.894  11.798 -0.0426 -0.2858 -0.1607
 7448TIP3    H146539   4.263   2.860  11.886  0.6768 -0.7884 -0.5049
 7448TIP3    H246540   4.164   2.846  11.772 -0.1303 -0.2998  0.1240
 7449TIP3   OH246541   6.585   5.835  12.227 -1.1701  0.5229  0.6035
 7449TIP3    H146542   6.566   5.892  12.301 -0.6923  0.9597  0.4027
 7449TIP3    H246543   6.552   5.882  12.151 -1.2598  0.2831  0.4928
 7450TIP3   OH246544   6.075   7.336  12.356  0.0907 -0.2815  0.1657
 7450TIP3    H146545   6.009   7.277  12.391  0.2254 -0.6868 -0.2558
 7450TIP3    H246546   6.053   7.422  12.393 -0.6285 -0.4243  0.0874
 7451TIP3   OH246547   4.272   7.511  10.624 -0.7554  0.0386 -0.2154
 7451TIP3    H146548   4.324   7.436  10.652  0.3759 -0.3499 -3.1100
 7451TIP3    H246549   4.185   7.475  10.605 -0.8059 -0.1279  0.3077
 7452TIP3   OH246550   4.265   0.674  11.354  0.1653  0.6081 -0.3296
 7452TIP3    H146551   4.256   0.644  11.444  0.4834  1.3975 -0.0256
 7452TIP3    H246552   4.177   0.702  11.328  0.2723  1.3687  0.1039
 7453TIP3   OH246553   2.521   2.070  12.098 -0.3467 -0.0804 -0.2850
 7453TIP3    H146554   2.608   2.033  12.086 -0.6984 -0.4440 -1.9987
 7453TIP3    H246555   2.462   1.996  12.088 -0.8707  0.1086  1.1562
 7454TIP3   OH246556   3.301   3.604  12.237  0.1171  0.0913  0.1062
 7454TIP3    H146557   3.275   3.530  12.182  0.4270 -0.0373  0.1352
 7454TIP3    H246558   3.251   3.592  12.318  1.1107 -0.7964  0.6151
 7455TIP3   OH246559   4.616   6.689  11.720  0.4149  0.0641  0.7039
 7455TIP3    H146560   4.569   6.726  11.794 -0.3097  0.4359  0.0700
 7455TIP3    H246561   4.605   6.753  11.650 -1.8346 -1.7873 -0.7839
 7456TIP3   OH246562   0.478   3.540  10.642 -0.0247  0.1389 -0.1201
 7456TIP3    H146563   0.573   3.552  10.638 -0.1615  1.2214 -0.5873
 7456TIP3    H246564   0.466   3.453  10.680  1.1728 -0.5554 -1.2458
 7457TIP3   OH246565   2.338   0.548  12.170  0.2626  0.0743  0.5581
 7457TIP3    H146566   2.360   0.570  12.079 -0.9369 -0.8449  0.0245
 7457TIP3    H246567   2.286   0.622  12.201 -3.5432 -1.5960 -1.1484
 7458TIP3   OH246568   0.440   1.711  10.986  0.0163  0.0293  0.5037
 7458TIP3    H146569   0.374   1.771  11.021 -1.3003 -1.6806  1.1240
 7458TIP3    H246570   0.389   1.646  10.937  1.5214  0.2736 -1.5127
 7459TIP3   OH246571   5.498   5.247  11.491  0.6966  0.2945  0.9355
 7459TIP3    H146572   5.550   5.235  11.411  0.0929  0.0700  0.5764
 7459TIP3    H246573   5.464   5.160  11.512  1.0935  0.2932  1.6104
 7460TIP3   OH246574   4.247   1.532  11.715 -0.1074  0.1175  0.3075
 7460TIP3    H146575   4.258   1.488  11.799  1.1670 -2.3766 -1.0537
 7460TIP3    H246576   4.334   1.534  11.677 -0.2187  3.3824 -0.0300
 7461TIP3   OH246577   6.607   5.190  11.890  0.3667  0.4165 -0.2435
 7461TIP3    H146578   6.687   5.220  11.848  0.5998  2.0258  1.2393
 7461TIP3    H246579   6.540   5.200  11.822  1.2589 -0.2330 -1.2587
 7462TIP3   OH246580   0.423   1.995  11.829 -0.2890  0.2915 -0.6765
 7462TIP3    H146581   0.365   2.050  11.882  1.2004  1.3436 -0.0431
 7462TIP3    H246582   0.487   2.057  11.792 -0.0033 -0.7175 -1.9441
 7463TIP3   OH246583   5.298   6.571  12.000  0.6956  0.0856 -0.4193
 7463TIP3    H146584   5.275   6.512  11.927 -0.1769 -2.4904  1.7710
 7463TIP3    H246585   5.214   6.607  12.028  0.8464  0.0508  0.0833
 7464TIP3   OH246586   1.049   3.424  11.003 -0.0181  0.0011 -0.2781
 7464TIP3    H146587   1.108   3.397  10.933  0.2979  2.0860 -0.8959
 7464TIP3    H246588   0.976   3.466  10.958 -0.0636  0.9007  0.5989
 7465TIP3   OH246589   1.721   3.011  11.476 -0.0612  0.5101 -0.0305
 7465TIP3    H146590   1.693   3.041  11.390 -1.2733 -1.6396 -0.4539
 7465TIP3    H246591   1.817   3.013  11.472 -0.1112  1.1088 -1.1594
 7466TIP3   OH246592   5.780   2.836  11.949 -0.4120  0.3733 -0.5779
 7466TIP3    H146593   5.844   2.829  12.020 -0.3646  0.4333 -0.6142
 7466TIP3    H246594   5.771   2.747  11.915 -3.2752 -0.4855  1.9695
 7467TIP3   OH246595   5.163   3.090  11.451 -1.2046 -0.0273 -0.0749
 7467TIP3    H146596   5.132   3.176  11.479 -1.1487 -0.1347  0.3220
 7467TIP3    H246597   5.086   3.050  11.410 -1.4795 -0.1257  0.5264
 7468TIP3   OH246598   3.381   4.444  11.888 -0.2763  0.2489 -0.0501
 7468TIP3    H146599   3.339   4.521  11.850 -2.9604 -1.0093  0.0892
 7468TIP3    H246600   3.308   4.387  11.913  1.5003 -1.2805  2.1487
 7469TIP3   OH246601   3.315   1.508  12.247 -0.0690  0.1888  0.4666
 7469TIP3    H146602   3.385   1.455  12.286 -0.7409 -0.5405  0.6879
 7469TIP3    H246603   3.255   1.444  12.208 -0.1984  0.8422 -0.4468
 7470TIP3   OH246604   2.360   6.977  11.898  0.5069  0.3674  0.3191
 7470TIP3    H146605   2.380   6.924  11.975 -1.1908  0.7031  1.0347
 7470TIP3    H246606   2.304   7.048  11.931 -1.1529 -0.0737 -1.3582
 7471TIP3   OH246607   3.435   6.380  11.923  0.0081 -0.0274  0.0310
 7471TIP3    H146608   3.505   6.385  11.858 -1.0726 -0.6201 -1.2232
 7471TIP3    H246609   3.415   6.286  11.928 -2.5837  0.3366 -1.7619
 7472TIP3   OH246610   3.846   0.302  11.086 -0.7309  0.5794 -0.2965
 7472TIP3    H146611   3.826   0.214  11.054 -0.6878  0.6935 -0.6381
 7472TIP3    H246612   3.763   0.334  11.120 -0.1301 -0.7968  2.8106
 7473TIP3   OH246613   1.602   4.269  12.311 -0.4521 -0.0312  0.3628
 7473TIP3    H146614   1.550   4.348  12.329 -0.1668  0.2680 -0.1011
 7473TIP3    H246615   1.664   4.264  12.383  1.5927  1.9175 -1.1118
 7474TIP3   OH246616   7.115   3.974  10.898  0.4098 -0.0291  0.5390
 7474TIP3    H146617   7.075   3.889  10.912 -0.9550  0.4473 -0.2583
 7474TIP3    H246618   7.208   3.955  10.883  0.7920 -1.0690  3.5904
 7475TIP3   OH246619   6.366   0.664  10.961  0.2295 -0.2216  0.3535
 7475TIP3    H146620   6.291   0.723  10.954  1.2276  0.9262 -1.2883
 7475TIP3    H246621   6.427   0.695  10.895  2.2681 -0.9953  1.7780
 7476TIP3   OH246622   1.013   6.150  12.917 -0.3790 -0.2868 -0.1021
 7476TIP3    H146623   1.106   6.130  12.922 -0.6284 -1.3258  0.4568
 7476TIP3    H246624   0.981   6.140  13.006 -0.8612  0.9651 -0.1119
 7477TIP3   OH246625   2.311   6.867  11.135  0.3650 -0.0881  0.1433
 7477TIP3    H146626   2.243   6.806  11.165 -0.5323  0.0630 -1.4470
 7477TIP3    H246627   2.362   6.886  11.214  1.2861 -3.5679  0.5943
 7478TIP3   OH246628   5.825   0.349  11.572  1.1736 -0.1753 -0.5504
 7478TIP3    H146629   5.874   0.304  11.503  0.6322 -0.4674 -0.7533
 7478TIP3    H246630   5.749   0.293  11.587  0.7019  0.4666 -0.5126
 7479TIP3   OH246631   1.782   4.530  17.352  0.0146  0.8116  0.0128
 7479TIP3    H146632   1.869   4.566  17.337  0.7704  0.0175  2.0593
 7479TIP3    H246633   1.762   4.480  17.273  1.5547  0.7658 -0.3799
 7480TIP3   OH246634   0.622   2.221  11.352  0.0980 -0.6666 -0.8158
 7480TIP3    H146635   0.622   2.156  11.281 -0.7529 -0.4903 -0.9874
 7480TIP3    H246636   0.714   2.232  11.374  0.2488 -2.1563 -0.5849
 7481TIP3   OH246637   3.707   5.183  10.363  0.3499 -0.3978 -0.1314
 7481TIP3    H146638   3.702   5.200  10.269  2.0102  1.3966  0.0314
 7481TIP3    H246639   3.796   5.209  10.387 -0.1782 -0.3859  2.0114
 7482TIP3   OH246640   4.033   5.007  12.071  0.2643  0.2416  0.3465
 7482TIP3    H146641   3.952   5.027  12.117  0.6765  1.4055  0.6191
 7482TIP3    H246642   4.087   5.085  12.084  0.9015  0.0489 -0.9937
 7483TIP3   OH246643   1.903   4.081  11.581 -0.0960 -0.0470 -0.0649
 7483TIP3    H146644   1.959   4.008  11.557 -0.1754  0.3926 -1.7232
 7483TIP3    H246645   1.929   4.152  11.522 -0.5268  1.0341  0.9966
 7484TIP3   OH246646   0.625   2.642  10.936 -0.3035  0.0347 -0.0933
 7484TIP3    H146647   0.711   2.608  10.961 -0.3180 -1.0368 -1.3829
 7484TIP3    H246648   0.562   2.582  10.976 -0.5637  1.6274  2.0607
 7485TIP3   OH246649   5.642   1.801  10.999  0.7797  0.0107  0.0527
 7485TIP3    H146650   5.639   1.897  11.001 -0.6388 -0.0081 -0.3124
 7485TIP3    H246651   5.612   1.778  10.911  3.5764 -0.7467 -0.8394
 7486TIP3   OH246652   0.537   4.413  11.468  0.1380  0.3637  0.3785
 7486TIP3    H146653   0.624   4.402  11.428  0.9063  3.6686  0.8633
 7486TIP3    H246654   0.548   4.382  11.558  0.4925 -0.1652  0.1629
 7487TIP3   OH246655   2.260   1.476  10.799  0.2886  0.1262 -0.1617
 7487TIP3    H146656   2.199   1.494  10.727  0.7677  0.1190 -0.5780
 7487TIP3    H246657   2.330   1.424  10.758 -0.1053 -1.0400  0.5991
 7488TIP3   OH246658   1.024   7.614  11.027  0.2486 -0.2741 -0.1387
 7488TIP3    H146659   0.950   7.555  11.015  0.6888 -1.3006  1.7515
 7488TIP3    H246660   1.069   7.614  10.942 -0.9738 -0.9405 -0.8065
 7489TIP3   OH246661   7.186   2.766  12.094 -0.0773  0.1237 -0.4478
 7489TIP3    H146662   7.265   2.728  12.056  0.3526  0.8955 -0.3585
 7489TIP3    H246663   7.218   2.826  12.161 -0.7872 -0.2971  0.2818
 7490TIP3   OH246664   4.680   3.793  12.501 -0.1815 -0.3477  0.5669
 7490TIP3    H146665   4.742   3.834  12.562  0.2856  0.5525 -0.4695
 7490TIP3    H246666   4.645   3.867  12.451 -0.9954 -1.0105  0.1505
 7491TIP3   OH246667   1.517   1.970  10.779 -0.0611  0.7656  0.2554
 7491TIP3    H146668   1.576   2.043  10.801  1.5585 -0.0598 -1.1247
 7491TIP3    H246669   1.460   2.006  10.711  0.5597  0.8312 -0.2388
 7492TIP3   OH246670   4.783   2.863  11.790 -0.3354 -0.2484 -0.3967
 7492TIP3    H146671   4.757   2.774  11.815  1.6166 -1.6484 -2.8658
 7492TIP3    H246672   4.732   2.882  11.711 -1.7136  1.4391  0.8340
 7493TIP3   OH246673   6.163   5.889  10.974  0.0059 -0.1753  0.7123
 7493TIP3    H146674   6.079   5.844  10.967  1.2495 -2.5760 -0.0831
 7493TIP3    H246675   6.195   5.867  11.061  0.3961 -0.4580  0.5050
 7494TIP3   OH246676   3.737   0.255  10.774 -0.0709  0.2029  0.2887
 7494TIP3    H146677   3.786   0.192  10.827 -0.0816 -0.1288 -0.0969
 7494TIP3    H246678   3.743   0.337  10.823 -1.0794 -0.3574  1.4177
 7495TIP3   OH246679   3.240   1.683  13.440  0.1552  0.3284  0.1058
 7495TIP3    H146680   3.146   1.669  13.436  0.4092 -1.3766 -0.7867
 7495TIP3    H246681   3.251   1.757  13.500 -1.8568  2.0790 -1.5047
 7496TIP3   OH246682   3.867   5.939  10.703 -0.1713 -0.3964  0.5520
 7496TIP3    H146683   3.809   5.884  10.757 -1.6166 -0.0428 -0.5769
 7496TIP3    H246684   3.952   5.935  10.748 -1.3539  0.0985  3.0229
 7497TIP3   OH246685   4.590   3.996  11.502 -0.2065 -0.0255  0.1402
 7497TIP3    H146686   4.593   4.089  11.524  0.9453 -0.3959  1.6846
 7497TIP3    H246687   4.528   3.959  11.564 -0.8892 -0.2638 -0.6665
 7498TIP3   OH246688   5.780   3.141  12.438 -0.2076 -0.0636  0.8202
 7498TIP3    H146689   5.782   3.048  12.460  1.6738 -0.8032 -1.9249
 7498TIP3    H246690   5.709   3.148  12.374 -0.5615  0.4914  1.2631
 7499TIP3   OH246691   0.653   2.947  12.458  0.1096  0.2937  0.6494
 7499TIP3    H146692   0.634   2.854  12.448 -0.3775  0.3953  0.6190
 7499TIP3    H246693   0.584   2.991  12.409  0.2292  0.6769  0.8250
 7500TIP3   OH246694   0.966   7.639  10.735 -0.2001 -0.0658 -0.0966
 7500TIP3    H146695   1.003   7.708  10.679  0.4280 -1.2619 -1.2022
 7500TIP3    H246696   0.873   7.660  10.741  0.0622  1.1459  0.0036
 7501TIP3   OH246697   2.249   3.734  11.611  0.1942 -0.5123 -0.0459
 7501TIP3    H146698   2.276   3.652  11.654 -0.2111  0.3519  1.9732
 7501TIP3    H246699   2.279   3.803  11.670 -1.8686  0.6763 -0.2856
 7502TIP3   OH246700   5.584   1.210  12.907  0.8759 -0.3236 -0.0143
 7502TIP3    H146701   5.524   1.136  12.920  0.0120  0.1919 -0.9672
 7502TIP3    H246702   5.655   1.195  12.970 -0.0355 -1.1748  0.8255
 7503TIP3   OH246703   0.722   1.449  10.947 -1.0032 -0.7040 -0.4816
 7503TIP3    H146704   0.764   1.363  10.940  2.4398  0.6966  0.6205
 7503TIP3    H246705   0.680   1.448  11.033 -1.9047 -1.6014 -0.9142
 7504TIP3   OH246706   0.128   2.801  12.624  0.2476  0.0242  0.8539
 7504TIP3    H146707   0.163   2.782  12.537 -0.3063  0.5266  0.5132
 7504TIP3    H246708   0.155   2.727  12.678  0.4033 -0.3994  0.1975
 7505TIP3   OH246709   2.155   2.926  11.684 -0.7584 -0.1463 -0.3507
 7505TIP3    H146710   2.128   2.920  11.776 -0.3190  0.0917 -0.2005
 7505TIP3    H246711   2.241   2.884  11.682  0.3824  2.0300 -0.1414
 7506TIP3   OH246712   4.813   3.095  12.028 -0.3767  1.1089  0.5436
 7506TIP3    H146713   4.786   3.072  12.117  1.3769 -0.7762  0.6683
 7506TIP3    H246714   4.777   3.025  11.973  1.6030  0.1763  0.3366
 7507TIP3   OH246715   1.699   4.620  11.065  0.2531  0.1523 -0.9516
 7507TIP3    H146716   1.743   4.663  11.138 -0.2792  0.0291 -0.5531
 7507TIP3    H246717   1.725   4.528  11.074 -0.5127 -0.0234 -0.3810
 7508TIP3   OH246718   0.725   5.514  12.446 -0.0200  0.1117  0.6710
 7508TIP3    H146719   0.800   5.490  12.391 -0.0241 -2.1308  1.4994
 7508TIP3    H246720   0.761   5.570  12.514  0.3467  1.3265 -0.5018
 7509TIP3   OH246721   0.114   0.345  11.857  0.9254  0.0189 -0.0773
 7509TIP3    H146722   0.045   0.292  11.897  0.8194 -0.4284 -0.8501
 7509TIP3    H246723   0.102   0.432  11.895  0.5492 -0.2923  0.5294
 7510TIP3   OH246724   7.335   2.621  10.469  1.2303 -0.3766 -0.2990
 7510TIP3    H146725   7.362   2.578  10.388  2.6062 -2.6808  1.2455
 7510TIP3    H246726   7.380   2.706  10.467 -0.4435  0.5811 -2.8108
 7511TIP3   OH246727   2.104   2.738  11.141 -0.1146 -0.6792 -0.0733
 7511TIP3    H146728   2.120   2.644  11.156  0.9374 -0.5656 -0.4107
 7511TIP3    H246729   2.116   2.749  11.047  1.3926  0.0663  0.1653
 7512TIP3   OH246730   7.275   0.380  11.094 -0.4277 -0.1409 -0.3773
 7512TIP3    H146731   7.189   0.413  11.068 -0.4517 -0.3223 -0.5316
 7512TIP3    H246732   7.337   0.429  11.041 -0.6030 -2.9270 -3.5024
 7513TIP3   OH246733   5.944   7.111  12.451  0.0391  0.0418  0.1920
 7513TIP3    H146734   5.914   7.122  12.361 -0.6911  0.8250  0.5077
 7513TIP3    H246735   5.991   7.028  12.451  1.8670  1.0036 -1.3616
 7514TIP3   OH246736   0.922   5.648  12.545 -0.4184  0.3245 -0.0868
 7514TIP3    H146737   0.969   5.687  12.472 -0.0156  0.0557  0.0227
 7514TIP3    H246738   0.991   5.617  12.604 -0.7330  0.7752  0.5358
 7515TIP3   OH246739   1.025   7.422  10.522  0.0161 -0.4506  0.5270
 7515TIP3    H146740   1.024   7.340  10.572 -2.2595 -1.3194 -0.8374
 7515TIP3    H246741   0.960   7.477  10.565  0.0769 -0.1189  0.1961
 7516TIP3   OH246742   5.939   4.664  12.016 -0.3819  0.2755 -0.3259
 7516TIP3    H146743   5.889   4.743  11.995 -1.7672 -0.3213  0.5490
 7516TIP3    H246744   5.982   4.683  12.099  0.0648  0.4567 -0.6006
 7517TIP3   OH246745   1.075   0.203  10.628 -0.3341  0.1257 -0.0084
 7517TIP3    H146746   1.128   0.231  10.703 -0.1408  1.0000 -0.4601
 7517TIP3    H246747   0.997   0.258  10.632 -0.0336  0.6369 -0.7959
 7518TIP3   OH246748   4.802   2.836  11.314  0.1272 -0.0888 -0.1379
 7518TIP3    H146749   4.787   2.804  11.225  1.2290 -0.2870 -0.2594
 7518TIP3    H246750   4.861   2.910  11.304 -0.1613  0.2230  0.3927
 7519TIP3   OH246751   6.050   3.176  11.005  0.1252 -0.6587  0.5729
 7519TIP3    H146752   6.112   3.249  11.011  0.4603 -0.8439 -0.4836
 7519TIP3    H246753   6.091   3.106  11.055  1.2901 -1.1098 -0.9342
 7520TIP3   OH246754   1.974   6.983  12.246 -0.0832 -0.6978 -0.3186
 7520TIP3    H146755   1.902   6.966  12.307 -0.4054  0.8035 -0.2602
 7520TIP3    H246756   2.046   6.931  12.280 -0.2314  0.1636  1.4132
 7521TIP3   OH246757   5.984   1.318  12.005 -0.8778 -0.0409 -0.3139
 7521TIP3    H146758   5.891   1.341  12.001 -0.5218  1.3346 -1.6574
 7521TIP3    H246759   6.015   1.355  12.088 -1.9139 -2.2926  1.1767
 7522TIP3   OH246760   0.811   6.361  12.017  0.0924 -0.1246  0.1359
 7522TIP3    H146761   0.777   6.450  12.028  1.7005  0.4950  0.3153
 7522TIP3    H246762   0.851   6.362  11.931  1.2749 -0.2714  0.6747
 7523TIP3   OH246763   2.244   2.237  12.383  0.2024  0.1879 -0.4633
 7523TIP3    H146764   2.199   2.168  12.335 -0.8011  1.2042 -1.0600
 7523TIP3    H246765   2.335   2.208  12.389  0.2698 -0.1994 -2.5795
 7524TIP3   OH246766   4.942   4.865  12.518  0.7574  0.0927  0.4216
 7524TIP3    H146767   4.878   4.872  12.589  0.0879  1.1220 -0.2512
 7524TIP3    H246768   5.020   4.908  12.552  0.9296 -0.7025  1.0561
 7525TIP3   OH246769   0.675   1.016  10.740 -0.2289  0.8253 -0.7679
 7525TIP3    H146770   0.757   1.063  10.721  0.8913 -0.4036  0.7589
 7525TIP3    H246771   0.690   0.928  10.705 -1.0808  0.7007 -0.8301
 7526TIP3   OH246772   0.338   3.905  11.723  0.2827  0.4018  0.1873
 7526TIP3    H146773   0.248   3.937  11.732  0.2115 -0.0169  1.1718
 7526TIP3    H246774   0.392   3.981  11.746  0.2009  0.7513 -0.7323
 7527TIP3   OH246775   4.865   3.150  10.754  0.5142 -0.5331 -0.0332
 7527TIP3    H146776   4.877   3.143  10.660  0.9653 -3.1057  0.1354
 7527TIP3    H246777   4.946   3.188  10.787  1.3909 -1.9057 -0.5078
 7528TIP3   OH246778   7.477   3.050  12.780 -0.1931 -0.1745 -0.0456
 7528TIP3    H146779   7.494   3.109  12.854 -0.4626 -0.0453 -0.0849
 7528TIP3    H246780   7.415   3.098  12.726  0.6069  0.0738 -0.7728
 7529TIP3   OH246781   6.776   4.600  11.044 -0.1060  0.2734  0.2535
 7529TIP3    H146782   6.708   4.603  10.976 -0.2104 -0.1939  0.3376
 7529TIP3    H246783   6.787   4.692  11.070 -0.5888  0.3724  0.1247
 7530TIP3   OH246784   3.865   2.070  13.175 -0.3980 -0.5845 -0.8040
 7530TIP3    H146785   3.879   2.146  13.232  1.5041 -1.5816  0.1625
 7530TIP3    H246786   3.844   2.107  13.090 -2.3527  0.9728  0.2757
 7531TIP3   OH246787   1.518   5.958  12.289 -0.3654 -0.1148  0.0667
 7531TIP3    H146788   1.564   6.032  12.328  1.4065 -1.5094  0.7995
 7531TIP3    H246789   1.578   5.927  12.220  1.6910 -4.0214  3.1651
 7532TIP3   OH246790   1.867   2.708  10.657  0.2596  0.0504  0.2031
 7532TIP3    H146791   1.873   2.802  10.675  0.7585 -0.2357  1.6506
 7532TIP3    H246792   1.947   2.688  10.609  0.7264  0.1641  0.9167
 7533TIP3   OH246793   5.438   2.898  11.133  0.5637  0.6954 -0.2059
 7533TIP3    H146794   5.412   2.979  11.175 -0.1119 -0.7485  2.3871
 7533TIP3    H246795   5.466   2.842  11.205 -0.1403 -1.7947 -1.7445
 7534TIP3   OH246796   0.983   1.651  12.004 -0.0085  0.5929  0.2289
 7534TIP3    H146797   0.945   1.722  12.055 -0.9498 -0.7133  1.3982
 7534TIP3    H246798   1.067   1.633  12.047  0.5104  1.3270 -0.4202
 7535TIP3   OH246799   6.888   3.416  11.894 -0.5696  0.3435  0.1056
 7535TIP3    H146800   6.980   3.434  11.913 -0.9616  1.5880  0.9687
 7535TIP3    H246801   6.848   3.400  11.980 -0.5025 -4.0095 -0.4351
 7536TIP3   OH246802   1.765   3.002  11.173 -0.0568 -0.3558  0.2820
 7536TIP3    H146803   1.817   2.922  11.169  0.4227 -0.0736  0.7567
 7536TIP3    H246804   1.829   3.073  11.161 -0.4647 -0.0365 -0.0451
 7537TIP3   OH246805   0.985   2.194  10.779 -0.1068 -0.0164 -0.0101
 7537TIP3    H146806   0.944   2.164  10.697  1.0245  1.9414 -1.3924
 7537TIP3    H246807   0.953   2.134  10.845 -1.1348 -1.6649 -1.8846
 7538TIP3   OH246808   4.101   5.998  10.836  0.5712  0.2137  0.0109
 7538TIP3    H146809   4.183   5.952  10.819  1.1221  0.8266  0.9141
 7538TIP3    H246810   4.106   6.022  10.929 -1.1262 -0.6986  0.3693
 7539TIP3   OH246811   1.291   7.419  12.280  0.0309  0.0082  0.0617
 7539TIP3    H146812   1.356   7.352  12.260  0.2150  0.2118 -0.0225
 7539TIP3    H246813   1.319   7.454  12.365 -0.3528 -0.3710  0.3498
 7540TIP3   OH246814   0.630   5.438  11.048 -0.0982  0.1080  0.1184
 7540TIP3    H146815   0.658   5.453  11.138  1.7681 -0.4771 -0.3282
 7540TIP3    H246816   0.589   5.352  11.049  0.6579 -0.2538  0.2589
 7541TIP3   OH246817   4.219   3.548  12.272  0.3074 -0.2226  0.8283
 7541TIP3    H146818   4.309   3.579  12.280 -0.3630  2.1374  0.1985
 7541TIP3    H246819   4.216   3.505  12.186  0.6365  0.4895  0.4544
 7542TIP3   OH246820   4.073   1.282  12.160 -0.1246 -0.3500 -0.2836
 7542TIP3    H146821   4.162   1.307  12.136 -0.0246  0.0351  0.4581
 7542TIP3    H246822   4.029   1.267  12.076  0.5283 -0.1739 -0.6664
 7543TIP3   OH246823   5.024   7.315  10.893 -0.9435 -0.0665 -0.6739
 7543TIP3    H146824   4.930   7.333  10.901 -0.6264  0.9106  1.9541
 7543TIP3    H246825   5.057   7.383  10.834 -1.7669 -0.0217 -1.0963
 7544TIP3   OH246826   7.364   3.912  10.799  0.0794 -0.5545  0.2532
 7544TIP3    H146827   7.433   3.911  10.865  0.1933  0.1534  0.1556
 7544TIP3    H246828   7.402   3.866  10.724  1.2449  1.5932 -0.5569
 7545TIP3   OH246829   4.252   0.267  10.404 -0.4421 -0.0811  0.1058
 7545TIP3    H146830   4.163   0.236  10.425 -0.4247 -0.3402 -0.1904
 7545TIP3    H246831   4.253   0.358  10.431 -1.4798  0.5557 -1.8517
 7546TIP3   OH246832   2.930   3.459  11.309  0.3062  0.2073  0.6593
 7546TIP3    H146833   2.969   3.448  11.222  1.6476 -0.8753  1.3461
 7546TIP3    H246834   2.985   3.526  11.351 -0.5945  1.0364  0.5601
 7547TIP3   OH246835   2.548   0.147  11.047  0.0658  0.0849  0.1532
 7547TIP3    H146836   2.501   0.229  11.038 -1.2721 -0.5229  1.2679
 7547TIP3    H246837   2.487   0.080  11.016  1.0548 -0.5155 -0.5475
 7548TIP3   OH246838   2.421   0.653  11.934  0.2079  0.4329 -0.0377
 7548TIP3    H146839   2.486   0.661  11.864  0.5490 -0.8099  0.1160
 7548TIP3    H246840   2.416   0.740  11.973  0.9039  0.8346 -0.8258
 7549TIP3   OH246841   3.754   4.284  11.494 -0.3038 -0.3319 -0.2853
 7549TIP3    H146842   3.791   4.197  11.480 -1.7698 -0.7237 -2.2244
 7549TIP3    H246843   3.690   4.295  11.423 -0.1322  2.3560 -0.1436
 7550TIP3   OH246844   2.225   3.177  11.111 -0.1098 -0.5603 -0.4616
 7550TIP3    H146845   2.239   3.091  11.149  0.1653 -0.9454 -1.3951
 7550TIP3    H246846   2.133   3.177  11.084 -0.9019  0.4539  1.9481
 7551TIP3   OH246847   4.542   6.205  10.315  0.7077 -0.5605 -0.4921
 7551TIP3    H146848   4.455   6.238  10.340  0.7126  1.7932 -3.0924
 7551TIP3    H246849   4.525   6.117  10.283 -0.1465 -1.3635  1.8865
 7552TIP3   OH246850   2.511   4.132  11.723 -0.1875 -0.2423 -0.0862
 7552TIP3    H146851   2.478   4.216  11.690  0.8348 -0.9213 -3.0941
 7552TIP3    H246852   2.598   4.153  11.757 -1.0455  0.3605  1.9218
 7553TIP3   OH246853   0.136   2.079  11.478  0.2056 -0.5754  0.5933
 7553TIP3    H146854   0.062   2.120  11.524 -1.1545 -2.0679 -0.1545
 7553TIP3    H246855   0.211   2.133  11.501 -0.9410  0.4582  2.1656
 7554TIP3   OH246856   1.919   4.839  12.390 -0.1515  0.1992 -0.0192
 7554TIP3    H146857   1.963   4.841  12.475 -0.0935 -0.4331 -0.0332
 7554TIP3    H246858   1.895   4.931  12.374  1.4294  0.6247 -0.1646
 7555TIP3   OH246859   6.500   6.691  11.393 -0.0397 -0.1201 -0.6614
 7555TIP3    H146860   6.410   6.672  11.369  0.1939 -2.4793  0.0305
 7555TIP3    H246861   6.507   6.664  11.485  1.0582  1.2609 -0.2918
 7556TIP3   OH246862   5.872   3.747  12.243 -0.5610 -0.3925  0.4159
 7556TIP3    H146863   5.796   3.743  12.301 -1.7812 -0.1241 -1.1004
 7556TIP3    H246864   5.867   3.834  12.202  1.4536  0.2598  1.3941
 7557TIP3   OH246865   5.121   6.701  12.625  0.1002 -0.5144  0.2716
 7557TIP3    H146866   5.146   6.787  12.660 -1.7747  0.8139 -1.4290
 7557TIP3    H246867   5.169   6.638  12.679  0.9033  1.5538  2.1104
 7558TIP3   OH246868   6.411   4.904  11.499  0.1362 -0.2186  0.1816
 7558TIP3    H146869   6.469   4.925  11.426  1.7201 -1.5139  1.0116
 7558TIP3    H246870   6.422   4.977  11.560 -0.2104  0.2303 -0.2806
 7559TIP3   OH246871   7.091   0.613  12.064  0.0826 -0.0395 -0.1486
 7559TIP3    H146872   7.082   0.585  11.973 -0.7757 -0.8703  0.1675
 7559TIP3    H246873   7.038   0.693  12.070 -0.3712 -0.3297 -0.2400
 7560TIP3   OH246874   3.806   4.261  10.437  0.0979  0.1408  0.2194
 7560TIP3    H146875   3.881   4.256  10.497  0.4035  0.0413 -0.1714
 7560TIP3    H246876   3.841   4.301  10.358 -0.6583  1.7724  0.6588
 7561TIP3   OH246877   6.434   1.771  11.238 -0.2446  0.1317 -0.0227
 7561TIP3    H146878   6.341   1.753  11.226 -0.0143 -0.7813 -0.4790
 7561TIP3    H246879   6.460   1.714  11.311  0.5141 -1.5686 -1.5534
 7562TIP3   OH246880   3.501   5.468  11.286  0.0345  0.0083  0.6442
 7562TIP3    H146881   3.554   5.432  11.357  0.3057 -4.2129 -1.3776
 7562TIP3    H246882   3.417   5.425  11.295  0.3787 -1.4328 -2.0166
 7563TIP3   OH246883   1.790   0.274  11.240  0.3532 -0.6215  0.3822
 7563TIP3    H146884   1.830   0.231  11.316  0.6103 -2.3514 -0.6909
 7563TIP3    H246885   1.701   0.239  11.236 -0.0348  0.3037  0.4950
 7564TIP3   OH246886   6.913   5.953  10.603 -0.4409 -0.3055 -0.5023
 7564TIP3    H146887   6.876   5.977  10.688  0.5469 -1.4284  0.2625
 7564TIP3    H246888   6.908   5.858  10.600 -0.3143 -0.2891 -1.6409
 7565TIP3   OH246889   7.258   5.286  11.235 -0.2569 -0.0223 -0.6404
 7565TIP3    H146890   7.254   5.249  11.324 -0.3484 -0.3820 -0.7908
 7565TIP3    H246891   7.339   5.337  11.233 -0.8917  1.0544  0.0604
 7566TIP3   OH246892   6.411   7.364  11.407 -0.2338 -0.6961  0.1355
 7566TIP3    H146893   6.474   7.306  11.364  0.1575 -0.5771  0.5504
 7566TIP3    H246894   6.341   7.375  11.342  1.0502  0.7180 -1.0902
 7567TIP3   OH246895   3.377   2.649  12.490 -0.3837  0.4166  0.5547
 7567TIP3    H146896   3.422   2.624  12.571 -0.3949  0.7459  0.6653
 7567TIP3    H246897   3.390   2.744  12.484  0.7498  0.2161 -0.5124
 7568TIP3   OH246898   6.332   1.035  12.487  0.2523  0.0128 -0.4761
 7568TIP3    H146899   6.242   1.057  12.466  0.2273 -2.8381 -4.4414
 7568TIP3    H246900   6.384   1.107  12.452 -0.3857 -0.0324 -1.5654
 7569TIP3   OH246901   5.698   2.028  12.548  0.1768 -0.2972 -0.2672
 7569TIP3    H146902   5.695   2.033  12.644  1.8690  0.2682 -0.2091
 7569TIP3    H246903   5.787   2.055  12.526 -0.4820  0.5700 -2.0621
 7570TIP3   OH246904   3.558   4.719  13.084  0.8022 -0.3297  0.0280
 7570TIP3    H146905   3.553   4.798  13.138 -0.5923 -0.0106 -0.5200
 7570TIP3    H246906   3.517   4.744  13.001  0.6852 -1.5124 -0.2874
 7571TIP3   OH246907   5.255   0.392  12.631 -1.1504  0.1406 -0.2152
 7571TIP3    H146908   5.239   0.308  12.590  0.1076 -0.3250  0.2110
 7571TIP3    H246909   5.332   0.378  12.686 -2.1676  1.0177  1.4962
 7572TIP3   OH246910   1.957   2.557  10.064  0.2964 -0.1456 -0.4470
 7572TIP3    H146911   1.949   2.645  10.101 -1.3588 -0.8329  0.9699
 7572TIP3    H246912   1.962   2.570   9.970  0.9697  1.4889 -0.2245
 7573TIP3   OH246913   2.916   2.615  12.250 -0.5350 -0.3344 -0.0598
 7573TIP3    H146914   2.890   2.568  12.171 -0.2819 -2.2142  0.9173
 7573TIP3    H246915   3.008   2.591  12.263 -0.4591  0.2748  0.5843
 7574TIP3   OH246916   7.269   4.010  10.550 -0.0970  0.1687 -0.0849
 7574TIP3    H146917   7.364   4.009  10.546 -0.1296 -0.5577 -0.7558
 7574TIP3    H246918   7.248   3.992  10.642  0.4037  0.5790  0.1145
 7575TIP3   OH246919   7.560   0.620  11.855  0.2404 -0.3535 -0.2694
 7575TIP3    H146920   7.526   0.531  11.860  1.7797 -0.9408  0.8611
 7575TIP3    H246921   7.530   0.662  11.936 -0.3151  0.0971 -0.7056
 7576TIP3   OH246922   3.223   0.264  11.797 -0.3315 -0.2637 -0.1051
 7576TIP3    H146923   3.150   0.258  11.858  0.0797  1.4353  0.6144
 7576TIP3    H246924   3.296   0.221  11.842 -0.7180 -1.4070 -0.5596
 7577TIP3   OH246925   2.662   3.385  10.942  0.2544 -0.0615  0.1630
 7577TIP3    H146926   2.596   3.320  10.920  0.5780 -0.6485  0.8759
 7577TIP3    H246927   2.615   3.452  10.992  0.0065  0.0444 -0.2068
 7578TIP3   OH246928   1.832   7.378  10.847 -0.0582 -0.3967 -0.3928
 7578TIP3    H146929   1.849   7.455  10.901  0.7516 -1.4538  0.9251
 7578TIP3    H246930   1.807   7.414  10.762 -1.9142  1.3511  0.7763
 7579TIP3   OH246931   3.260   5.211  10.423 -0.3621 -0.0992  0.0685
 7579TIP3    H146932   3.226   5.125  10.445  0.1444 -0.8994 -2.0047
 7579TIP3    H246933   3.252   5.262  10.503 -2.5088 -1.4669  0.7963
 7580TIP3   OH246934   1.928   1.587  12.591 -0.3061  0.4554 -0.1935
 7580TIP3    H146935   1.880   1.504  12.583  0.3623  0.0086  0.3252
 7580TIP3    H246936   1.970   1.582  12.677 -0.5793  1.5111  0.0161
 7581TIP3   OH246937   4.340   2.684  11.190 -0.0470  0.0377  0.5381
 7581TIP3    H146938   4.259   2.705  11.144 -0.8232 -1.7151  1.0052
 7581TIP3    H246939   4.377   2.769  11.213 -1.2136  0.8978 -0.6027
 7582TIP3   OH246940   0.160   1.471  12.725  0.1404 -0.0431 -0.1772
 7582TIP3    H146941   0.122   1.407  12.665 -0.9974  1.6632 -1.3656
 7582TIP3    H246942   0.094   1.539  12.733  0.9934  0.6456  1.6663
 7583TIP3   OH246943   3.824   1.502  11.750 -0.0828  0.3334  0.3539
 7583TIP3    H146944   3.849   1.482  11.841  0.2105 -1.4816 -0.0741
 7583TIP3    H246945   3.734   1.534  11.757 -0.3523 -0.5544  1.2363
 7584TIP3   OH246946   7.340   6.848  10.934 -0.6849 -0.2758 -0.0954
 7584TIP3    H146947   7.264   6.895  10.899 -0.2660 -0.6293 -1.5703
 7584TIP3    H246948   7.323   6.840  11.028 -2.2258  0.0907 -0.3214
 7585TIP3   OH246949   0.636   0.277  10.735  0.6283 -0.4388  0.1274
 7585TIP3    H146950   0.675   0.340  10.795  1.2507 -0.5182 -0.1946
 7585TIP3    H246951   0.546   0.308  10.723  0.1892 -0.9466  1.8464
 7586TIP3   OH246952   6.861   0.377  11.183  0.0379  0.4459  0.2791
 7586TIP3    H146953   6.887   0.393  11.092 -1.4140  0.4555 -0.1490
 7586TIP3    H246954   6.792   0.311  11.177  1.7994 -1.6853  1.5857
 7587TIP3   OH246955   6.825   4.355  10.921 -0.0631 -0.6394  0.0224
 7587TIP3    H146956   6.767   4.286  10.954  0.5959 -0.9733  0.5040
 7587TIP3    H246957   6.825   4.420  10.991 -0.3354 -0.3539 -0.2421
 7588TIP3   OH246958   2.736   5.678  10.797  0.8974 -0.3525 -0.2626
 7588TIP3    H146959   2.797   5.700  10.867 -0.3171  1.9921  0.1707
 7588TIP3    H246960   2.652   5.712  10.828  0.1601  0.0124 -2.5018
 7589TIP3   OH246961   0.713   0.153  12.405  0.0014  0.1245 -0.1935
 7589TIP3    H146962   0.793   0.198  12.380 -0.9228  1.0717 -1.5397
 7589TIP3    H246963   0.723   0.137  12.499  1.7081  0.2990 -0.3203
 7590TIP3   OH246964   4.917   3.436  12.287  0.0000  0.6416  0.3598
 7590TIP3    H146965   4.953   3.358  12.328 -0.0178  0.8309  0.7322
 7590TIP3    H246966   4.916   3.415  12.193 -0.0855  0.1640  0.4650
 7591TIP3   OH246967   7.518   1.297  11.608 -0.3192  0.4053 -0.3824
 7591TIP3    H146968   7.524   1.203  11.594 -0.3902 -0.0901  2.3463
 7591TIP3    H246969   7.601   1.332  11.575  0.0033 -0.7037 -0.7811
 7592TIP3   OH246970   5.848   4.407  11.743 -0.1441 -0.0115 -0.4813
 7592TIP3    H146971   5.795   4.357  11.805 -1.6329  1.4276 -0.5173
 7592TIP3    H246972   5.915   4.449  11.798 -0.6316  0.2037 -0.0441
 7593TIP3   OH246973   3.134   5.700  12.916 -0.3825  0.5479  0.2989
 7593TIP3    H146974   3.206   5.757  12.887 -1.6205  2.3888  0.6496
 7593TIP3    H246975   3.114   5.732  13.005 -0.9875 -0.6018  0.5890
 7594TIP3   OH246976   6.880   5.638  12.258  0.1340  0.0959  0.2280
 7594TIP3    H146977   6.861   5.729  12.235 -2.1477 -0.6775 -1.2967
 7594TIP3    H246978   6.917   5.600  12.178 -0.3022 -0.6680  0.3742
 7595TIP3   OH246979   7.122   2.799  13.030  0.2461 -0.0182  0.0449
 7595TIP3    H146980   7.125   2.760  13.117 -1.0577  0.4480  0.3175
 7595TIP3    H246981   7.064   2.875  13.040 -0.2839 -0.2205 -1.3297
 7596TIP3   OH246982   0.905   2.234  11.431  0.3712 -0.2916  0.3059
 7596TIP3    H146983   0.926   2.159  11.375 -0.2685  0.1328 -0.5240
 7596TIP3    H246984   0.967   2.302  11.403 -0.0662 -0.0219 -0.0098
 7597TIP3   OH246985   5.202   6.091  12.085  0.9777 -0.2104 -0.4688
 7597TIP3    H146986   5.112   6.092  12.117  1.3717 -0.7693  0.7184
 7597TIP3    H246987   5.226   5.998  12.086  2.0084  0.0446  0.5753
 7598TIP3   OH246988   5.842   1.082  12.087  0.3813 -0.3557 -0.2669
 7598TIP3    H146989   5.826   1.137  12.010 -1.0565 -0.0718  0.2089
 7598TIP3    H246990   5.928   1.108  12.118 -0.3588  1.8188  0.0984
 7599TIP3   OH246991   5.383   4.287  11.433  0.4759 -0.7822 -0.0662
 7599TIP3    H146992   5.344   4.374  11.425  1.9005 -0.1522 -0.3986
 7599TIP3    H246993   5.354   4.240  11.355 -2.0390 -1.3728  1.1136
 7600TIP3   OH246994   6.842   2.276  11.535 -0.3420 -0.2129 -0.0168
 7600TIP3    H146995   6.900   2.340  11.575  0.5788  0.1632 -1.8487
 7600TIP3    H246996   6.754   2.302  11.564  0.1878  0.7055  0.8171
 7601TIP3   OH246997   3.717   4.604  11.555  0.4886  0.2587 -0.4530
 7601TIP3    H146998   3.646   4.540  11.557  0.7171 -0.0613 -1.6149
 7601TIP3    H246999   3.794   4.555  11.586  0.4436  0.2617 -0.3383
 7602TIP3   OH247000   1.941   3.223  12.348 -0.1228  0.2303  0.2165
 7602TIP3    H147001   2.021   3.186  12.386  0.8856  1.7186 -0.3919
 7602TIP3    H247002   1.890   3.252  12.424  0.5071  0.4562  0.5623
 7603TIP3   OH247003   7.065   5.673  11.257  0.2121 -0.2884 -0.3269
 7603TIP3    H147004   7.045   5.618  11.333 -0.5977 -1.0431 -1.0629
 7603TIP3    H247005   7.160   5.684  11.260  0.0860  0.7509  1.4976
 7604TIP3   OH247006   4.677   6.078  11.043  0.3545  0.5741  0.1265
 7604TIP3    H147007   4.591   6.116  11.027  0.6683  1.0047 -0.5916
 7604TIP3    H247008   4.666   5.985  11.021 -0.1117  0.4753  0.7572
 7605TIP3   OH247009   4.156   5.238  12.152  0.6533 -0.2019 -0.3262
 7605TIP3    H147010   4.227   5.289  12.112  0.4361  1.2158  0.9893
 7605TIP3    H247011   4.123   5.294  12.222 -1.6347 -0.9174 -0.7428
 7606TIP3   OH247012   4.752   1.484  10.912 -0.2048 -0.0168  0.0102
 7606TIP3    H147013   4.791   1.473  10.999 -0.2098  2.2022  0.3597
 7606TIP3    H247014   4.739   1.578  10.904 -0.4901 -0.2025 -2.3008
 7607TIP3   OH247015   3.122   1.787  10.494 -0.0501  0.3234  0.8567
 7607TIP3    H147016   3.039   1.783  10.541  0.3312  0.5715  1.5808
 7607TIP3    H247017   3.178   1.841  10.550  0.4222  0.6332  0.1007
 7608TIP3   OH247018   0.349   6.114  10.622 -0.0545  0.2938 -0.2573
 7608TIP3    H147019   0.286   6.142  10.555 -1.2364  0.5138  0.9011
 7608TIP3    H247020   0.413   6.184  10.626 -2.5225  2.6376  2.0410
 7609TIP3   OH247021   5.550   2.095  12.320 -0.2763 -0.5619  0.2630
 7609TIP3    H147022   5.613   2.062  12.384  0.6746  2.6458  1.1664
 7609TIP3    H247023   5.553   2.032  12.249  0.3494 -3.0466  2.3497
 7610TIP3   OH247024   0.216   0.980  12.675  0.1728  0.0777  0.2070
 7610TIP3    H147025   0.175   0.914  12.730  1.8438 -0.7415  0.5092
 7610TIP3    H247026   0.278   1.025  12.732 -1.4518  2.4717  0.2133
 7611TIP3   OH247027   1.977   2.615  11.848 -0.0040  0.2075 -0.4021
 7611TIP3    H147028   1.899   2.671  11.840 -0.7064 -0.8455 -1.1481
 7611TIP3    H247029   1.960   2.561  11.924 -0.0879 -0.1471 -0.6719
 7612TIP3   OH247030   4.831   5.369  12.352 -0.3768  0.1139  0.4981
 7612TIP3    H147031   4.833   5.348  12.445 -0.7833 -0.8311  0.3027
 7612TIP3    H247032   4.903   5.431  12.340  0.4084 -0.6311  1.2322
 7613TIP3   OH247033   6.480   7.523  11.863 -0.1733 -0.1839  0.3199
 7613TIP3    H147034   6.533   7.509  11.784 -1.4560 -3.0933 -0.1362
 7613TIP3    H247035   6.538   7.499  11.935 -0.3260 -1.9059 -0.0843
 7614TIP3   OH247036   6.093   5.971  11.723 -0.1485  0.4965 -0.2206
 7614TIP3    H147037   6.179   5.935  11.703 -0.0301  0.6553 -0.0011
 7614TIP3    H247038   6.033   5.920  11.669 -0.1150 -0.8853  0.9742
 7615TIP3   OH247039   6.266   6.738  11.868 -0.0577  0.5693 -0.2721
 7615TIP3    H147040   6.239   6.830  11.868  1.8973  1.1840 -0.8182
 7615TIP3    H247041   6.188   6.690  11.898 -0.8835  2.4555  0.7673
 7616TIP3   OH247042   1.703   7.142  11.627 -0.2130 -0.4311  0.7972
 7616TIP3    H147043   1.617   7.138  11.669  0.1154 -1.8212  1.4067
 7616TIP3    H247044   1.759   7.185  11.692 -0.0996 -0.9960  1.0834
 7617TIP3   OH247045   6.582   0.651  11.956  0.4175 -0.0876 -0.2158
 7617TIP3    H147046   6.516   0.585  11.979  0.2179 -0.0043 -0.5316
 7617TIP3    H247047   6.662   0.601  11.945  0.2112 -0.3207 -0.7042
 7618TIP3   OH247048   6.053   1.685  10.695 -0.0860  0.2741 -0.0255
 7618TIP3    H147049   6.120   1.658  10.631 -0.6853 -0.9251 -0.1622
 7618TIP3    H247050   6.102   1.732  10.762  0.8810 -0.4684 -0.1939
 7619TIP3   OH247051   5.238   4.561  12.051  0.1415  0.2155 -0.7298
 7619TIP3    H147052   5.330   4.553  12.029  0.4141  1.0464  0.0678
 7619TIP3    H247053   5.225   4.653  12.072 -0.6717 -0.0463  0.0209
 7620TIP3   OH247054   5.430   0.506  11.733 -0.5719 -0.2986  0.5696
 7620TIP3    H147055   5.377   0.584  11.746  0.0303  0.4824 -1.4337
 7620TIP3    H247056   5.513   0.526  11.777  0.0346  0.7262 -0.9808
 7621TIP3   OH247057   0.213   5.604  12.090 -0.1236  0.0913 -0.6522
 7621TIP3    H147058   0.137   5.551  12.111 -0.3917  0.6784 -0.0918
 7621TIP3    H247059   0.280   5.576  12.153 -0.4576  0.8209  0.0480
 7622TIP3   OH247060   7.146   0.860  13.450 -0.5201  0.3749 -0.3737
 7622TIP3    H147061   7.151   0.935  13.390  0.2458 -0.4064 -1.3296
 7622TIP3    H247062   7.090   0.797  13.405 -0.2839 -0.0472 -0.0854
 7623TIP3   OH247063   6.872   4.161  11.978 -0.2835 -0.1029  0.4957
 7623TIP3    H147064   6.899   4.088  11.922 -0.5637 -1.3790  1.9639
 7623TIP3    H247065   6.794   4.197  11.935  0.6723  0.2745 -0.9965
 7624TIP3   OH247066   7.435   3.507  11.142  0.0141 -0.1087 -0.8358
 7624TIP3    H147067   7.447   3.414  11.123  0.9035  0.0253 -0.9756
 7624TIP3    H247068   7.513   3.531  11.192 -1.0172  0.1658  0.7324
 7625TIP3   OH247069   5.939   7.463  11.355  0.2587 -0.3186  0.1611
 7625TIP3    H147070   5.881   7.491  11.284 -0.0927  0.0697  0.5968
 7625TIP3    H247071   5.919   7.522  11.428  0.5213 -0.7926  0.6289
 7626TIP3   OH247072   7.365   3.509  11.573  0.2461  0.1019  0.1404
 7626TIP3    H147073   7.305   3.510  11.648 -0.3696  0.6784 -0.3488
 7626TIP3    H247074   7.320   3.559  11.506  0.6790 -0.6348 -0.7183
 7627TIP3   OH247075   6.279   1.868  12.898 -0.1862 -0.5048 -0.0654
 7627TIP3    H147076   6.215   1.920  12.849  0.4413  1.2532  0.8841
 7627TIP3    H247077   6.265   1.894  12.989 -0.0381 -2.2668  0.4900
 7628TIP3   OH247078   1.181   5.310  12.068  0.2969  0.1281  0.0404
 7628TIP3    H147079   1.202   5.240  12.130  0.5320 -1.0765 -1.3486
 7628TIP3    H247080   1.088   5.300  12.051  0.4518 -0.2456 -0.6187
 7629TIP3   OH247081   4.600   5.070  11.815  0.4168 -0.1189  0.0394
 7629TIP3    H147082   4.620   5.094  11.906  1.3516  0.8357 -0.4011
 7629TIP3    H247083   4.571   4.979  11.821 -0.2979  0.1619  1.3864
 7630TIP3   OH247084   3.537   0.102  12.647  0.0450  0.2352  0.2685
 7630TIP3    H147085   3.504   0.095  12.736 -0.1213 -0.4736  0.1615
 7630TIP3    H247086   3.459   0.111  12.593 -0.0186 -1.3646  0.0229
 7631TIP3   OH247087   0.318   4.415  11.305 -0.0354  0.1576 -0.0848
 7631TIP3    H147088   0.391   4.406  11.367 -0.0932 -1.5701 -0.2358
 7631TIP3    H247089   0.308   4.328  11.267 -0.4751  0.9983 -2.0065
 7632TIP3   OH247090   5.900   0.963  11.391  0.8307  0.1613  0.2583
 7632TIP3    H147091   5.875   0.871  11.391  0.4641  0.2512 -0.4123
 7632TIP3    H247092   5.924   0.981  11.299  0.2783  0.8940  0.2493
 7633TIP3   OH247093   2.831   2.973  12.464 -0.4886 -0.0988 -0.2792
 7633TIP3    H147094   2.862   3.060  12.490 -2.5182  0.6120 -0.0782
 7633TIP3    H247095   2.820   2.925  12.547 -1.7957  0.3431 -0.1745
 7634TIP3   OH247096   6.725   2.527  10.665 -0.2216  0.2821  0.3169
 7634TIP3    H147097   6.738   2.583  10.588 -1.0057  1.3072  0.9015
 7634TIP3    H247098   6.632   2.505  10.663 -0.1522 -0.0579  0.7285
 7635TIP3   OH247099   5.142   2.112  11.447  0.1831 -0.4175  0.2546
 7635TIP3    H147100   5.163   2.024  11.416  0.6574 -0.3665  0.4140
 7635TIP3    H247101   5.047   2.119  11.439  0.0374 -1.2535  1.0467
 7636TIP3   OH247102   4.860   6.422  10.603 -0.3807 -0.5523  0.1599
 7636TIP3    H147103   4.841   6.444  10.512 -2.1191  1.2714  0.8677
 7636TIP3    H247104   4.788   6.366  10.630  0.9226 -2.3592  0.0499
 7637TIP3   OH247105   4.572   0.276  11.571  0.0023  0.0056  0.1653
 7637TIP3    H147106   4.635   0.313  11.511 -1.1561  3.2175  0.7361
 7637TIP3    H247107   4.495   0.333  11.564 -1.8176 -2.1148  1.4673
 7638TIP3   OH247108   2.445   1.991  10.520 -0.3348 -0.2365 -0.2909
 7638TIP3    H147109   2.422   1.987  10.613 -0.3820 -0.6142 -0.3176
 7638TIP3    H247110   2.476   1.903  10.499  0.5009  0.0814 -0.4207
 7639TIP3   OH247111   7.375   5.911  11.760  0.1521  0.0663 -0.1542
 7639TIP3    H147112   7.302   5.864  11.798  0.1886 -1.0605 -1.4165
 7639TIP3    H247113   7.453   5.866  11.794  0.1912 -0.6436 -1.1489
 7640TIP3   OH247114   1.191   3.807  12.243 -0.3110 -0.1224  0.1946
 7640TIP3    H147115   1.230   3.740  12.187 -0.4529  0.0967 -0.1681
 7640TIP3    H247116   1.258   3.874  12.251 -0.5051  0.1246 -0.2029
 7641TIP3   OH247117   2.543   2.931  12.124  0.1317 -0.2891  0.1928
 7641TIP3    H147118   2.500   2.968  12.202 -0.4378 -0.4448 -0.0408
 7641TIP3    H247119   2.592   2.856  12.157 -1.9993 -1.8127  0.0858
 7642TIP3   OH247120   1.631   1.111  10.880  0.0059  0.1697  0.2143
 7642TIP3    H147121   1.645   1.033  10.934  1.9209  0.7493  0.6507
 7642TIP3    H247122   1.575   1.167  10.932  0.6880  0.1227  1.0261
 7643TIP3   OH247123   6.414   5.099  12.550  0.5574  0.5654  0.5394
 7643TIP3    H147124   6.385   5.094  12.459  1.4226 -0.6296  0.2953
 7643TIP3    H247125   6.352   5.157  12.592 -0.6548  0.0771 -0.5119
 7644TIP3   OH247126   4.121   1.563  11.295 -0.0053 -0.0565 -0.4095
 7644TIP3    H147127   4.076   1.547  11.378  0.7490  0.4450  0.1053
 7644TIP3    H247128   4.106   1.656  11.278 -0.5703 -0.2688 -1.0878
 7645TIP3   OH247129   4.181   0.919  12.884 -0.2956  0.1964 -1.0813
 7645TIP3    H147130   4.261   0.871  12.905 -1.2305 -0.3564  1.6437
 7645TIP3    H247131   4.149   0.879  12.803  0.3172 -2.0490 -0.2874
 7646TIP3   OH247132   5.383   0.334  11.144 -0.1897 -0.0816  0.3517
 7646TIP3    H147133   5.305   0.381  11.172  0.0336 -0.4027  1.5826
 7646TIP3    H247134   5.397   0.361  11.053 -0.2202  1.9859  0.9268
 7647TIP3   OH247135   2.785   7.547  11.987  0.9926 -0.2345 -0.2854
 7647TIP3    H147136   2.827   7.468  12.021  1.0105  0.3187  1.0295
 7647TIP3    H247137   2.748   7.520  11.903 -2.1110 -2.6693  1.6543
 7648TIP3   OH247138   5.669   4.575  12.043  0.2055 -0.6161 -0.4592
 7648TIP3    H147139   5.636   4.656  12.081  0.1821  0.1770 -2.0633
 7648TIP3    H247140   5.764   4.583  12.047  0.2055 -0.3929 -0.8040
 7649TIP3   OH247141   0.800   6.728  10.786 -0.7481 -0.2899  0.1267
 7649TIP3    H147142   0.758   6.671  10.722  0.0050  1.4775 -2.0904
 7649TIP3    H247143   0.728   6.757  10.843 -1.2262 -2.8792  0.9687
 7650TIP3   OH247144   7.355   3.732  12.993 -0.2061 -0.1962 -0.1570
 7650TIP3    H147145   7.439   3.717  12.950 -0.0991  0.6986 -0.2817
 7650TIP3    H247146   7.324   3.645  13.018  0.4817 -0.5795 -0.6320
 7651TIP3   OH247147   1.807   4.271  12.783  0.6970 -0.4685 -0.2039
 7651TIP3    H147148   1.871   4.342  12.785 -0.9133  1.0368  0.5448
 7651TIP3    H247149   1.765   4.275  12.869 -1.2017 -0.6303 -1.0826
 7652TIP3   OH247150   7.223   0.146  10.869 -0.3141 -0.1658 -0.3523
 7652TIP3    H147151   7.293   0.210  10.877  0.5576 -1.1187 -0.1157
 7652TIP3    H247152   7.225   0.118  10.778 -0.1619 -0.4205 -0.2743
 7653TIP3   OH247153   1.662   7.514  11.777  0.0279  0.4048 -0.3946
 7653TIP3    H147154   1.582   7.560  11.750 -1.5338 -1.5669  0.6305
 7653TIP3    H247155   1.733   7.572  11.750 -1.7816  2.9911  0.0428
 7654TIP3   OH247156   1.599   7.628  12.062 -0.7229  0.1087  0.4438
 7654TIP3    H147157   1.675   7.594  12.108 -0.6572 -0.1753  0.1288
 7654TIP3    H247158   1.605   7.590  11.975 -0.1784  1.6080 -0.1988
 7655TIP3   OH247159   6.479   3.663  11.338 -0.0270  0.2252  0.1486
 7655TIP3    H147160   6.522   3.588  11.380  0.0641  0.6673  0.8679
 7655TIP3    H247161   6.499   3.737  11.396  0.8761  1.0443 -1.1504
 7656TIP3   OH247162   7.352   5.715  12.002  0.3428  0.1176 -0.1746
 7656TIP3    H147163   7.283   5.669  12.050 -0.2868  1.4659  0.2403
 7656TIP3    H247164   7.432   5.696  12.050 -0.1488  0.7364  0.9125
 7657TIP3   OH247165   3.916   5.720  12.799 -0.0389  0.4267 -0.6974
 7657TIP3    H147166   3.991   5.740  12.856  1.1944 -0.8638 -1.7756
 7657TIP3    H247167   3.902   5.800  12.748  0.3914  0.7973 -0.2383
 7658TIP3   OH247168   6.286   5.707  10.373 -0.9522 -0.2154  0.4523
 7658TIP3    H147169   6.336   5.659  10.439 -0.8539  1.4253  1.6247
 7658TIP3    H247170   6.201   5.664  10.371 -0.8960 -0.4024  1.5413
 7659TIP3   OH247171   3.138   6.453  11.542  0.8441 -0.0710 -0.4368
 7659TIP3    H147172   3.060   6.413  11.579  0.6163  0.5995 -0.1878
 7659TIP3    H247173   3.206   6.386  11.550  1.0871  0.3940  2.1410
 7660TIP3   OH247174   3.080   3.652  10.772 -0.1838 -0.2464  0.1967
 7660TIP3    H147175   3.118   3.735  10.744  0.1933 -0.9991 -1.6078
 7660TIP3    H247176   3.000   3.678  10.818  0.1398  1.1326  0.0382
 7661TIP3   OH247177   7.459   0.244  11.662  0.0530  0.1339 -0.4133
 7661TIP3    H147178   7.520   0.177  11.631  0.4293 -0.6298  1.8113
 7661TIP3    H247179   7.373   0.210  11.638  0.3723  0.6404 -2.4890
 7662TIP3   OH247180   0.423   5.122  10.799 -0.2158 -0.3125  0.4607
 7662TIP3    H147181   0.486   5.055  10.771  1.2537  0.6066  1.4134
 7662TIP3    H247182   0.344   5.103  10.749  0.6370 -1.8548 -0.3791
 7663TIP3   OH247183   6.209   5.956  12.135  0.4455  0.4795  0.1849
 7663TIP3    H147184   6.212   6.031  12.195  3.2933  1.8757 -1.5304
 7663TIP3    H247185   6.133   5.975  12.079 -0.0081  1.0710  0.9618
 7664TIP3   OH247186   6.190   1.835  12.491 -0.9112 -0.0112  0.1918
 7664TIP3    H147187   6.269   1.829  12.437 -1.2227 -0.3706 -0.2366
 7664TIP3    H247188   6.203   1.769  12.560 -0.6826  0.1760  0.3276
 7665TIP3   OH247189   3.893   6.517  11.625 -0.0926 -0.1577  0.0027
 7665TIP3    H147190   3.873   6.423  11.625 -2.2107  0.2455 -0.7981
 7665TIP3    H247191   3.879   6.544  11.534 -1.1839  1.2318  0.5456
 7666TIP3   OH247192   6.928   0.983  10.825  0.0749 -0.1187  0.1012
 7666TIP3    H147193   6.855   1.001  10.765  0.9374 -0.0833 -0.9646
 7666TIP3    H247194   6.990   0.932  10.773  1.5278  1.1826  0.4737
 7667TIP3   OH247195   6.215   4.216  11.404  0.1423  0.4815 -0.0125
 7667TIP3    H147196   6.195   4.263  11.323 -2.0518  0.2032  0.2954
 7667TIP3    H247197   6.148   4.245  11.466  1.1818 -0.0550  1.4175
 7668TIP3   OH247198   5.169   3.466  11.550  0.3859 -0.6273  0.1469
 7668TIP3    H147199   5.218   3.547  11.533  0.2784 -0.4223  0.8017
 7668TIP3    H247200   5.102   3.465  11.482  1.4303 -1.0360 -0.9204
 7669TIP3   OH247201   1.447   1.884  10.140 -0.2973  0.1773  0.5183
 7669TIP3    H147202   1.448   1.893  10.045 -2.6224  0.2273  0.4223
 7669TIP3    H247203   1.508   1.950  10.172 -0.0473  0.6693 -0.9213
 7670TIP3   OH247204   1.809   6.684  13.228  0.4462 -0.1846 -0.3394
 7670TIP3    H147205   1.800   6.764  13.177  0.6250 -0.8385 -1.4335
 7670TIP3    H247206   1.903   6.671  13.238  0.4127  0.4334  0.9933
 7671TIP3   OH247207   5.792   2.073  11.553  0.6079 -0.0993 -0.2132
 7671TIP3    H147208   5.767   1.983  11.534  0.4693  0.5826 -4.1781
 7671TIP3    H247209   5.885   2.069  11.573  0.4862 -1.1559  0.1572
 7672TIP3   OH247210   7.393   2.342  12.076 -0.5940  0.8480  0.3568
 7672TIP3    H147211   7.487   2.337  12.095 -0.4470  1.7260 -0.0591
 7672TIP3    H247212   7.360   2.405  12.139 -1.1123 -0.2281  1.1840
 7673TIP3   OH247213   4.760   4.893  12.705  0.6065  0.1707  0.7306
 7673TIP3    H147214   4.745   4.850  12.790 -0.8717 -1.2366 -0.1701
 7673TIP3    H247215   4.738   4.985  12.720 -2.5040 -0.5295  1.2652
 7674TIP3   OH247216   4.514   6.855  10.852  0.0666  0.0098 -0.1413
 7674TIP3    H147217   4.497   6.814  10.767 -1.7572 -0.7233  0.5301
 7674TIP3    H247218   4.552   6.941  10.830  0.1052 -0.3647 -1.6645
 7675TIP3   OH247219   3.176   0.524  11.600 -0.1333 -0.1349  0.1981
 7675TIP3    H147220   3.156   0.603  11.649  0.2618 -0.2365  0.5203
 7675TIP3    H247221   3.219   0.466  11.663 -0.7987 -0.7712  0.0792
 7676TIP3   OH247222   7.228   6.079  10.871  0.4647  0.2832 -0.4198
 7676TIP3    H147223   7.301   6.133  10.901 -0.0882  0.3857  0.7970
 7676TIP3    H247224   7.269   5.996  10.846  0.8863 -0.1953  1.6366
 7677TIP3   OH247225   5.460   0.216  12.097  0.0282  0.0273 -0.6654
 7677TIP3    H147226   5.541   0.207  12.046  0.2353 -0.3288 -0.2833
 7677TIP3    H247227   5.396   0.249  12.034  0.8307  1.7551 -0.6399
 7678TIP3   OH247228   1.781   1.884  10.632  0.9894 -0.3119 -0.3893
 7678TIP3    H147229   1.721   1.957  10.644  1.1566 -0.3422  0.7774
 7678TIP3    H247230   1.836   1.885  10.710  0.7943 -1.8596 -0.1974
 7679TIP3   OH247231   4.991   3.536  11.346 -0.2959  0.1134  0.5011
 7679TIP3    H147232   5.018   3.533  11.255  0.5729 -0.2909  0.7606
 7679TIP3    H247233   4.973   3.629  11.364 -0.7672  0.1526 -0.1536
 7680TIP3   OH247234   6.763   3.978  12.433 -0.2712  0.6110 -0.4571
 7680TIP3    H147235   6.776   4.062  12.479 -1.3663  1.0926 -1.0065
 7680TIP3    H247236   6.769   4.001  12.340 -1.8718  0.3182 -0.6498
 7681TIP3   OH247237   0.189   0.530  10.869  0.8315  0.8217  0.1372
 7681TIP3    H147238   0.153   0.546  10.782  0.8046  0.8999  0.1634
 7681TIP3    H247239   0.230   0.613  10.894  1.6952  0.5170 -0.2114
 7682TIP3   OH247240   3.251   0.020  10.430 -0.3515  0.0840 -0.5286
 7682TIP3    H147241   3.258  -0.069  10.464 -3.3295 -0.2564 -0.4904
 7682TIP3    H247242   3.181   0.060  10.483 -1.7356  1.1355 -2.9919
 7683TIP3   OH247243   3.403   0.906  11.061  0.1633 -0.4114 -0.3515
 7683TIP3    H147244   3.445   0.833  11.016 -1.1888 -1.1149 -0.5037
 7683TIP3    H247245   3.368   0.869  11.141  1.3873  0.5621  0.6817
 7684TIP3   OH247246   4.706   1.967  10.501  0.6482  0.4544 -0.8013
 7684TIP3    H147247   4.801   1.975  10.496  1.0367 -0.8712  2.2328
 7684TIP3    H247248   4.688   1.883  10.458  1.0960 -0.0326 -0.0855
 7685TIP3   OH247249   7.331   5.781  10.908  0.8491  0.0454 -0.1625
 7685TIP3    H147250   7.318   5.698  10.952 -1.7281 -0.2781 -1.3178
 7685TIP3    H247251   7.243   5.807  10.880  2.1274  0.5177 -4.4830
 7686TIP3   OH247252   4.101   3.849  10.633 -0.1452  0.0234  0.1170
 7686TIP3    H147253   4.113   3.902  10.554 -1.4554 -0.1726 -0.2358
 7686TIP3    H247254   4.163   3.885  10.696  0.4186  0.6430 -0.7684
 7687TIP3   OH247255   2.194   5.303  13.288 -0.9113  0.0417  0.0534
 7687TIP3    H147256   2.133   5.265  13.225 -0.3031  0.3579 -0.7317
 7687TIP3    H247257   2.147   5.379  13.323 -1.6987 -0.7663  0.8416
 7688TIP3   OH247258   6.435   4.646  11.626  0.5522  0.3389 -0.0533
 7688TIP3    H147259   6.409   4.566  11.582 -0.1315 -0.5569  1.8560
 7688TIP3    H247260   6.434   4.713  11.557 -2.8688 -0.4459 -0.9719
 7689TIP3   OH247261   0.651   0.963  12.590 -0.4662 -0.4354 -0.0099
 7689TIP3    H147262   0.651   0.942  12.496  2.2540 -1.3923  0.1257
 7689TIP3    H247263   0.732   1.010  12.604 -0.4475 -0.9939  2.0145
 7690TIP3   OH247264   2.095   4.505  12.422 -0.6062  0.2774 -0.0267
 7690TIP3    H147265   2.040   4.524  12.498 -0.9478  2.6939 -0.7847
 7690TIP3    H247266   2.165   4.571  12.427 -0.0296 -0.2231 -1.2152
 7691TIP3   OH247267   3.597   5.704  11.202  0.0078 -0.2889 -0.2837
 7691TIP3    H147268   3.691   5.706  11.187  0.5272 -1.3077  2.3389
 7691TIP3    H247269   3.575   5.611  11.203 -0.7433 -0.1159  0.4976
 7692TIP3   OH247270   0.058   7.409  10.906 -0.1830 -0.0765 -0.1855
 7692TIP3    H147271   0.065   7.495  10.947 -0.3819  0.7567 -1.8578
 7692TIP3    H247272  -0.019   7.370  10.948 -1.2490  1.3315 -0.7553
 7693TIP3   OH247273   2.052   3.530  18.919  0.3203  0.0156 -0.0478
 7693TIP3    H147274   1.990   3.591  18.879 -1.0010 -0.7122  0.8414
 7693TIP3    H247275   2.073   3.468  18.849 -0.2287  0.0596 -0.2536
 7694TIP3   OH247276   4.103   0.942  13.203  0.0778 -0.4172  0.4661
 7694TIP3    H147277   4.163   1.016  13.200 -1.6798  1.0856  0.9017
 7694TIP3    H247278   4.096   0.913  13.112 -1.1875  1.6367 -0.1351
 7695TIP3   OH247279   3.524   3.233  11.447  0.6000  0.0617  0.1802
 7695TIP3    H147280   3.432   3.231  11.473  0.5182 -0.2657 -0.1250
 7695TIP3    H247281   3.522   3.237  11.352  0.8997  0.8492  0.1926
 7696TIP3   OH247282   2.495   7.445  10.711 -0.2296 -0.6473 -0.1491
 7696TIP3    H147283   2.429   7.410  10.652 -1.0213  0.2473  0.1911
 7696TIP3    H247284   2.514   7.372  10.771 -1.7530 -0.5688  0.4735
 7697TIP3   OH247285   4.481   0.716  11.194  0.2203  0.2361 -0.3067
 7697TIP3    H147286   4.443   0.749  11.113  2.5132  1.9246 -0.8096
 7697TIP3    H247287   4.407   0.705  11.253 -1.4624 -0.7393 -2.4907
 7698TIP3   OH247288   5.471   6.165  10.958  0.0926 -0.2470  0.2915
 7698TIP3    H147289   5.490   6.250  10.919 -1.3854 -0.0204 -0.0117
 7698TIP3    H247290   5.549   6.113  10.942  0.6756  0.7781 -0.3120
 7699TIP3   OH247291   0.427   2.681  11.803 -0.7511 -0.4443  0.2776
 7699TIP3    H147292   0.355   2.743  11.798 -1.2786 -0.9628  1.1797
 7699TIP3    H247293   0.498   2.723  11.754 -1.4199  0.3994  0.0028
 7700TIP3   OH247294   1.887   3.457  11.291 -0.0053 -0.0358  0.1661
 7700TIP3    H147295   1.901   3.509  11.370 -1.5980 -0.0300  0.4773
 7700TIP3    H247296   1.923   3.509  11.220  0.9618  0.2006  0.8160
 7701TIP3   OH247297   1.405   1.718  10.770 -0.0172  0.4791 -0.3119
 7701TIP3    H147298   1.434   1.701  10.680  1.9519 -0.2076  0.3838
 7701TIP3    H247299   1.471   1.778  10.805  0.2466 -0.6140  1.1742
 7702TIP3   OH247300   3.504   3.631  10.546  0.2103  0.2239  0.5875
 7702TIP3    H147301   3.531   3.710  10.500  1.3180  0.2420  1.2186
 7702TIP3    H247302   3.510   3.561  10.481  1.1913  0.3431  0.5288
 7703TIP3   OH247303   7.034   2.830  11.189  0.8637  0.3183  0.6034
 7703TIP3    H147304   7.088   2.909  11.178 -1.3067  1.7706 -0.6077
 7703TIP3    H247305   7.076   2.764  11.134  1.9080  1.1272  0.4076
 7704TIP3   OH247306   4.763   7.640  12.627  0.4645 -0.0575  0.3913
 7704TIP3    H147307   4.693   7.665  12.687  0.2726  2.4566 -0.7516
 7704TIP3    H247308   4.717   7.612  12.548  0.7612 -1.3312  0.6353
 7705TIP3   OH247309   6.944   2.553  13.147  0.2362 -0.0559 -0.3610
 7705TIP3    H147310   6.876   2.606  13.106 -0.0467 -2.0118 -2.6110
 7705TIP3    H247311   6.899   2.473  13.174  1.3474 -0.7803 -0.5758
 7706TIP3   OH247312   6.571   0.164  11.839 -0.5688  0.0017 -0.1739
 7706TIP3    H147313   6.648   0.148  11.894 -0.2438 -0.2543 -0.6942
 7706TIP3    H247314   6.524   0.080  11.840 -0.2473 -0.1887 -0.7695
 7707TIP3   OH247315   4.335   0.081  12.432  0.0366  0.2038  0.0505
 7707TIP3    H147316   4.398   0.009  12.427  0.6947  0.8151 -1.1027
 7707TIP3    H247317   4.271   0.053  12.497  1.6355 -0.3402  1.4873
 7708TIP3   OH247318   4.517   7.009  12.691 -0.5484 -0.5382  0.3980
 7708TIP3    H147319   4.537   7.092  12.735 -2.0719 -0.5415  1.1509
 7708TIP3    H247320   4.443   6.973  12.740  0.6457 -2.8052  0.6624
 7709TIP3   OH247321   0.738   3.512  13.021  0.4300 -0.3172 -0.2362
 7709TIP3    H147322   0.748   3.467  13.105  1.4386 -0.4374 -0.4152
 7709TIP3    H247323   0.826   3.541  12.998 -0.3374  3.1942  0.6345
 7710TIP3   OH247324   6.545   4.962  11.250 -0.4275  0.4514  0.1870
 7710TIP3    H147325   6.474   5.020  11.225  0.9522  2.2311  0.2080
 7710TIP3    H247326   6.528   4.881  11.201 -2.5855  0.6965  0.4408
 7711TIP3   OH247327   7.167   1.311  13.123  0.3065 -0.2332  0.4745
 7711TIP3    H147328   7.197   1.402  13.114  2.5539 -0.8463  1.0885
 7711TIP3    H247329   7.207   1.265  13.050  0.7041 -1.0693  1.2000
 7712TIP3   OH247330   2.565   6.911  10.743  0.3636 -0.1631  0.1907
 7712TIP3    H147331   2.525   6.835  10.701 -1.0502  0.3858  0.4801
 7712TIP3    H247332   2.569   6.977  10.675 -0.5865  0.2535  0.5249
 7713TIP3   OH247333   3.959   1.632  10.367 -0.3523 -0.1472  0.7964
 7713TIP3    H147334   3.953   1.608  10.460 -0.5159 -4.2602 -0.0902
 7713TIP3    H247335   3.898   1.572  10.323 -1.0924  2.3872 -1.9588
 7714TIP3   OH247336   4.268   4.898  11.962 -0.2057 -0.1484 -0.3510
 7714TIP3    H147337   4.187   4.921  12.007 -1.1463 -1.4204 -1.3244
 7714TIP3    H247338   4.275   4.960  11.890  0.1495  0.4958  0.2268
 7715TIP3   OH247339   0.149   6.252  12.062 -0.7497 -0.4279 -0.0288
 7715TIP3    H147340   0.123   6.255  12.154 -0.6613  0.9990 -0.0244
 7715TIP3    H247341   0.137   6.342  12.031  0.5772 -0.5666 -1.0232
 7716TIP3   OH247342   3.118   4.292  11.992 -0.0571  0.4528 -0.1714
 7716TIP3    H147343   3.081   4.255  11.912  0.6202  0.8306 -0.6754
 7716TIP3    H247344   3.053   4.355  12.022  0.6266  2.0117 -1.7172
 7717TIP3   OH247345   6.261   6.350  11.723 -0.0561 -0.0509  0.0226
 7717TIP3    H147346   6.219   6.429  11.691  0.5580  0.0218 -0.6350
 7717TIP3    H247347   6.315   6.320  11.650 -0.6921 -1.3813  0.0555
 7718TIP3   OH247348   3.433   4.772  10.998 -0.4276 -0.2245 -0.2436
 7718TIP3    H147349   3.452   4.765  10.905  0.6486 -0.1012 -0.0413
 7718TIP3    H247350   3.468   4.692  11.036  2.7991  1.4431  0.6051
 7719TIP3   OH247351   3.371   0.736  13.409 -0.2225  0.7341  0.1352
 7719TIP3    H147352   3.344   0.785  13.331  1.1695  1.8897  0.3349
 7719TIP3    H247353   3.459   0.770  13.429 -0.5560  0.4764  2.2267
 7720TIP3   OH247354   4.785   7.083  11.130 -0.2920  0.0208 -0.3003
 7720TIP3    H147355   4.865   7.055  11.087  0.8309 -1.4784  2.4982
 7720TIP3    H247356   4.728   7.112  11.059  2.5188  0.7326 -2.4328
 7721TIP3   OH247357   0.589   5.556  11.561 -0.8144 -0.1203 -0.0379
 7721TIP3    H147358   0.572   5.549  11.655  0.3248  2.2315  0.4101
 7721TIP3    H247359   0.684   5.558  11.553 -0.8916 -0.2847 -1.2607
 7722TIP3   OH247360   6.209   1.169  11.905  0.1138  0.2631  0.4936
 7722TIP3    H147361   6.176   1.095  11.957 -0.2837 -0.0616 -0.2050
 7722TIP3    H247362   6.133   1.227  11.896 -1.2082 -1.7203 -3.3621
 7723TIP3   OH247363   7.186   1.385  12.126  0.1777  0.2163  0.5255
 7723TIP3    H147364   7.159   1.412  12.038 -0.5911 -1.3388  0.2572
 7723TIP3    H247365   7.202   1.467  12.172  0.1708  1.0716 -0.9282
 7724TIP3   OH247366   1.227   3.367  10.511 -0.4162  0.6133 -0.0728
 7724TIP3    H147367   1.159   3.429  10.482 -0.7049 -0.6652 -2.3219
 7724TIP3    H247368   1.278   3.349  10.433 -0.5655 -2.2669  0.3881
 7725TIP3   OH247369   2.892   3.972  10.801 -1.1426  0.5688  0.8520
 7725TIP3    H147370   2.824   3.957  10.735 -0.7905  0.3373  0.5453
 7725TIP3    H247371   2.974   3.947  10.759 -1.0387 -0.6966  1.7574
 7726TIP3   OH247372   1.009   0.177  10.276  0.1123 -0.0480 -0.5656
 7726TIP3    H147373   1.027   0.194  10.184 -0.6754 -0.5132 -0.8215
 7726TIP3    H247374   1.051   0.093  10.294  2.0112  0.9890  0.0697
 7727TIP3   OH247375   3.220   5.600  12.069 -0.0842  0.4490  0.0365
 7727TIP3    H147376   3.154   5.613  12.001 -1.0691  1.2017  1.0959
 7727TIP3    H247377   3.226   5.505  12.080  0.2236  0.3095 -1.2030
 7728TIP3   OH247378   4.374   5.371  12.085 -0.1853  0.0782  0.0410
 7728TIP3    H147379   4.456   5.389  12.130  0.3691  1.0052 -1.2662
 7728TIP3    H247380   4.400   5.345  11.996 -1.2430 -1.3344  0.1037
 7729TIP3   OH247381   4.135   1.862  11.158  0.2159  0.1479  0.8330
 7729TIP3    H147382   4.168   1.841  11.070 -1.0350 -0.8798  0.5819
 7729TIP3    H247383   4.080   1.939  11.146  0.1652  0.0968  0.7342
 7730TIP3   OH247384   5.961   0.139  10.666 -0.0314  0.1254  0.1952
 7730TIP3    H147385   6.001   0.207  10.720 -1.3330 -0.1264  1.5647
 7730TIP3    H247386   5.919   0.187  10.594  0.9170  0.5528 -0.0898
 7731TIP3   OH247387   3.837   4.003  11.521 -0.5327  0.2111  0.2451
 7731TIP3    H147388   3.917   3.984  11.471 -0.9771  0.7216 -0.6784
 7731TIP3    H247389   3.860   3.981  11.611  0.1645 -1.1394 -0.2216
 7732TIP3   OH247390   1.970   1.225  13.047 -0.2360 -0.2283  0.3976
 7732TIP3    H147391   1.923   1.191  13.124 -1.8361 -0.5776 -0.6856
 7732TIP3    H247392   2.000   1.312  13.074  0.4471 -0.8707  1.8641
 7733TIP3   OH247393   2.605   7.300  10.446  0.9869 -0.2029  0.3584
 7733TIP3    H147394   2.666   7.365  10.413  0.8522 -1.2939 -2.2376
 7733TIP3    H247395   2.521   7.322  10.405  0.6596 -1.2887  0.4156
 7734TIP3   OH247396   0.064   1.744  10.794 -0.6117  0.0137  0.6028
 7734TIP3    H147397   0.008   1.765  10.868 -0.8553  1.6751 -0.0134
 7734TIP3    H247398   0.028   1.794  10.721  0.1509 -0.8942 -0.4405
 7735TIP3   OH247399   6.890   3.797  11.370  0.4223  0.3145  0.6660
 7735TIP3    H147400   6.839   3.873  11.396 -0.2125  0.3245 -0.5492
 7735TIP3    H247401   6.861   3.727  11.429 -1.6325  0.1068 -0.4974
 7736TIP3   OH247402   1.450   0.877  11.022 -0.2097 -0.6353  0.3528
 7736TIP3    H147403   1.451   0.799  10.967  0.7198 -0.6028  0.3139
 7736TIP3    H247404   1.508   0.857  11.095  1.6579  0.7311 -0.6824
 7737TIP3   OH247405   5.781   6.243  10.637 -0.2840  0.4827  0.3692
 7737TIP3    H147406   5.804   6.289  10.557 -0.6103  1.7094  0.9504
 7737TIP3    H247407   5.699   6.285  10.666  1.2481  2.0501  2.8239
 7738TIP3   OH247408   1.146   1.659  12.741  0.9131 -0.3320 -0.2353
 7738TIP3    H147409   1.184   1.747  12.744 -0.9063  0.4785  0.3666
 7738TIP3    H247410   1.137   1.633  12.832  1.4429 -1.1691 -0.4108
 7739TIP3   OH247411   3.042   5.850  12.248 -0.6228 -0.4136 -0.1084
 7739TIP3    H147412   3.052   5.892  12.334 -0.4229 -0.0923 -0.2856
 7739TIP3    H247413   3.021   5.759  12.268 -0.7930 -0.2890  0.2825
 7740TIP3   OH247414   0.431   1.556  12.350 -0.8197  0.0269 -0.6332
 7740TIP3    H147415   0.479   1.525  12.273 -0.7006  0.1156 -0.5942
 7740TIP3    H247416   0.451   1.649  12.355  0.2096 -0.2229  0.2506
 7741TIP3   OH247417   0.474   2.346  11.521  0.5867 -0.6418 -0.2041
 7741TIP3    H147418   0.487   2.435  11.490 -0.0785 -0.8916 -1.2454
 7741TIP3    H247419   0.531   2.292  11.466 -0.7822 -1.1159 -1.2212
 7742TIP3   OH247420   4.322   6.381  11.157  0.5998  0.0491  0.1303
 7742TIP3    H147421   4.293   6.420  11.075  0.9447 -0.5830 -0.3006
 7742TIP3    H247422   4.403   6.427  11.178  0.4820  0.2498  0.1529
 7743TIP3   OH247423   6.902   1.425  10.994  0.4622 -0.5760 -0.3678
 7743TIP3    H147424   6.873   1.479  11.067  1.5854  1.9091 -1.6761
 7743TIP3    H247425   6.958   1.358  11.033 -0.6213 -0.5986  1.2289
 7744TIP3   OH247426   0.911   5.643  12.140 -0.0832 -0.4785  0.5358
 7744TIP3    H147427   0.946   5.719  12.187 -1.7608  0.2235  0.7179
 7744TIP3    H247428   0.930   5.569  12.198  0.6500 -0.0611  0.8451
 7745TIP3   OH247429   7.293   6.880  11.871 -0.1808  0.4365  0.7973
 7745TIP3    H147430   7.347   6.939  11.923  0.2018  0.3918  0.4566
 7745TIP3    H247431   7.309   6.793  11.908  1.0813  0.2175 -0.1779
 7746TIP3   OH247432   7.018   6.997  11.985  0.7251 -0.2825  0.1678
 7746TIP3    H147433   7.043   6.979  12.075  2.8081 -1.9031 -0.6377
 7746TIP3    H247434   6.980   6.915  11.953 -2.0777  0.9320  0.1366
 7747TIP3   OH247435   5.792   1.498  11.254  0.1516 -0.3636 -0.0911
 7747TIP3    H147436   5.841   1.506  11.335 -0.9010  0.2187  0.5183
 7747TIP3    H247437   5.815   1.412  11.220  1.8744  0.0396 -0.0434
 7748TIP3   OH247438   0.491   2.970  11.591 -0.0489  1.1345 -0.4679
 7748TIP3    H147439   0.430   3.007  11.655 -0.0634  2.2852 -1.1149
 7748TIP3    H247440   0.435   2.925  11.528  0.0092 -0.6113  0.6712
 7749TIP3   OH247441   5.904   4.723  11.445 -0.4112  0.0192 -0.5174
 7749TIP3    H147442   5.889   4.797  11.387 -0.2159 -0.5144 -1.2692
 7749TIP3    H247443   5.920   4.762  11.531 -1.2079  0.8035 -0.7084
 7750TIP3   OH247444   0.192   1.823  11.108  0.7662  0.0447  0.0595
 7750TIP3    H147445   0.220   1.903  11.154  0.8931 -0.5670  1.0770
 7750TIP3    H247446   0.099   1.838  11.089  1.0322  0.8508 -0.6829
 7751TIP3   OH247447   5.785   5.377  11.092  0.0578  0.5010  0.1903
 7751TIP3    H147448   5.862   5.324  11.068 -0.2301  0.5918 -0.9969
 7751TIP3    H247449   5.802   5.404  11.182 -0.4981 -2.9517  1.5165
 7752TIP3   OH247450   0.464   2.723  10.276 -0.7631  0.2667  0.1276
 7752TIP3    H147451   0.500   2.700  10.191 -0.4047  0.3535  0.2533
 7752TIP3    H247452   0.369   2.714  10.266 -0.9787  2.8822 -1.0938
 7753TIP3   OH247453   2.727   2.680  11.749 -0.5564  0.7906  0.3588
 7753TIP3    H147454   2.648   2.644  11.788  0.0753  0.0322  0.9775
 7753TIP3    H247455   2.747   2.758  11.802  0.0137  0.0522  1.2564
 7754TIP3   OH247456   2.814   0.330  11.402 -0.1923  0.3942  0.1489
 7754TIP3    H147457   2.803   0.260  11.466  0.3010  1.2043  1.1404
 7754TIP3    H247458   2.903   0.318  11.368  0.2090  1.0404  0.9491
 7755TIP3   OH247459   2.654   5.298  11.949 -0.3820  0.1408  0.4981
 7755TIP3    H147460   2.599   5.220  11.937 -0.5737  0.1406  1.3328
 7755TIP3    H247461   2.738   5.264  11.981  0.3531  0.0838 -1.3534
 7756TIP3   OH247462   4.485   0.259  12.104  0.2190 -0.4971  0.2460
 7756TIP3    H147463   4.499   0.345  12.144  2.3719 -1.6680  2.1926
 7756TIP3    H247464   4.514   0.270  12.013  0.2533  0.8750  0.4052
 7757TIP3   OH247465   2.559   5.168  11.282  0.4456 -0.1173 -0.3313
 7757TIP3    H147466   2.645   5.184  11.244  0.2364 -0.8385 -1.1354
 7757TIP3    H247467   2.520   5.255  11.292  0.3849  0.0934 -2.0777
 7758TIP3   OH247468   2.168   3.159  12.080  0.1410 -0.3379  0.1954
 7758TIP3    H147469   2.137   3.111  12.157 -1.4011  0.4749  0.1205
 7758TIP3    H247470   2.258   3.183  12.102  0.3571 -1.7099  0.9592
 7759TIP3   OH247471   4.637   6.426  11.663  0.2059  0.6246 -0.4542
 7759TIP3    H147472   4.675   6.428  11.575 -1.9316  1.0193 -1.4251
 7759TIP3    H247473   4.614   6.518  11.680 -1.0518  0.2948 -0.2797
 7760TIP3   OH247474   5.041   0.203  10.539 -0.5741 -0.3614 -0.1323
 7760TIP3    H147475   4.993   0.120  10.536 -1.5860  0.2272 -0.3811
 7760TIP3    H247476   4.974   0.270  10.550  0.3891  0.2717  2.5537
 7761TIP3   OH247477   5.023   0.905  12.010 -0.4285 -0.4500 -0.9379
 7761TIP3    H147478   4.984   0.818  12.010  0.7247 -1.0069  0.9310
 7761TIP3    H247479   5.069   0.912  12.093  0.6712  1.4396 -1.6292
 7762TIP3   OH247480   2.450   5.535  10.819 -0.7307  0.2688 -0.3220
 7762TIP3    H147481   2.510   5.515  10.747 -0.5034  0.1311 -0.0950
 7762TIP3    H247482   2.503   5.529  10.898 -0.5996  2.0374 -0.2546
 7763TIP3   OH247483   1.980   7.155  10.566  0.1162 -0.0953 -0.2218
 7763TIP3    H147484   1.968   7.078  10.621  0.4154  0.3923  0.5393
 7763TIP3    H247485   1.897   7.202  10.573  0.1733 -0.0057 -0.1538
 7764TIP3   OH247486   4.331   2.737  10.503  0.4659 -0.1295  0.1140
 7764TIP3    H147487   4.237   2.758  10.506  0.5410  0.5236 -1.4212
 7764TIP3    H247488   4.349   2.722  10.411  1.7828 -0.7731  0.4585
 7765TIP3   OH247489   6.199   7.656  11.368  0.4793  0.3674 -0.6768
 7765TIP3    H147490   6.178   7.571  11.408 -0.3739  1.7458  2.0167
 7765TIP3    H247491   6.219   7.635  11.277 -2.5430 -2.3970 -0.8798
 7766TIP3   OH247492   1.399   1.338  12.656 -0.3242  0.2339  0.4524
 7766TIP3    H147493   1.448   1.274  12.708 -1.2352 -0.6760  0.2234
 7766TIP3    H247494   1.308   1.307  12.659 -0.6489  1.0558 -0.3604
 7767TIP3   OH247495   1.319   2.201  13.288 -0.3539  0.1749  0.3418
 7767TIP3    H147496   1.237   2.181  13.243  0.3493 -0.0619 -0.8667
 7767TIP3    H247497   1.315   2.296  13.303 -1.1468  0.0633  0.9495
 7768TIP3   OH247498   2.398   6.341  12.961 -0.0719  0.3377 -0.5346
 7768TIP3    H147499   2.431   6.426  12.991 -0.2499  0.6879 -1.2890
 7768TIP3    H247500   2.312   6.332  13.001  0.1075  0.3404 -0.1495
 7769TIP3   OH247501   2.936   6.938  12.390  0.2512  0.2155 -0.3801
 7769TIP3    H147502   2.914   6.983  12.309  0.9578  0.4331 -0.4521
 7769TIP3    H247503   2.973   7.006  12.446  0.8240 -0.1663 -0.2922
 7770TIP3   OH247504   1.476   5.060  10.739  0.1123  0.0531  0.7303
 7770TIP3    H147505   1.511   5.082  10.825  0.9397  0.9833  0.1741
 7770TIP3    H247506   1.546   5.084  10.678 -0.8237  0.3122 -0.2712
 7771TIP3   OH247507   2.509   1.351  10.348  0.4683 -0.8408  0.1306
 7771TIP3    H147508   2.456   1.274  10.370 -2.5370  1.6582  2.5465
 7771TIP3    H247509   2.450   1.408  10.300  1.6581  1.1545  0.9124
 7772TIP3   OH247510   3.242   1.767  11.414  0.2743 -0.4520 -0.1590
 7772TIP3    H147511   3.257   1.704  11.483  1.7799  0.4545  0.3939
 7772TIP3    H247512   3.236   1.715  11.334  0.6915 -1.3390  0.3818
 7773TIP3   OH247513   0.792   1.818  11.410  0.5835  0.2704 -0.2771
 7773TIP3    H147514   0.859   1.835  11.476  0.9548 -1.8334 -0.0243
 7773TIP3    H247515   0.783   1.722  11.410 -3.4900  0.4652  0.7482
 7774TIP3   OH247516   2.327   2.969  11.280  0.0317  0.3322  0.5691
 7774TIP3    H147517   2.296   3.014  11.359  0.1790  1.3310  0.0678
 7774TIP3    H247518   2.420   2.989  11.276 -0.2028  1.2620 -0.4890
 7775TIP3   OH247519   1.570   1.430  10.439  0.4697 -0.2408  0.0130
 7775TIP3    H147520   1.612   1.450  10.355  1.2964  0.2494  0.5222
 7775TIP3    H247521   1.624   1.361  10.477  0.0190 -0.5586  0.0824
 7776TIP3   OH247522   2.211   5.342  12.210  0.2575 -0.0908  0.4280
 7776TIP3    H147523   2.298   5.309  12.233  0.1744 -1.7043 -1.2619
 7776TIP3    H247524   2.215   5.435  12.229  2.2030 -0.1995  0.8298
 7777TIP3   OH247525   5.797   2.309  10.831  0.2809  0.2409 -0.8622
 7777TIP3    H147526   5.775   2.377  10.768  1.7685  0.5916 -1.0421
 7777TIP3    H247527   5.796   2.228  10.780 -0.8431  0.1964 -0.7927
 7778TIP3   OH247528   2.600   0.199  12.955  0.2853  0.1919 -0.2831
 7778TIP3    H147529   2.557   0.161  12.878  1.6996  0.2570 -1.1481
 7778TIP3    H247530   2.547   0.172  13.029 -0.5993 -0.6523 -1.2085
 7779TIP3   OH247531   4.070   3.878  11.395 -0.8411  0.3226 -0.2245
 7779TIP3    H147532   4.107   3.863  11.482 -1.5507 -1.6983 -0.2045
 7779TIP3    H247533   4.146   3.890  11.338 -0.2723 -0.5701  0.3276
 7780TIP3   OH247534   2.001   7.450  11.875  0.3876  0.0944  0.6431
 7780TIP3    H147535   1.952   7.412  11.802  0.4257  0.1682  0.5788
 7780TIP3    H247536   2.091   7.458  11.842  0.3842  0.2218  0.6633
 7781TIP3   OH247537   3.367   5.320  10.895  0.3200  0.8402  0.1792
 7781TIP3    H147538   3.434   5.336  10.828 -0.2520  0.0182 -0.6118
 7781TIP3    H247539   3.297   5.381  10.874 -0.7167 -0.7394 -1.2257
 7782TIP3   OH247540   6.761   3.802  13.003 -0.4314  0.1583 -0.1446
 7782TIP3    H147541   6.730   3.733  13.062  0.3583 -0.0606  0.0378
 7782TIP3    H247542   6.682   3.841  12.967 -0.9030 -0.9587 -0.3786
 7783TIP3   OH247543   1.868   3.263  12.605 -0.1812 -0.4545 -0.0265
 7783TIP3    H147544   1.897   3.175  12.628  1.6616  0.2596  0.5822
 7783TIP3    H247545   1.815   3.291  12.679 -3.3377 -2.0535 -1.4733
 7784TIP3   OH247546   2.521   7.550  13.061 -0.1398  0.0939  0.3557
 7784TIP3    H147547   2.546   7.459  13.050 -2.0595 -0.3251 -1.2016
 7784TIP3    H247548   2.543   7.591  12.977  1.3850  1.2871  1.2849
 7785TIP3   OH247549   2.377   3.663  12.063  0.1238  0.2709 -0.2724
 7785TIP3    H147550   2.442   3.669  11.992  1.6262 -0.3827  0.9917
 7785TIP3    H247551   2.380   3.571  12.090 -1.1241  0.3047  0.0332
 7786TIP3   OH247552   6.268   4.378  12.041 -0.1760  0.2857 -0.3794
 7786TIP3    H147553   6.297   4.319  12.111  0.6418  1.7363  0.5506
 7786TIP3    H247554   6.274   4.325  11.961  1.1019 -0.7273  0.3424
 7787TIP3   OH247555   4.973   1.790  12.476  0.3911  0.1717 -0.4274
 7787TIP3    H147556   4.984   1.790  12.381  0.6763  0.1753 -0.3967
 7787TIP3    H247557   5.036   1.856  12.507  0.4300  0.0399 -0.2216
 7788TIP3   OH247558   7.037   7.294  11.195 -0.7639 -0.1143 -0.2853
 7788TIP3    H147559   6.966   7.282  11.132 -0.6714  1.0856 -0.6420
 7788TIP3    H247560   7.080   7.209  11.199 -2.7806 -1.1597  0.6595
 7789TIP3   OH247561   4.818   6.759  13.007 -0.2067  0.2834  0.4064
 7789TIP3    H147562   4.790   6.746  13.098  1.1100 -0.9659  0.6678
 7789TIP3    H247563   4.887   6.694  12.994  0.1118  0.9205 -1.2799
 7790TIP3   OH247564   7.639   1.262  11.085  0.2013 -0.8316 -0.2554
 7790TIP3    H147565   7.657   1.193  11.022 -0.8736 -1.8926  0.5497
 7790TIP3    H247566   7.616   1.338  11.032 -2.9008 -2.2903 -1.2342
 7791TIP3   OH247567   6.700   7.459  10.850  0.1374 -0.0539 -0.8995
 7791TIP3    H147568   6.656   7.523  10.794  1.3256 -0.4283 -2.3152
 7791TIP3    H247569   6.630   7.421  10.903 -0.8347  1.1794 -1.2669
 7792TIP3   OH247570   7.328   1.642  10.858  0.0859  0.6155 -0.0913
 7792TIP3    H147571   7.291   1.681  10.937  0.4391  1.3330 -0.2779
 7792TIP3    H247572   7.252   1.615  10.807 -0.1522  0.6271  0.2537
 7793TIP3   OH247573   2.396   2.549  10.782  0.2440 -0.1851  0.1120
 7793TIP3    H147574   2.403   2.551  10.686  1.8671  0.2019  0.2273
 7793TIP3    H247575   2.411   2.457  10.805  0.9144 -0.0883  0.0666
 7794TIP3   OH247576   2.635   4.080  12.061  0.4677  0.1392  0.0417
 7794TIP3    H147577   2.553   4.088  12.109 -0.5625 -0.6677 -1.4690
 7794TIP3    H247578   2.704   4.092  12.127 -0.8508 -0.7173  1.6384
 7795TIP3   OH247579   6.268   1.306  11.361  0.2507 -0.8241 -0.0548
 7795TIP3    H147580   6.318   1.324  11.441 -0.2345  0.5748 -0.0418
 7795TIP3    H247581   6.286   1.214  11.342  0.8295 -1.0264  1.3448
 7796TIP3   OH247582   6.630   4.324  12.342 -0.3939  0.1647 -0.1344
 7796TIP3    H147583   6.696   4.393  12.346  0.8172 -0.9142 -0.8027
 7796TIP3    H247584   6.662   4.257  12.402 -1.8020  0.3453  0.8738
 7797TIP3   OH247585   2.921   3.548  11.927  0.5011  0.5354  0.2576
 7797TIP3    H147586   2.833   3.573  11.957  0.3285  0.1200  0.1021
 7797TIP3    H247587   2.917   3.454  11.916  0.8677  0.5581 -0.0969
 7798TIP3   OH247588   5.186   0.788  12.522  0.0501  0.4694 -0.4204
 7798TIP3    H147589   5.210   0.875  12.493 -2.9167  1.7813  0.6688
 7798TIP3    H247590   5.145   0.801  12.608  2.7807 -2.4699  1.6086
 7799TIP3   OH247591   5.267   3.718  10.904  0.7225  0.4451 -0.6156
 7799TIP3    H147592   5.293   3.648  10.844  1.4206 -1.2167  1.4980
 7799TIP3    H247593   5.215   3.778  10.850  1.3753 -0.8855 -2.8651
 7800TIP3   OH247594   2.779   3.834  12.164 -0.4207 -0.0013  0.1331
 7800TIP3    H147595   2.728   3.753  12.167 -0.5734  0.0760 -0.2133
 7800TIP3    H247596   2.713   3.903  12.155 -0.4747  0.4094  2.9552
 7801TIP3   OH247597   4.754   2.370  11.189 -0.4646  0.3254  0.1989
 7801TIP3    H147598   4.820   2.421  11.236  0.6917 -0.5097 -0.4477
 7801TIP3    H247599   4.673   2.385  11.237  0.3398  0.7974  1.4710
 7802TIP3   OH247600   2.031   1.450  10.652 -0.2269  0.3360 -0.2869
 7802TIP3    H147601   1.958   1.477  10.596  0.4177 -0.8456 -1.7410
 7802TIP3    H247602   1.990   1.400  10.722 -0.9453  1.0249 -0.1955
 7803TIP3   OH247603   2.701   3.585  11.136 -0.1237 -0.9589  0.9359
 7803TIP3    H147604   2.720   3.543  11.220  0.5660  0.5091  1.5624
 7803TIP3    H247605   2.645   3.659  11.159 -0.5027 -0.9428  0.0044
 7804TIP3   OH247606   2.703   0.284  11.787 -0.4243  0.5753 -0.4825
 7804TIP3    H147607   2.753   0.347  11.838 -1.0873  0.2897  0.5354
 7804TIP3    H247608   2.623   0.330  11.762 -0.3779  0.5159 -0.7465
 7805TIP3   OH247609   0.116   4.404  12.615 -0.0010  0.3173 -0.0755
 7805TIP3    H147610   0.152   4.491  12.597  0.6418 -0.0316 -0.5240
 7805TIP3    H247611   0.128   4.356  12.533 -1.0179  0.0241 -0.0655
 7806TIP3   OH247612   6.478   7.401  11.038 -0.6770  0.3851  0.2110
 7806TIP3    H147613   6.415   7.378  10.970 -0.9324 -0.2325  0.6497
 7806TIP3    H247614   6.466   7.335  11.105  0.3021  0.3791  0.3923
 7807TIP3   OH247615   3.214   3.454  10.272 -0.2608 -0.4792 -0.1902
 7807TIP3    H147616   3.129   3.453  10.229 -0.0422 -1.8399 -0.6072
 7807TIP3    H247617   3.202   3.515  10.346 -1.2781  0.1330 -0.8368
 7808TIP3   OH247618   3.755   0.035  10.603  0.3908  0.3353  0.0861
 7808TIP3    H147619   3.834  -0.002  10.642 -0.2792 -0.1604  1.0158
 7808TIP3    H247620   3.734   0.111  10.657 -0.7873 -0.6030  0.9980
 7809TIP3   OH247621   6.983   1.858  12.231 -0.6147 -0.7901  0.7254
 7809TIP3    H147622   6.912   1.807  12.269 -1.2773 -1.8220 -1.7199
 7809TIP3    H247623   7.007   1.810  12.151  1.6708  0.4594  0.5740
 7810TIP3   OH247624   0.245   5.019  11.001  0.0403  0.7870  0.2685
 7810TIP3    H147625   0.332   5.035  10.966 -0.2944 -1.7253 -2.0874
 7810TIP3    H247626   0.188   5.078  10.951  0.2254  1.3409  0.7134
 7811TIP3   OH247627   6.051   6.922  11.731 -0.0009  0.2126 -0.1367
 7811TIP3    H147628   6.019   6.966  11.809  1.4291 -0.2964  0.7697
 7811TIP3    H247629   6.097   6.991  11.682 -1.5753  0.7163 -0.9614
 7812TIP3   OH247630   1.506   5.833  11.586 -0.1022  0.4644 -0.1789
 7812TIP3    H147631   1.534   5.866  11.500 -0.0947  0.4953 -0.1642
 7812TIP3    H247632   1.582   5.785  11.618 -0.1756  0.2779 -0.2801
 7813TIP3   OH247633   4.720   0.785  10.570 -0.1418 -0.4064 -0.7293
 7813TIP3    H147634   4.710   0.880  10.564 -0.9704 -0.4102  0.3494
 7813TIP3    H247635   4.774   0.772  10.648 -0.8554 -0.8534 -0.3007
 7814TIP3   OH247636   2.837   6.637  10.700  0.1337  0.3824  0.2418
 7814TIP3    H147637   2.838   6.662  10.608 -1.3080 -0.0662  0.0737
 7814TIP3    H247638   2.825   6.719  10.748  3.0085  0.9303  0.2366
 7815TIP3   OH247639   3.294   1.231  12.687  0.4807  0.1008  0.1835
 7815TIP3    H147640   3.222   1.279  12.727 -0.5723  0.2597 -1.7582
 7815TIP3    H247641   3.326   1.172  12.755 -1.0078  0.5504  1.3027
 7816TIP3   OH247642   5.045   0.843  12.757  0.7013 -0.3179  0.6007
 7816TIP3    H147643   5.056   0.934  12.785 -0.9269  0.6389 -1.6289
 7816TIP3    H247644   4.959   0.818  12.790  0.2151 -0.2843 -0.5829
 7817TIP3   OH247645   1.392   5.330  11.384 -0.0607  0.3302  0.2647
 7817TIP3    H147646   1.373   5.403  11.443  0.8966  0.0728  0.9365
 7817TIP3    H247647   1.451   5.274  11.435 -0.7923 -0.9239 -0.2317
 7818TIP3   OH247648   0.241   3.053  12.582 -0.1891  0.4632  0.0098
 7818TIP3    H147649   0.292   3.061  12.663 -1.6362  1.0261  0.9037
 7818TIP3    H247650   0.193   2.971  12.592 -1.5979  1.3053  0.4958
 7819TIP3   OH247651   0.567   3.238  11.497 -0.2381  0.0769 -0.8399
 7819TIP3    H147652   0.531   3.169  11.551  0.2123  0.8139  0.4374
 7819TIP3    H247653   0.544   3.213  11.407 -0.1407 -1.6736 -0.4116
 7820TIP3   OH247654   4.044   4.202  11.359 -0.0987 -0.0849  0.0732
 7820TIP3    H147655   4.102   4.127  11.347 -0.6448 -0.3690 -0.9435
 7820TIP3    H247656   4.047   4.248  11.274 -3.0010 -1.3027 -0.8289
 7821TIP3   OH247657   0.041   7.416  12.997 -0.1922  0.4286  0.0060
 7821TIP3    H147658   0.074   7.331  12.968  0.6215  0.6903  0.1324
 7821TIP3    H247659  -0.033   7.434  12.939  0.5650  0.3192 -1.0254
 7822TIP3   OH247660   6.705   4.514  12.688  0.1748  0.2682 -0.0519
 7822TIP3    H147661   6.726   4.543  12.777  1.4014 -1.5257  0.3091
 7822TIP3    H247662   6.612   4.492  12.691  0.3755 -0.5056  1.0365
 7823TIP3   OH247663   5.280   4.541  10.523  0.0454 -0.0966 -0.2225
 7823TIP3    H147664   5.336   4.612  10.554  0.0089 -0.2681  0.2438
 7823TIP3    H247665   5.265   4.487  10.600 -2.8705  1.3150  0.3360
 7824TIP3   OH247666   6.776   1.383  11.738 -0.0659  0.1382  0.5315
 7824TIP3    H147667   6.834   1.326  11.788 -0.8450 -1.0732  0.0925
 7824TIP3    H247668   6.822   1.467  11.735  0.9104 -0.3280  1.5560
 7825TIP3   OH247669   4.212   5.683  10.535  0.3692 -0.1480  0.7013
 7825TIP3    H147670   4.248   5.594  10.533 -1.6094 -0.9769 -1.6043
 7825TIP3    H247671   4.262   5.730  10.469 -0.9738 -0.6178 -0.7082
 7826TIP3   OH247672   3.807   0.726  11.468 -0.1556  0.0479  0.3416
 7826TIP3    H147673   3.879   0.713  11.406  0.2009 -0.2845  0.8216
 7826TIP3    H247674   3.754   0.646  11.459 -0.4350  0.2617  0.0387
 7827TIP3   OH247675   1.330   5.536  12.125 -0.2834 -0.2134 -0.1798
 7827TIP3    H147676   1.412   5.491  12.144 -1.2004 -1.3777  1.2491
 7827TIP3    H247677   1.266   5.466  12.114 -1.2626  0.6893 -0.4684
 7828TIP3   OH247678   3.386   2.341  10.929 -0.0928 -0.4393  0.3345
 7828TIP3    H147679   3.373   2.388  10.847  0.1509 -0.3940  0.3209
 7828TIP3    H247680   3.412   2.409  10.991  0.5238 -0.5986  0.2504
 7829TIP3   OH247681   4.921   6.637  10.749 -0.1876 -0.9583 -0.3763
 7829TIP3    H147682   4.884   6.593  10.826  0.4801 -0.3012  0.3339
 7829TIP3    H247683   4.904   6.576  10.676 -1.0580 -1.4717  0.2369
 7830TIP3   OH247684   2.822   7.537  10.937 -0.6312  0.4363  0.4898
 7830TIP3    H147685   2.780   7.586  11.008  0.5088  0.6805  1.0226
 7830TIP3    H247686   2.793   7.580  10.857 -2.1859 -0.0311  0.7710
 7831TIP3   OH247687   1.144   2.394  10.536  0.3455  0.3824  0.5123
 7831TIP3    H147688   1.153   2.305  10.504 -0.5986  0.0488  1.1395
 7831TIP3    H247689   1.052   2.416  10.518  0.9636  1.8548 -1.2088
 7832TIP3   OH247690   0.123   2.453  11.235 -0.0800  1.0223  0.3870
 7832TIP3    H147691   0.033   2.485  11.248  0.2854  2.7483 -0.8994
 7832TIP3    H247692   0.163   2.461  11.322 -0.8262  1.4116  0.7110
 7833TIP3   OH247693   6.668   3.207  11.406 -0.0937  0.4345  0.3312
 7833TIP3    H147694   6.682   3.118  11.376  0.6035  0.7290 -0.2565
 7833TIP3    H247695   6.723   3.215  11.485  1.7218  1.0238 -0.9229
 7834TIP3   OH247696   0.496   2.827  10.786  0.0123 -0.2204 -0.5934
 7834TIP3    H147697   0.524   2.812  10.696  0.8940  1.3751 -0.6263
 7834TIP3    H247698   0.551   2.769  10.838  0.3612 -0.2616 -0.9981
 7835TIP3   OH247699   5.740   1.054  11.606 -0.0754  0.2975 -0.3528
 7835TIP3    H147700   5.787   0.995  11.546  1.1709  0.6741  0.2201
 7835TIP3    H247701   5.648   1.036  11.589  0.2559 -0.3155 -1.6773
 7836TIP3   OH247702   7.346   4.399  11.758  0.1277  0.0820 -0.0884
 7836TIP3    H147703   7.252   4.414  11.764  0.2704  0.4802  2.3099
 7836TIP3    H247704   7.381   4.479  11.717 -0.3100  1.3668  1.9149
 7837TIP3   OH247705   5.621   0.185  10.909 -0.0342 -0.3880  0.1127
 7837TIP3    H147706   5.593   0.103  10.951 -2.3323 -0.8711 -2.1019
 7837TIP3    H247707   5.540   0.232  10.890  1.0144  0.9015 -1.5471
 7838TIP3   OH247708   1.033   6.284  13.147  0.2851  0.4366  0.1758
 7838TIP3    H147709   1.078   6.330  13.218 -0.7419 -0.7430  1.6286
 7838TIP3    H247710   0.954   6.336  13.130  1.6449  2.0465 -1.8177
 7839TIP3   OH247711   0.354   0.208  12.367  0.3137 -0.2589  0.6350
 7839TIP3    H147712   0.317   0.276  12.423  0.3675  0.1890  0.1323
 7839TIP3    H247713   0.434   0.246  12.332 -0.9192  0.4523 -1.6844
 7840TIP3   OH247714   4.428   1.120  12.913  0.1995  0.0303  0.7551
 7840TIP3    H147715   4.407   1.082  12.828 -0.8752  0.2155  0.9163
 7840TIP3    H247716   4.509   1.077  12.940  0.6413  0.0890 -0.4228
 7841TIP3   OH247717   7.034   6.616  12.273  0.4298  0.2238 -0.3894
 7841TIP3    H147718   7.096   6.655  12.335 -1.9474  1.7798  1.1425
 7841TIP3    H247719   7.003   6.537  12.317  1.1648 -0.4767 -1.0944
 7842TIP3   OH247720   7.003   0.052  10.995  0.3529  0.2748 -0.2297
 7842TIP3    H147721   6.994  -0.028  10.943  0.5038  1.3738 -2.0582
 7842TIP3    H247722   7.079   0.096  10.957  1.8363  0.1539  2.3784
 7843TIP3   OH247723   0.602   2.005  11.171  0.6875  0.3322 -0.1897
 7843TIP3    H147724   0.621   1.913  11.153 -1.7349 -0.4216  0.7136
 7843TIP3    H247725   0.554   2.035  11.094  1.8484  1.0077 -0.6750
 7844TIP3   OH247726   6.093   4.147  12.370 -0.3586  0.0781 -0.4259
 7844TIP3    H147727   6.116   4.176  12.282  1.7019 -0.3546 -0.0617
 7844TIP3    H247728   6.023   4.208  12.396 -1.8215 -0.4663 -2.7174
 7845TIP3   OH247729   4.909   6.783  11.227  0.1566 -0.2986  0.7094
 7845TIP3    H147730   4.823   6.805  11.192  0.5539 -0.7065 -0.5565
 7845TIP3    H247731   4.940   6.864  11.268 -1.0647 -0.3122  1.7123
 7846TIP3   OH247732   7.077   0.481  10.952  0.4926 -0.4429 -0.2133
 7846TIP3    H147733   7.015   0.544  10.915 -0.8462 -0.7741  1.3630
 7846TIP3    H247734   7.096   0.421  10.881 -2.3767 -1.3575 -0.3095
 7847TIP3   OH247735   1.180   6.528  11.542 -0.3797 -0.2934 -0.1967
 7847TIP3    H147736   1.138   6.448  11.572  0.4332 -0.6055  0.1450
 7847TIP3    H247737   1.267   6.526  11.582 -0.2967  0.6899 -0.3008
 7848TIP3   OH247738   0.340   1.847  11.619  0.2457  0.0387 -0.0557
 7848TIP3    H147739   0.407   1.856  11.551 -0.2421  0.8087 -0.4436
 7848TIP3    H247740   0.372   1.900  11.692  0.0955  0.3542 -0.2166
 7849TIP3   OH247741   5.012   1.739  12.777  0.0349  0.4919  0.1325
 7849TIP3    H147742   4.955   1.761  12.703  0.1967  0.2260 -0.0748
 7849TIP3    H247743   5.063   1.819  12.792 -0.1747  0.6284  0.1174
 7850TIP3   OH247744   4.330   4.866  11.299  0.2353 -0.2432  0.4274
 7850TIP3    H147745   4.400   4.896  11.241 -0.0175  0.1663  0.3244
 7850TIP3    H247746   4.346   4.913  11.381 -0.0118 -0.0270  0.3509
 7851TIP3   OH247747   0.068   3.590  10.578 -0.6820  0.0233 -0.2793
 7851TIP3    H147748   0.079   3.496  10.561  0.7290  0.0073  0.5696
 7851TIP3    H247749   0.047   3.595  10.671  2.0489  0.6664  0.3781
 7852TIP3   OH247750   1.847   6.138  11.079  0.5528  0.4083 -0.6240
 7852TIP3    H147751   1.845   6.182  11.164 -0.9454 -0.1972 -0.3237
 7852TIP3    H247752   1.872   6.207  11.018  1.2220  0.9567  0.2283
 7853TIP3   OH247753   3.005   3.935  11.478 -0.2448 -0.5670  0.0813
 7853TIP3    H147754   3.083   3.980  11.448 -1.1180  0.1569 -1.1994
 7853TIP3    H247755   3.027   3.904  11.566  1.4506 -0.3634 -0.2414
 7854TIP3   OH247756   1.949   7.624  10.915 -0.4348  0.0137 -0.2049
 7854TIP3    H147757   1.969   7.714  10.942  0.2743 -0.4853  1.0589
 7854TIP3    H247758   1.992   7.614  10.830 -3.5190  1.9440 -2.1752
 7855TIP3   OH247759   7.470   6.225  10.539 -0.8404  0.6358  0.6907
 7855TIP3    H147760   7.538   6.279  10.579  0.6529 -0.4378 -0.2784
 7855TIP3    H247761   7.422   6.285  10.482  2.2464  0.6565 -2.1939
 7856TIP3   OH247762   6.513   3.895  11.687 -0.0547  0.2059  0.5829
 7856TIP3    H147763   6.513   3.808  11.728 -0.0129 -0.1581 -0.1872
 7856TIP3    H247764   6.420   3.918  11.680 -0.1040 -0.1878 -0.0790
 7857TIP3   OH247765   5.086   4.212  11.039  0.4312  0.2428 -0.2549
 7857TIP3    H147766   5.148   4.148  11.074  0.6867  0.5592 -0.1221
 7857TIP3    H247767   5.023   4.225  11.110 -0.2763 -0.6941 -0.6796
 7858TIP3   OH247768   3.364   6.980  11.234 -0.0008  0.5238 -0.5221
 7858TIP3    H147769   3.389   6.939  11.317 -1.6363 -0.8589 -0.6682
 7858TIP3    H247770   3.356   7.074  11.255  1.1645  0.4304  0.4706
 7859TIP3   OH247771   5.308   5.619  10.772  0.9431 -0.1283  0.4795
 7859TIP3    H147772   5.217   5.627  10.800  0.7601  0.1501 -0.1765
 7859TIP3    H247773   5.310   5.537  10.722  1.5376 -1.2757  2.3066
 7860TIP3   OH247774   4.468   1.432  11.169  0.4745 -0.1801  0.3653
 7860TIP3    H147775   4.471   1.518  11.127  2.0196 -1.0185 -1.3728
 7860TIP3    H247776   4.524   1.377  11.115 -2.1909 -2.8917  0.1114
 7861TIP3   OH247777   4.710   4.732  11.593 -0.5393 -0.3079  0.0339
 7861TIP3    H147778   4.644   4.748  11.661 -0.8627  0.8203 -0.5096
 7861TIP3    H247779   4.659   4.710  11.515 -0.4338  2.2230 -0.8419
 7862TIP3   OH247780   2.610   7.029  10.492 -0.8431 -0.2287  0.1171
 7862TIP3    H147781   2.654   7.112  10.473 -0.3979 -0.6888 -0.9808
 7862TIP3    H247782   2.526   7.036  10.446 -0.2688 -0.8691 -1.0857
 7863TIP3   OH247783   3.657   6.691  10.484  0.2240  0.4136 -0.8136
 7863TIP3    H147784   3.724   6.647  10.432  1.3495  1.3970 -0.2614
 7863TIP3    H247785   3.673   6.784  10.469  0.0828  0.6952  0.6588
 7864TIP3   OH247786   5.813   7.372  10.920  0.3981 -0.3399 -0.1212
 7864TIP3    H147787   5.899   7.414  10.914  0.4276 -0.2045  1.1137
 7864TIP3    H247788   5.778   7.378  10.831  0.4337  2.2396 -0.0570
 7865TIP3   OH247789   0.251   0.548  11.200 -0.0826 -0.1918 -0.1997
 7865TIP3    H147790   0.196   0.612  11.154  0.5612  0.2924 -0.3047
 7865TIP3    H247791   0.339   0.584  11.195  0.0200 -0.1200  1.4161
 7866TIP3   OH247792   3.528   1.007  12.656  0.6477 -0.1374 -0.4999
 7866TIP3    H147793   3.580   1.082  12.684  1.3237 -0.7212 -0.1578
 7866TIP3    H247794   3.458   1.001  12.721 -0.0176  0.8030 -1.1031
 7867TIP3   OH247795   3.887   6.651  11.102 -0.1683  0.0750 -0.5147
 7867TIP3    H147796   3.867   6.567  11.061 -1.7459  0.2904 -0.2533
 7867TIP3    H247797   3.948   6.629  11.172  1.3265 -0.5051 -1.9163
 7868TIP3   OH247798   7.498   3.431  10.523  0.0277 -0.1127  0.0425
 7868TIP3    H147799   7.518   3.446  10.616  0.8191  0.4959 -0.2160
 7868TIP3    H247800   7.576   3.386  10.489 -0.8204 -1.6101 -0.0354
 7869TIP3   OH247801   7.092   5.216  11.833  0.4235  0.4773  0.8193
 7869TIP3    H147802   7.104   5.308  11.856 -1.5488  1.0693 -0.2734
 7869TIP3    H247803   7.086   5.216  11.738  2.5342 -1.1142  0.6289
 7870TIP3   OH247804   2.553   2.758  12.497  0.6858 -0.1069 -0.0206
 7870TIP3    H147805   2.604   2.791  12.422 -1.0831  0.9986 -0.8050
 7870TIP3    H247806   2.474   2.811  12.497 -0.5481 -1.8482  1.0710
 7871TIP3   OH247807   0.133   6.689  11.602 -0.4527  0.3706 -0.2191
 7871TIP3    H147808   0.099   6.742  11.529 -1.0480  1.4230  0.7734
 7871TIP3    H247809   0.178   6.752  11.658  1.5562 -0.7163 -0.5460
 7872TIP3   OH247810   5.162   6.022  10.861  0.3259 -0.2279  0.3994
 7872TIP3    H147811   5.091   6.028  10.924 -0.2684 -3.4051  0.2248
 7872TIP3    H247812   5.127   6.061  10.781 -0.4671  0.0938  0.8949
 7873TIP3   OH247813   1.268   7.348  11.605 -0.2733  0.0532  0.1225
 7873TIP3    H147814   1.282   7.441  11.625  0.1181  0.0847 -0.2839
 7873TIP3    H247815   1.230   7.347  11.518  1.9455 -0.2455 -0.9180
 7874TIP3   OH247816   2.819   2.906  11.874 -0.1028 -0.3228  0.2303
 7874TIP3    H147817   2.771   2.983  11.844  0.4686 -0.0693 -0.0472
 7874TIP3    H247818   2.867   2.936  11.951  1.8920  0.2425 -1.1591
 7875TIP3   OH247819   3.175   2.943  11.014  0.6900  1.0371  0.7263
 7875TIP3    H147820   3.150   2.930  10.922 -0.4410  0.1239  1.1429
 7875TIP3    H247821   3.190   2.854  11.047  1.4601  1.3816  1.3375
 7876TIP3   OH247822   5.951   1.863  10.499 -0.4807  0.0119  0.6021
 7876TIP3    H147823   5.932   1.808  10.575  0.4551  0.0241  0.8535
 7876TIP3    H247824   6.020   1.923  10.529 -0.0729 -0.0093 -0.2703
 7877TIP3   OH247825   0.760   3.900  11.521 -0.3501  0.0902 -0.6214
 7877TIP3    H147826   0.685   3.843  11.537 -1.0916  0.7924 -1.4287
 7877TIP3    H247827   0.766   3.905  11.425 -0.6069  1.7156 -0.5806
 7878TIP3   OH247828   1.531   2.080  12.774 -0.2198 -0.4374 -0.5445
 7878TIP3    H147829   1.526   2.176  12.774  0.7576 -0.3777 -0.7318
 7878TIP3    H247830   1.617   2.061  12.811  0.8712 -1.1588 -3.2112
 7879TIP3   OH247831   4.459   2.136  12.423  0.4507  0.2243 -0.2919
 7879TIP3    H147832   4.520   2.176  12.360 -0.5130  1.1299 -0.6672
 7879TIP3    H247833   4.402   2.208  12.450  1.1953  0.0140  2.0991
 7880TIP3   OH247834   1.139   0.678  11.067 -0.1424  0.4683 -0.3596
 7880TIP3    H147835   1.226   0.686  11.027 -0.7690  2.7973 -1.4338
 7880TIP3    H247836   1.151   0.613  11.136  2.2598  0.1436 -0.9698
 7881TIP3   OH247837   3.696   6.684  10.793  0.0727  0.1934  0.5335
 7881TIP3    H147838   3.647   6.682  10.875 -0.0308  0.1894  0.4721
 7881TIP3    H247839   3.641   6.735  10.733  0.1638  0.2263  0.4766
 7882TIP3   OH247840   2.587   0.488  12.918  0.0130 -0.4776  0.0183
 7882TIP3    H147841   2.540   0.461  12.839  0.6092  2.3888 -1.4345
 7882TIP3    H247842   2.610   0.405  12.961 -2.2778 -2.0916 -1.5952
 7883TIP3   OH247843   4.668   3.802  10.989  0.1863 -0.3485  0.0906
 7883TIP3    H147844   4.575   3.790  10.972  0.4350 -0.8766 -0.9710
 7883TIP3    H247845   4.674   3.810  11.084 -0.8651 -0.9866  0.2241
 7884TIP3   OH247846   2.532   4.576  12.994 -0.6923  0.1237  0.0331
 7884TIP3    H147847   2.597   4.591  12.925 -0.4595 -1.7381 -0.1925
 7884TIP3    H247848   2.451   4.613  12.958 -0.3754 -0.0294 -0.8606
 7885TIP3   OH247849   1.828   5.014  11.494 -0.2356  0.1697  0.3173
 7885TIP3    H147850   1.798   4.947  11.432 -0.2012 -1.0023  1.5187
 7885TIP3    H247851   1.838   4.967  11.577  1.8821  1.2037  0.7061
 7886TIP3   OH247852   7.544   1.940  13.088  0.5352  0.2157  0.1656
 7886TIP3    H147853   7.461   1.961  13.046  2.0208  1.8259 -2.2400
 7886TIP3    H247854   7.583   1.873  13.031  1.3806  0.3179  0.6024
 7887TIP3   OH247855   3.890   4.046  12.030 -0.0302 -0.0350 -0.3274
 7887TIP3    H147856   3.913   4.138  12.045 -0.6338  0.2046 -0.8184
 7887TIP3    H247857   3.928   3.999  12.104 -2.3445  0.9840  1.6451
 7888TIP3   OH247858   2.468   0.973  12.359 -0.5187 -0.2165 -0.1111
 7888TIP3    H147859   2.498   0.964  12.268  0.1617 -1.4038  0.2090
 7888TIP3    H247860   2.424   0.890  12.378  1.4505 -0.9976  1.3790
 7889TIP3   OH247861   2.468   7.478  12.013 -0.2991  0.1415 -0.5039
 7889TIP3    H147862   2.511   7.562  12.023 -0.0003  0.0697 -1.1688
 7889TIP3    H247863   2.525   7.427  11.956 -0.2398 -0.6827  0.2549
 7890TIP3   OH247864   3.552   0.761  12.407  0.9370 -0.3903 -0.3008
 7890TIP3    H147865   3.562   0.835  12.348  1.0635 -0.9823 -1.0475
 7890TIP3    H247866   3.525   0.799  12.490  0.6521  0.4571 -0.7732
 7891TIP3   OH247867   2.861   6.352  11.606  0.7294 -0.2542  0.7074
 7891TIP3    H147868   2.819   6.338  11.521 -0.9916 -0.4172  1.5253
 7891TIP3    H247869   2.867   6.265  11.645  0.6498 -0.0848  1.1098
 7892TIP3   OH247870   6.108   6.825  12.131  0.3337 -0.3115 -0.1307
 7892TIP3    H147871   6.131   6.916  12.110  0.4845 -0.0820  0.9748
 7892TIP3    H247872   6.013   6.827  12.144  0.6511  0.2725  2.5292
 7893TIP3   OH247873   4.212   7.393  11.790  0.0815  0.0338 -0.0422
 7893TIP3    H147874   4.121   7.375  11.814  0.3108 -0.3030  0.6125
 7893TIP3    H247875   4.239   7.462  11.851  1.0013 -1.5667  1.4563
 7894TIP3   OH247876   2.679   2.048  11.541  0.1886  0.1603 -0.2197
 7894TIP3    H147877   2.703   2.101  11.465  1.7535 -1.0253 -0.6133
 7894TIP3    H247878   2.702   1.958  11.515 -0.7125 -0.4846  1.0849
 7895TIP3   OH247879   5.857   2.292  12.853  0.1410 -0.0265 -0.5394
 7895TIP3    H147880   5.939   2.298  12.902 -0.6062 -1.4631  1.0134
 7895TIP3    H247881   5.821   2.381  12.855  1.0145  0.3298 -0.0829
 7896TIP3   OH247882   0.096   2.747  10.513 -0.1230  0.4949  0.1715
 7896TIP3    H147883   0.173   2.790  10.551 -1.6237  1.4742  2.3537
 7896TIP3    H247884   0.087   2.666  10.564 -0.2245  0.0953 -0.4705
 7897TIP3   OH247885   0.123   0.687  10.671  0.3845  0.3372  0.3320
 7897TIP3    H147886   0.082   0.712  10.588 -0.8577  0.7720  1.0453
 7897TIP3    H247887   0.179   0.762  10.693 -1.8027  1.7742  1.4689
 7898TIP3   OH247888   5.912   4.056  12.719  0.0366 -0.1025  0.0400
 7898TIP3    H147889   5.932   3.975  12.672  2.4807  0.1280  0.5558
 7898TIP3    H247890   5.898   4.121  12.651  2.0152 -0.1101 -0.4117
 7899TIP3   OH247891   4.666   5.819  11.588  0.3403 -0.5020  0.1651
 7899TIP3    H147892   4.663   5.913  11.572  1.7882 -0.7946 -2.3043
 7899TIP3    H247893   4.588   5.785  11.544  1.3563 -0.7070 -1.5688
 7900TIP3   OH247894   6.109   3.714  10.923 -0.0621  0.1854 -0.5735
 7900TIP3    H147895   6.042   3.724  10.991 -0.1220 -1.8724 -0.2681
 7900TIP3    H247896   6.191   3.735  10.968 -0.1695 -0.5139 -0.0372
 7901TIP3   OH247897   5.300   6.627  11.037  0.6679 -0.0208  0.4009
 7901TIP3    H147898   5.248   6.707  11.032  1.1224  0.3080  0.7761
 7901TIP3    H247899   5.241   6.561  11.072 -0.2999 -0.3849 -1.7392
 7902TIP3   OH247900   4.579   5.489  11.220 -0.1077 -0.2065 -0.2773
 7902TIP3    H147901   4.515   5.460  11.156 -0.5554  2.0995 -0.9843
 7902TIP3    H247902   4.541   5.569  11.258  2.4199  1.4623 -0.9576
 7903TIP3   OH247903   7.115   3.457  10.551 -0.2148 -0.2166 -0.4854
 7903TIP3    H147904   7.024   3.454  10.580 -0.8080 -0.2732 -2.2668
 7903TIP3    H247905   7.138   3.550  10.557  0.4212 -0.4563  2.1795
 7904TIP3   OH247906   4.343   7.277  10.784  0.3870 -0.1580  0.4231
 7904TIP3    H147907   4.264   7.223  10.792  0.7659 -0.7342  0.2908
 7904TIP3    H247908   4.335   7.341  10.855  0.4577 -1.0665  1.2767
 7905TIP3   OH247909   7.680   0.386  11.056 -0.1897  0.0310  0.1104
 7905TIP3    H147910   7.711   0.359  11.142  0.2870  1.3031  0.3604
 7905TIP3    H247911   7.758   0.419  11.011 -0.8112  1.5624  0.0674
 7906TIP3   OH247912   5.843   4.895  11.944 -0.4402  0.4075 -0.2466
 7906TIP3    H147913   5.865   4.964  12.006 -1.1444  1.4270 -1.1064
 7906TIP3    H247914   5.765   4.926  11.899 -1.7015 -1.6164  0.3836
 7907TIP3   OH247915   2.805   4.675  16.882  0.2209 -0.4534 -0.5240
 7907TIP3    H147916   2.788   4.581  16.877 -0.4742 -0.2857 -1.6982
 7907TIP3    H247917   2.722   4.716  16.859  0.0633  0.4869  1.4902
 7908TIP3   OH247918   6.964   3.324  10.909 -0.0490  0.0034  0.3873
 7908TIP3    H147919   6.936   3.295  10.996  1.4531  1.3872  1.4108
 7908TIP3    H247920   7.043   3.376  10.926  0.5388 -0.0459 -1.8641
 7909TIP3   OH247921   1.931   4.332  11.116  0.0886  0.5751 -0.1699
 7909TIP3    H147922   2.016   4.366  11.144 -0.8487  2.2464  0.7841
 7909TIP3    H247923   1.949   4.288  11.033  2.0825 -0.1591  0.5896
 7910TIP3   OH247924   0.196   4.945  11.291  0.1295  0.5848  0.2323
 7910TIP3    H147925   0.236   4.963  11.206  0.8332  0.0614  0.4418
 7910TIP3    H247926   0.111   4.990  11.288  0.6780  1.6097 -0.2735
 7911TIP3   OH247927   1.461   4.512  12.299 -0.1085 -0.2545 -0.3100
 7911TIP3    H147928   1.410   4.583  12.259  1.0465  0.3991 -0.6477
 7911TIP3    H247929   1.531   4.556  12.346  1.3275 -1.1833 -1.4956
 7912TIP3   OH247930   1.497   3.271  11.620 -0.9028  0.2712 -0.8346
 7912TIP3    H147931   1.557   3.280  11.547  0.3115 -0.9301 -0.0390
 7912TIP3    H247932   1.442   3.196  11.596 -0.3465 -0.2762 -0.4450
 7913TIP3   OH247933   1.822   1.624  10.886  0.3302  0.1661 -0.0004
 7913TIP3    H147934   1.903   1.575  10.899  0.1733 -0.0508  0.1923
 7913TIP3    H247935   1.802   1.615  10.793  1.5120  1.7978 -0.4573
 7914TIP3   OH247936   5.606   5.100  12.598  0.2055  0.4928 -0.3357
 7914TIP3    H147937   5.617   5.181  12.549 -0.2009  0.4408 -0.5137
 7914TIP3    H247938   5.512   5.087  12.603  0.1911  1.0673  1.3888
 7915TIP3   OH247939   4.371   5.630  11.851 -0.6399  0.5245  0.0600
 7915TIP3    H147940   4.420   5.551  11.830 -0.7248  0.4284  0.2240
 7915TIP3    H247941   4.283   5.599  11.871 -0.7660  0.6953 -0.2197
 7916TIP3   OH247942   4.656   2.217  12.257  0.2794 -0.2948  0.1707
 7916TIP3    H147943   4.614   2.179  12.180 -0.6718  1.7311 -0.3935
 7916TIP3    H247944   4.750   2.214  12.237  0.0182  0.9070 -1.4996
 7917TIP3   OH247945   4.409   3.556  13.263  0.5669 -0.3738 -0.3810
 7917TIP3    H147946   4.365   3.473  13.278  0.2426 -0.3747 -1.2530
 7917TIP3    H247947   4.489   3.533  13.216  0.7741 -0.2491 -0.0894
 7918TIP3   OH247948   5.076   7.147  12.045  0.4274 -0.0832 -0.1869
 7918TIP3    H147949   5.170   7.146  12.032  0.7595  0.5707  1.8337
 7918TIP3    H247950   5.055   7.239  12.064 -0.5033 -0.3332  0.0417
 7919TIP3   OH247951   3.387   5.677  10.944 -0.6514  0.0994  0.0444
 7919TIP3    H147952   3.461   5.724  10.906 -1.3754  0.1851 -1.3190
 7919TIP3    H247953   3.423   5.593  10.972  0.1946  0.6007  0.4853
 7920TIP3   OH247954   7.493   0.895  12.540 -0.0129  0.2482  0.0394
 7920TIP3    H147955   7.441   0.859  12.469 -0.2374 -1.1759  0.8929
 7920TIP3    H247956   7.543   0.821  12.574  2.1917  1.4324 -0.3773
 7921TIP3   OH247957   3.381   1.194  10.726  0.1213 -0.4435 -0.2150
 7921TIP3    H147958   3.410   1.285  10.717  2.0084 -0.9782  0.0124
 7921TIP3    H247959   3.290   1.200  10.754  0.4610  1.3866  0.6298
 7922TIP3   OH247960   1.468   1.226  12.902 -0.4454 -0.1742 -0.2993
 7922TIP3    H147961   1.484   1.237  12.996  0.3134 -0.3699 -0.4007
 7922TIP3    H247962   1.535   1.164  12.873 -0.8193 -0.2979 -0.9265
 7923TIP3   OH247963   6.177   2.469  11.455  0.0103  0.2401 -0.2142
 7923TIP3    H147964   6.259   2.512  11.430  0.0391  0.1548 -0.2663
 7923TIP3    H247965   6.190   2.377  11.432  0.2263  0.0652  0.5855
 7924TIP3   OH247966   1.589   2.536  12.016  0.7266 -0.0033 -0.1833
 7924TIP3    H147967   1.537   2.457  12.027  0.3094  0.3014  0.0345
 7924TIP3    H247968   1.664   2.524  12.075  1.0239 -0.5315 -0.6504
 7925TIP3   OH247969   2.037   1.642  10.208  0.3110 -0.7987  0.7666
 7925TIP3    H147970   1.964   1.672  10.154  1.3253 -0.2627 -0.3480
 7925TIP3    H247971   2.057   1.717  10.263 -0.9235 -1.4458  2.1779
 7926TIP3   OH247972   2.824   2.758  13.058  0.4419 -0.2949 -0.4972
 7926TIP3    H147973   2.886   2.720  13.120  0.6544  1.5275  0.4709
 7926TIP3    H247974   2.838   2.853  13.065 -4.2650  0.5018  1.7918
 7927TIP3   OH247975   3.468   2.524  11.120  0.7685 -0.1987  0.1214
 7927TIP3    H147976   3.517   2.536  11.201 -1.1647  0.9275  1.2190
 7927TIP3    H247977   3.507   2.586  11.059  0.2803  1.2560  1.2182
 7928TIP3   OH247978   0.056   3.965  13.093 -0.6469  0.5387 -0.3266
 7928TIP3    H147979   0.091   3.898  13.034 -1.0826 -0.9603  1.0281
 7928TIP3    H247980  -0.027   3.991  13.054 -0.7419 -0.1418 -0.5893
 7929TIP3   OH247981   4.142   3.057  12.637  0.0530 -0.4490 -0.1727
 7929TIP3    H147982   4.150   3.092  12.726  1.7615  0.9656 -0.8216
 7929TIP3    H247983   4.219   3.002  12.626  0.6408  0.5341 -1.2229
 7930TIP3   OH247984   2.805   7.071  12.885  0.5106  0.3926  0.3493
 7930TIP3    H147985   2.869   7.012  12.848 -0.8544  0.2011 -1.8863
 7930TIP3    H247986   2.825   7.156  12.847 -0.9300  0.1938 -0.9480
 7931TIP3   OH247987   5.165   4.009  11.325  0.0731  0.0294 -0.7770
 7931TIP3    H147988   5.084   4.044  11.363  0.8185  0.8476  0.0880
 7931TIP3    H247989   5.206   3.961  11.397 -0.2905 -1.5641 -1.5891
 7932TIP3   OH247990   5.174   6.306  10.934  0.1024 -0.2696  0.2184
 7932TIP3    H147991   5.125   6.268  10.861 -0.2567 -1.0302  0.8342
 7932TIP3    H247992   5.260   6.263  10.930  0.3775  0.3077 -0.2472
 7933TIP3   OH247993   7.044   3.446  11.623  0.3747 -0.2710 -0.1915
 7933TIP3    H147994   7.072   3.412  11.708 -2.7497 -2.0088  0.3157
 7933TIP3    H247995   6.948   3.438  11.625  0.0916  0.9585 -3.3556
 7934TIP3   OH247996   0.739   1.534  11.386 -0.0030  0.3991  0.2216
 7934TIP3    H147997   0.809   1.521  11.321 -0.7313  1.8085 -0.9073
 7934TIP3    H247998   0.680   1.461  11.371  1.1932 -0.8332  1.2133
 7935TIP3   OH247999   5.538   0.774  12.548  0.6003  0.1342  0.2420
 7935TIP3    H148000   5.611   0.714  12.565  0.3017  0.1963  1.9221
 7935TIP3    H248001   5.469   0.746  12.608 -0.5579  0.4586 -0.8914
 7936TIP3   OH248002   0.299   6.751  11.104  0.0426  0.0081 -0.4673
 7936TIP3    H148003   0.270   6.678  11.158 -2.4517  1.9051  0.9572
 7936TIP3    H248004   0.342   6.811  11.165  0.8272  0.3756 -1.3570
 7937TIP3   OH248005   0.503   0.177  13.195 -0.3940 -0.1993  0.9280
 7937TIP3    H148006   0.418   0.177  13.238  0.5541  1.0310  2.9639
 7937TIP3    H248007   0.542   0.261  13.219  2.0850 -1.4382  1.5672
 7938TIP3   OH248008   2.531   0.656  13.386 -0.3354 -0.1042  0.4217
 7938TIP3    H148009   2.440   0.672  13.360 -0.0782  0.6434 -0.0898
 7938TIP3    H248010   2.534   0.563  13.408 -0.6082 -0.8343 -2.2633
 7939TIP3   OH248011   4.393   1.893  12.537  0.2946 -0.1332  0.1815
 7939TIP3    H148012   4.391   1.985  12.512  1.4919 -0.2404 -0.3886
 7939TIP3    H248013   4.389   1.894  12.633 -0.3353  0.4695  0.1570
 7940TIP3   OH248014   5.149   6.649  12.374 -0.3381 -0.2881  0.5370
 7940TIP3    H148015   5.141   6.679  12.465 -1.8404 -1.0617  0.6824
 7940TIP3    H248016   5.234   6.605  12.371 -0.3462 -0.4003  1.6142
 7941TIP3   OH248017   4.199   0.056  11.437  0.3007  0.1044  0.1184
 7941TIP3    H148018   4.116   0.035  11.392  0.8470 -0.1933 -0.7787
 7941TIP3    H248019   4.243  -0.028  11.446  0.4497  0.2445  0.7310
 7942TIP3   OH248020   0.725   7.315  11.125  0.4326  0.4575  0.2062
 7942TIP3    H148021   0.816   7.314  11.097 -0.3946  1.9902 -2.9157
 7942TIP3    H248022   0.696   7.405  11.111 -1.4093  0.1769  1.7914
 7943TIP3   OH248023   4.326   5.978  11.258 -0.5013  0.1403 -0.1413
 7943TIP3    H148024   4.377   6.050  11.298 -0.3950 -0.1835  0.3135
 7943TIP3    H248025   4.362   5.899  11.298 -1.5938 -0.0763  0.4397
 7944TIP3   OH248026   6.594   3.756  12.488 -0.1763  0.3524  0.2118
 7944TIP3    H148027   6.661   3.820  12.468 -0.7736  0.8721 -0.1792
 7944TIP3    H248028   6.523   3.807  12.527 -1.6494  0.3659 -2.2259
 7945TIP3   OH248029   4.084   2.289  12.486  0.7814  0.2113 -0.5978
 7945TIP3    H148030   4.178   2.305  12.476  0.5713  1.1888 -1.1637
 7945TIP3    H248031   4.052   2.366  12.533  0.3436 -0.3837  0.0975
 7946TIP3   OH248032   5.721   1.183  10.401  0.1112 -0.3757  0.0568
 7946TIP3    H148033   5.673   1.118  10.453 -1.2611 -1.0627 -1.9539
 7946TIP3    H248034   5.813   1.163  10.418 -0.2855 -2.0805  0.4189
 7947TIP3   OH248035   2.092   0.540  12.653  0.0665 -0.7704  0.1963
 7947TIP3    H148036   2.039   0.603  12.701 -0.7584 -0.4059 -1.1466
 7947TIP3    H248037   2.160   0.514  12.716  0.2101  1.1510  0.9287
 7948TIP3   OH248038   7.345   4.023  13.227 -0.3966  0.0794 -0.7147
 7948TIP3    H148039   7.307   3.951  13.277 -0.9448  0.4704 -0.5692
 7948TIP3    H248040   7.408   3.980  13.169  0.5856 -0.3304  0.6151
 7949TIP3   OH248041   3.965   2.753  11.759  0.2556 -0.3617  0.3062
 7949TIP3    H148042   3.968   2.683  11.695  0.8916 -1.4889  1.5266
 7949TIP3    H248043   3.918   2.716  11.834  1.6627  0.0766  1.4532
 7950TIP3   OH248044   3.175   5.865  11.797  0.0619  0.1491 -0.6311
 7950TIP3    H148045   3.192   5.874  11.891 -0.0579 -1.1609 -0.4774
 7950TIP3    H248046   3.250   5.816  11.764  0.1932  0.7628 -1.2647
 7951TIP3   OH248047   0.688   5.989  12.051 -0.1699  0.3618  0.0442
 7951TIP3    H148048   0.750   6.034  12.109  0.1616 -3.0808  2.7159
 7951TIP3    H248049   0.739   5.968  11.973  0.7651  1.1705  0.4131
 7952TIP3   OH248050   5.681   5.648  11.234  0.1742 -0.2426  0.2249
 7952TIP3    H148051   5.663   5.671  11.142 -0.1070 -1.2629  0.0198
 7952TIP3    H248052   5.684   5.733  11.279 -1.5628  0.1844 -0.3782
 7953TIP3   OH248053   3.786   7.485  10.449 -0.1230 -0.5069 -0.1398
 7953TIP3    H148054   3.758   7.552  10.387 -0.4181  0.6014  1.1414
 7953TIP3    H248055   3.762   7.520  10.535  2.7008 -0.7339  0.8496
 7954TIP3   OH248056   5.155   0.411  10.832 -0.1873 -0.1097 -0.0997
 7954TIP3    H148057   5.112   0.415  10.747 -1.2848  2.6359  0.4684
 7954TIP3    H248058   5.149   0.320  10.858  0.3758 -1.1024 -3.0070
 7955TIP3   OH248059   3.083   1.943  12.519 -0.1222  0.4376  0.4505
 7955TIP3    H148060   2.988   1.953  12.510 -0.3859 -1.1776  1.2020
 7955TIP3    H248061   3.107   1.881  12.450  0.4902  1.1988 -0.0464
 7956TIP3   OH248062   6.682   3.014  12.539 -0.5639  0.4429  0.0302
 7956TIP3    H148063   6.764   3.031  12.585 -0.3723  2.1678 -0.8532
 7956TIP3    H248064   6.614   3.032  12.604 -0.2592  0.2888  0.3933
 7957TIP3   OH248065   6.899   3.800  12.038 -0.0528 -0.2847  0.5979
 7957TIP3    H148066   6.860   3.843  12.114  0.3770 -1.8634  1.7664
 7957TIP3    H248067   6.913   3.871  11.974 -2.4426  0.7218  1.1035
 7958TIP3   OH248068   3.585   6.987  11.819  0.8913  0.1112  0.4931
 7958TIP3    H148069   3.527   6.911  11.826  2.0602 -0.6859  2.3458
 7958TIP3    H248070   3.526   7.062  11.827 -0.0306 -0.6464  1.0374
 7959TIP3   OH248071   6.709   2.251  12.081 -0.3904 -0.4935 -0.7415
 7959TIP3    H148072   6.751   2.216  12.159  0.5347  1.6419 -0.2055
 7959TIP3    H248073   6.780   2.259  12.017 -0.9804 -1.4500 -1.5555
 7960TIP3   OH248074   6.853   7.035  11.270  0.1146  0.5378 -0.7272
 7960TIP3    H148075   6.816   6.996  11.190  0.9923 -1.7551 -0.1182
 7960TIP3    H248076   6.786   7.018  11.337  0.1277  0.8807 -0.6304
 7961TIP3   OH248077   0.911   7.211  11.400  0.3741  0.0072 -0.1840
 7961TIP3    H148078   0.851   7.216  11.326  1.2706  0.4359 -0.9149
 7961TIP3    H248079   0.968   7.288  11.390  0.7041 -0.0930  0.7862
 7962TIP3   OH248080   2.485   2.298  10.218 -0.3631  0.1850  0.6504
 7962TIP3    H148081   2.517   2.213  10.248  0.4620  0.4700  0.6141
 7962TIP3    H248082   2.562   2.339  10.177 -0.5241  1.2799  1.4040
 7963TIP3   OH248083   7.489   1.255  10.783  0.1973  0.2343 -0.0492
 7963TIP3    H148084   7.550   1.328  10.783 -0.0055  0.4072 -0.3058
 7963TIP3    H248085   7.533   1.186  10.733  0.2338  0.3122 -0.1237
 7964TIP3   OH248086   7.020   5.520  11.486 -0.2559 -0.0771  0.0582
 7964TIP3    H148087   7.105   5.508  11.529  0.0677 -0.8865 -0.7585
 7964TIP3    H248088   6.960   5.540  11.557  0.1256 -2.0458  1.0153
 7965TIP3   OH248089   3.757   2.101  10.212 -0.2578  0.4844  0.2911
 7965TIP3    H148090   3.725   2.037  10.276  0.2062 -0.3297 -0.2749
 7965TIP3    H248091   3.851   2.081  10.204 -0.5308 -0.2447 -1.5474
 7966TIP3   OH248092   2.115   6.195  11.687  0.4849  0.4624  0.1161
 7966TIP3    H148093   2.061   6.268  11.719 -1.1487 -0.6310 -0.0517
 7966TIP3    H248094   2.071   6.165  11.608  0.2680 -1.6644  0.9901
 7967TIP3   OH248095   5.850   3.936  13.351  0.3327 -0.4218 -0.1012
 7967TIP3    H148096   5.887   4.024  13.348  1.2559 -0.6598  2.2686
 7967TIP3    H248097   5.912   3.886  13.404 -1.2252 -1.9764  0.3330
 7968TIP3   OH248098   4.876   1.882  11.917  0.2960 -0.1528  0.3038
 7968TIP3    H148099   4.942   1.834  11.867  1.4571  0.6518  1.0231
 7968TIP3    H248100   4.863   1.963  11.867  2.0097  0.9976  1.6095
 7969TIP3   OH248101   5.806   2.613  12.155 -0.1912  0.4376 -0.2458
 7969TIP3    H148102   5.727   2.584  12.110 -0.3343 -1.3759  1.0873
 7969TIP3    H248103   5.878   2.568  12.110 -0.1360  0.2291  0.0523
 7970TIP3   OH248104   7.611   6.202  11.524  0.5748 -0.3972 -0.0042
 7970TIP3    H148105   7.586   6.243  11.606  2.3993 -0.1841  0.4776
 7970TIP3    H248106   7.573   6.114  11.529 -0.9170  0.2225  0.2043
 7971TIP3   OH248107   4.799   5.093  12.307 -1.0054 -0.0447  0.0064
 7971TIP3    H148108   4.829   5.135  12.388 -1.3485 -0.4563  0.3531
 7971TIP3    H248109   4.720   5.046  12.333 -2.1928  1.3218 -0.9618
 7972TIP3   OH248110   5.367   0.666  12.727  0.0621  0.2126 -0.4481
 7972TIP3    H148111   5.322   0.622  12.798  1.3006  1.0020  0.8888
 7972TIP3    H248112   5.297   0.696  12.668 -1.0353  0.0772  0.7508
 7973TIP3   OH248113   7.485   0.806  11.188 -0.8696  0.1425 -0.2029
 7973TIP3    H148114   7.528   0.760  11.260 -1.5369  0.5007  0.4370
 7973TIP3    H248115   7.497   0.899  11.209  1.0369  0.3258 -1.8141
 7974TIP3   OH248116   1.605   5.378  12.659 -0.1862  0.4771 -0.5415
 7974TIP3    H148117   1.573   5.461  12.695  0.6627  1.1927 -1.3692
 7974TIP3    H248118   1.530   5.341  12.614 -0.7557  0.4603  0.4012
 7975TIP3   OH248119   1.579   5.115  10.975 -0.0395  0.1597 -0.1682
 7975TIP3    H148120   1.663   5.150  11.006 -1.6006  3.2402  1.0471
 7975TIP3    H248121   1.518   5.134  11.045 -1.7306 -2.6274 -0.7262
 7976TIP3   OH248122   3.368   0.808  10.665 -0.0228  0.5639 -0.0899
 7976TIP3    H148123   3.409   0.874  10.608 -0.0263 -1.1081 -2.1488
 7976TIP3    H248124   3.435   0.788  10.730  0.9395  0.7686 -0.9776
 7977TIP3   OH248125   6.891   5.319  11.303 -0.3168 -0.3678  0.5625
 7977TIP3    H148126   6.938   5.366  11.372  0.4426 -0.6820  0.2734
 7977TIP3    H248127   6.860   5.239  11.346  1.8050 -1.5225  0.1456
 7978TIP3   OH248128   0.981   0.453  10.766  0.0244  0.4633 -0.7196
 7978TIP3    H148129   0.983   0.504  10.847  1.4573  1.5181 -1.3767
 7978TIP3    H248130   0.944   0.513  10.701  1.2803  0.5536 -1.3909
 7979TIP3   OH248131   3.373   1.332  11.851 -0.1099  0.4281 -0.4076
 7979TIP3    H148132   3.396   1.341  11.943  0.9747  1.9828 -0.7824
 7979TIP3    H248133   3.296   1.387  11.840  0.5092  1.2766 -0.6521
 7980TIP3   OH248134   1.787   0.454  12.244  0.4061 -0.1229 -0.3001
 7980TIP3    H148135   1.879   0.445  12.269 -0.3358 -0.5318  2.6455
 7980TIP3    H248136   1.782   0.415  12.157  3.2895  1.4820 -1.3480
 7981TIP3   OH248137   3.556   6.113  12.556 -0.0003 -0.3221 -0.1065
 7981TIP3    H148138   3.522   6.047  12.495  3.5266 -2.3992 -0.1360
 7981TIP3    H248139   3.510   6.095  12.638 -0.9481 -1.1138 -0.7816
 7982TIP3   OH248140   7.577   2.249  10.394  0.3245 -0.2060  0.5954
 7982TIP3    H148141   7.660   2.207  10.417 -0.4145 -1.5276  0.9585
 7982TIP3    H248142   7.518   2.176  10.374 -1.0664  0.6433  1.4423
 7983TIP3   OH248143   3.739   2.268  11.186  0.3830  0.3734  0.1479
 7983TIP3    H148144   3.734   2.292  11.093  0.6070 -0.0728  0.0176
 7983TIP3    H248145   3.711   2.347  11.232  0.6218  0.7201 -0.2864
 7984TIP3   OH248146   0.255   4.524  11.612 -0.5980  0.3289  0.0439
 7984TIP3    H148147   0.209   4.472  11.678 -0.0089  0.6413  0.7125
 7984TIP3    H248148   0.257   4.468  11.535 -1.3639 -0.0110  0.2618
 7985TIP3   OH248149   5.046   0.482  11.715 -0.1663  0.1911  0.6458
 7985TIP3    H148150   5.134   0.459  11.745  0.3500  0.6301 -0.4698
 7985TIP3    H248151   5.005   0.523  11.791  0.1534 -1.1080  1.5515
 7986TIP3   OH248152   6.918   6.171  12.044  0.4829 -0.3811 -0.3470
 7986TIP3    H148153   6.853   6.231  12.080  0.5208 -1.9230  2.5882
 7986TIP3    H248154   6.913   6.184  11.949 -2.7423  0.9009 -0.1231
 7987TIP3   OH248155   5.576   5.858  10.600 -0.3350 -0.4891 -0.0452
 7987TIP3    H148156   5.562   5.776  10.554 -0.3211 -0.0973 -0.7648
 7987TIP3    H248157   5.499   5.868  10.656  0.1223 -1.4645  0.8077
 7988TIP3   OH248158   6.525   1.576  11.417  0.1833 -0.4003 -0.6415
 7988TIP3    H148159   6.434   1.568  11.444  0.2505 -2.3794 -0.8486
 7988TIP3    H248160   6.569   1.502  11.458  1.6989  0.4508 -0.6412
 7989TIP3   OH248161   7.223   6.407  11.684  0.4086 -0.0398 -0.0593
 7989TIP3    H148162   7.252   6.358  11.761  0.7708  0.9554  0.4528
 7989TIP3    H248163   7.179   6.341  11.630 -0.0200 -0.7273  1.0720
 7990TIP3   OH248164   2.622   7.350  12.227  0.2597  0.3565 -0.1501
 7990TIP3    H148165   2.702   7.373  12.179  0.3884 -1.7559 -1.0556
 7990TIP3    H248166   2.613   7.256  12.214 -1.1165  0.1522  1.9139
 7991TIP3   OH248167   4.211   2.548  11.579  0.8028  0.1949 -0.1492
 7991TIP3    H148168   4.263   2.514  11.652  1.0232 -1.4072 -1.0073
 7991TIP3    H248169   4.120   2.526  11.601  0.7898  0.3773 -0.0185
 7992TIP3   OH248170   2.857   6.157  12.803 -0.1917 -0.2158  0.3366
 7992TIP3    H148171   2.787   6.143  12.867 -0.6458 -1.7040 -0.4355
 7992TIP3    H248172   2.935   6.122  12.845 -0.9826 -3.7680 -0.8635
 7993TIP3   OH248173   2.820   0.689  12.493  0.1677 -0.0726 -0.7350
 7993TIP3    H148174   2.748   0.700  12.432  0.2423  1.5522 -0.5699
 7993TIP3    H248175   2.790   0.732  12.574  0.9328 -0.2257 -0.3555
 7994TIP3   OH248176   7.321   4.280  11.485 -0.2640 -0.3673 -0.1826
 7994TIP3    H148177   7.238   4.326  11.497 -1.0725 -1.6705 -0.5451
 7994TIP3    H248178   7.350   4.259  11.574  0.2397  1.0050  0.0009
 7995TIP3   OH248179   6.115   1.639  12.935  0.0243  0.6680 -0.6221
 7995TIP3    H148180   6.190   1.693  12.959  0.2188 -0.6764  2.1789
 7995TIP3    H248181   6.148   1.549  12.938 -1.4080  0.1159 -0.4609
 7996TIP3   OH248182   6.704   7.017  11.497  0.3197 -0.5123  0.0176
 7996TIP3    H148183   6.676   6.942  11.548 -0.1548  0.4002  1.1546
 7996TIP3    H248184   6.769   7.061  11.552 -0.9780  1.0851  0.3572
 7997TIP3   OH248185   2.439   6.673  10.684 -0.1854  0.7883 -0.9177
 7997TIP3    H148186   2.370   6.624  10.730  0.7409 -0.1145 -0.4580
 7997TIP3    H248187   2.499   6.606  10.652  0.6921  1.5853 -0.9843
 7998TIP3   OH248188   1.189   3.306  11.270 -0.1119  0.4763  0.5582
 7998TIP3    H148189   1.236   3.371  11.323  0.4499  1.2443 -0.8360
 7998TIP3    H248190   1.149   3.357  11.200  0.2317 -0.6664 -0.4971
 7999TIP3   OH248191   3.693   1.576  10.607  0.0066  0.3175 -0.2589
 7999TIP3    H148192   3.667   1.656  10.561 -3.0208 -0.6181 -0.4331
 7999TIP3    H248193   3.611   1.544  10.645  1.5907 -1.3903  1.9167
 8000TIP3   OH248194   5.765   3.861  10.939  0.1551  0.0123 -0.3364
 8000TIP3    H148195   5.816   3.859  10.858  1.0028 -0.8388  0.1995
 8000TIP3    H248196   5.678   3.833  10.912  0.7405 -1.4975 -0.7624
 8001TIP3   OH248197   6.865   4.830  12.939  0.8084  0.0844 -0.2997
 8001TIP3    H148198   6.900   4.742  12.924 -0.0053 -0.4124  0.5993
 8001TIP3    H248199   6.780   4.816  12.979  0.1739  1.2873 -1.1616
 8002TIP3   OH248200   5.843   3.503  11.531  0.1739 -0.6032  0.7228
 8002TIP3    H148201   5.898   3.578  11.555  0.0161 -0.2396 -0.0287
 8002TIP3    H248202   5.761   3.518  11.576  1.0945 -1.8406  2.9684
 8003TIP3   OH248203   6.992   1.605  10.817  0.4470 -0.8532 -0.1314
 8003TIP3    H148204   6.964   1.545  10.886 -0.6728 -0.6535 -0.4036
 8003TIP3    H248205   6.977   1.557  10.735 -0.1297 -0.3449 -0.3317
 8004TIP3   OH248206   0.053   4.749  11.026 -0.2814  0.1625 -0.6578
 8004TIP3    H148207   0.129   4.721  11.077 -1.2633  0.2403  0.8819
 8004TIP3    H248208   0.065   4.843  11.016 -1.0111  0.4769  1.0896
 8005TIP3   OH248209   3.450   1.471  12.701  0.2215  0.7123  0.0174
 8005TIP3    H148210   3.519   1.455  12.637  0.8778  1.0876  0.6232
 8005TIP3    H248211   3.376   1.417  12.671  1.2035 -0.7048  0.0880
 8006TIP3   OH248212   2.918   4.885  12.624 -0.0025 -0.3714  0.2777
 8006TIP3    H148213   2.915   4.789  12.620 -0.8696 -0.3117 -2.2631
 8006TIP3    H248214   2.976   4.911  12.553 -0.4836  1.0252  0.3617
 8007TIP3   OH248215   7.273   3.943  12.542  0.0198 -0.3562  0.1166
 8007TIP3    H148216   7.270   4.013  12.607 -3.3286  0.3064 -0.5563
 8007TIP3    H248217   7.266   3.862  12.593  1.4830 -0.0894  0.7659
 8008TIP3   OH248218   5.130   0.635  10.981  0.0801 -0.1192 -0.8493
 8008TIP3    H148219   5.150   0.560  10.926 -2.1559 -1.1114 -0.3846
 8008TIP3    H248220   5.038   0.654  10.965  0.1368  1.4529  0.3476
 8009TIP3   OH248221   2.514   2.233  11.374 -0.4662  0.2004 -0.4800
 8009TIP3    H148222   2.527   2.151  11.421 -0.6510  0.4218 -0.0372
 8009TIP3    H248223   2.538   2.213  11.283  0.1779 -0.1536 -0.2407
 8010TIP3   OH248224   0.966   0.907  11.819  0.0872 -0.3038  0.1538
 8010TIP3    H148225   0.965   0.958  11.738 -1.7256  1.9167  1.4701
 8010TIP3    H248226   0.926   0.823  11.795 -1.3132  0.6679 -1.0927
 8011TIP3   OH248227   3.018   0.377  10.296 -0.4016 -0.4101 -0.0775
 8011TIP3    H148228   2.978   0.329  10.369 -0.1195 -2.8576 -1.4097
 8011TIP3    H248229   3.108   0.394  10.326 -0.2580 -1.4820  0.1648
 8012TIP3   OH248230   2.881   7.600  12.667 -0.1655 -0.2777 -0.2108
 8012TIP3    H148231   2.937   7.534  12.708 -1.1849 -0.5009  0.8579
 8012TIP3    H248232   2.797   7.593  12.713 -0.6639  0.9560 -0.8875
 8013TIP3   OH248233   0.602   2.763  12.157 -0.1675  0.2167  0.1630
 8013TIP3    H148234   0.595   2.855  12.133 -1.8926 -0.0776 -0.6736
 8013TIP3    H248235   0.654   2.723  12.087  0.1592  0.4620  0.2654
 8014TIP3   OH248236   4.349   5.852  10.831  0.5462 -0.2535  0.2035
 8014TIP3    H148237   4.402   5.818  10.904  2.2690 -0.2525 -0.9965
 8014TIP3    H248238   4.356   5.784  10.764 -1.0704 -0.2754  0.0188
 8015TIP3   OH248239   5.058   5.155  10.266 -0.5799 -0.2313  0.8031
 8015TIP3    H148240   5.134   5.156  10.325  0.6867  0.1993 -0.7667
 8015TIP3    H248241   5.029   5.246  10.263 -1.6253 -0.5062  1.9366
 8016TIP3   OH248242   6.664   4.645  11.780 -0.9551 -0.3689  0.0361
 8016TIP3    H148243   6.651   4.728  11.827 -1.5422 -0.0039 -0.7506
 8016TIP3    H248244   6.578   4.626  11.742 -0.3865 -0.4385 -1.2414
 8017TIP3   OH248245   7.460   7.117  12.149 -0.2038 -0.5758  0.2326
 8017TIP3    H148246   7.504   7.140  12.231 -0.2434  0.1023  0.0710
 8017TIP3    H248247   7.368   7.104  12.174 -0.0873 -1.0536  0.4115
 8018TIP3   OH248248   6.836   7.221  11.024  0.1466 -0.6309  0.2465
 8018TIP3    H148249   6.814   7.130  11.004 -1.3276 -0.8838  2.6411
 8018TIP3    H248250   6.760   7.271  10.993  0.1965 -0.4247  0.4540
 8019TIP3   OH248251   4.015   4.563  10.941  0.0174  0.2524 -0.0402
 8019TIP3    H148252   4.069   4.576  11.019 -1.0021 -1.0228  0.9364
 8019TIP3    H248253   3.952   4.636  10.943  1.0236  1.1534 -0.6065
 8020TIP3   OH248254   3.487   2.272  11.424  0.6396 -0.2661  0.1193
 8020TIP3    H148255   3.426   2.229  11.365  0.0930  0.4686  0.1316
 8020TIP3    H248256   3.524   2.202  11.477 -0.8579 -0.6320  0.7291
 8021TIP3   OH248257   2.907   1.505  11.243  0.2011 -0.4821  0.1189
 8021TIP3    H148258   2.812   1.512  11.243  0.3062  1.3243 -0.4365
 8021TIP3    H248259   2.926   1.430  11.186 -0.8709 -0.8895  0.2811
 8022TIP3   OH248260   6.707   2.927  11.302  0.4282 -0.7138  0.8072
 8022TIP3    H148261   6.797   2.932  11.270  1.0187  2.6565  2.5150
 8022TIP3    H248262   6.653   2.935  11.224  1.7439  1.4327  0.0221
 8023TIP3   OH248263   3.528   4.072  13.155 -0.4765 -0.3798  0.3453
 8023TIP3    H148264   3.487   3.989  13.179 -1.0652  0.4376  2.4039
 8023TIP3    H248265   3.603   4.079  13.213 -0.7177  0.7470  0.5420
 8024TIP3   OH248266   1.936   1.865  10.898  0.5842  0.2412 -0.2181
 8024TIP3    H148267   1.889   1.784  10.917  1.7002 -0.7001 -1.2784
 8024TIP3    H248268   1.991   1.879  10.975 -2.3514  2.1593  1.7122
 8025TIP3   OH248269   6.134   2.008  11.100 -0.0873  0.1796 -0.1548
 8025TIP3    H148270   6.062   2.053  11.055  0.6216  0.6336 -0.8607
 8025TIP3    H248271   6.132   2.043  11.189 -0.9271 -0.0385 -0.0804
 8026TIP3   OH248272   1.339   1.496  10.918 -0.0106  0.3732 -0.3411
 8026TIP3    H148273   1.364   1.449  10.839 -0.7211  1.4275 -1.2163
 8026TIP3    H248274   1.361   1.587  10.900  0.1588  0.5755  0.8234
 8027TIP3   OH248275   1.311   6.817  11.926 -0.0975 -0.2456 -0.0338
 8027TIP3    H148276   1.270   6.899  11.953  0.7124 -0.0485  0.6289
 8027TIP3    H248277   1.296   6.812  11.832 -0.0364  0.7284 -0.0997
 8028TIP3   OH248278   7.667   3.222  11.263  0.3521  0.3545  0.5189
 8028TIP3    H148279   7.659   3.268  11.346 -1.1799  1.7276 -0.3355
 8028TIP3    H248280   7.577   3.209  11.234  0.7757 -1.9617  0.0253
 8029TIP3   OH248281   6.075   2.082  12.848 -0.4631  0.1011 -0.1029
 8029TIP3    H148282   5.982   2.098  12.835 -0.4452  0.4467  0.1664
 8029TIP3    H248283   6.106   2.159  12.895 -0.0435 -0.0180 -0.1793
 8030TIP3   OH248284   0.706   3.738  12.334 -0.3690  0.5046 -0.3237
 8030TIP3    H148285   0.745   3.651  12.338 -1.1629  0.1290 -0.6789
 8030TIP3    H248286   0.643   3.740  12.406 -1.5462  0.1861 -1.3170
 8031TIP3   OH248287   6.699   0.023  12.356 -0.3327 -0.4564 -0.1522
 8031TIP3    H148288   6.667   0.015  12.446 -1.3184 -2.9880 -0.6473
 8031TIP3    H248289   6.795   0.016  12.364  0.0025  3.1811  0.9574
 8032TIP3   OH248290   7.157   5.310  10.701  0.1807  0.6852 -0.0700
 8032TIP3    H148291   7.170   5.263  10.618  1.3041 -0.1237  0.5429
 8032TIP3    H248292   7.062   5.310  10.713 -0.0740  1.4716 -1.7116
 8033TIP3   OH248293   4.630   5.920  13.042  0.0232  0.8484 -0.2610
 8033TIP3    H148294   4.543   5.960  13.047 -0.6275 -0.4213 -1.0037
 8033TIP3    H248295   4.687   5.983  13.086 -1.2018  1.8779 -0.0695
 8034TIP3   OH248296   1.119   0.036  12.571  0.2491 -0.8409 -0.1585
 8034TIP3    H148297   1.092   0.002  12.655  0.6525 -1.7935 -0.4008
 8034TIP3    H248298   1.038   0.045  12.521  0.1138 -1.2168 -0.0076
 8035TIP3   OH248299   5.924   7.130  11.408  0.4147  0.2285  0.6592
 8035TIP3    H148300   5.983   7.061  11.378  0.7762  0.0895  1.6595
 8035TIP3    H248301   5.924   7.194  11.337  2.9628  0.9777  1.2401
 8036TIP3   OH248302   2.109   6.751  10.512  0.1709 -0.4228  0.3320
 8036TIP3    H148303   2.032   6.765  10.456 -0.1381 -1.1108  0.5725
 8036TIP3    H248304   2.163   6.688  10.463  1.4123  1.2710 -0.6166
 8037TIP3   OH248305   2.975   1.269  11.144 -0.3507  0.1509 -0.0546
 8037TIP3    H148306   2.924   1.188  11.140 -0.1820  0.0942 -1.5670
 8037TIP3    H248307   3.032   1.265  11.067  1.2526  0.6729  1.0493
 8038TIP3   OH248308   1.966   4.061  10.472  0.1018  0.3919  0.3288
 8038TIP3    H148309   2.053   4.094  10.495  0.1210  1.1634 -0.7690
 8038TIP3    H248310   1.920   4.137  10.435 -1.7841  0.5358  2.7323
 8039TIP3   OH248311   5.850   1.101  10.917  0.3931  0.2175 -0.9325
 8039TIP3    H148312   5.928   1.157  10.915  0.6089 -0.0740 -0.7473
 8039TIP3    H248313   5.779   1.159  10.893  0.2340  1.2110  1.5616
 8040TIP3   OH248314   4.089   2.830  10.538 -0.0246 -0.6049 -0.0492
 8040TIP3    H148315   4.097   2.851  10.631  1.0283 -1.7580  0.1523
 8040TIP3    H248316   4.008   2.872  10.511 -0.2985 -0.1591  1.3672
 8041TIP3   OH248317   4.941   3.799  11.340 -0.3467 -0.1526  0.3571
 8041TIP3    H148318   4.973   3.850  11.266 -0.2076  0.5773  0.9075
 8041TIP3    H248319   4.852   3.830  11.355 -0.8648 -1.2521 -0.3426
 8042TIP3   OH248320   2.812   4.035  11.878 -0.1186 -0.0930 -0.1892
 8042TIP3    H148321   2.742   4.047  11.942  1.0622 -0.6721  1.2795
 8042TIP3    H248322   2.813   4.117  11.828 -1.3287  0.2158  0.2697
 8043TIP3   OH248323   2.559   4.945  11.107  0.2952 -0.4437  0.0759
 8043TIP3    H148324   2.536   5.013  11.171  1.1109 -1.6106  1.6995
 8043TIP3    H248325   2.494   4.876  11.123  0.5898 -0.7993 -0.2571
 8044TIP3   OH248326   2.168   2.207  11.378  0.0080  0.0559  0.6141
 8044TIP3    H148327   2.124   2.232  11.459 -0.3631 -0.3630  0.5455
 8044TIP3    H248328   2.258   2.185  11.405  0.0560  0.5077  0.8168
 8045TIP3   OH248329   4.378   4.827  12.625  0.5487 -0.3769 -0.0063
 8045TIP3    H148330   4.296   4.778  12.621  0.3815 -0.1010  0.0371
 8045TIP3    H248331   4.397   4.834  12.718  0.1434  0.3497  0.0279
 8046TIP3   OH248332   3.835   3.273  11.876 -0.4602  0.3984 -0.0585
 8046TIP3    H148333   3.845   3.184  11.844  0.0618  0.3093  0.3309
 8046TIP3    H248334   3.844   3.328  11.799 -0.4510  0.1296 -0.2493
 8047TIP3   OH248335   2.444   6.720  12.375  0.0992 -0.3058  0.0241
 8047TIP3    H148336   2.537   6.711  12.396 -0.2164  0.8877  2.1551
 8047TIP3    H248337   2.406   6.636  12.398  0.7522 -1.1307 -1.7319
 8048TIP3   OH248338   0.642   6.228  11.395 -0.6310 -0.1487 -0.1632
 8048TIP3    H148339   0.633   6.142  11.436 -0.6005 -0.2756 -0.4156
 8048TIP3    H248340   0.636   6.210  11.301 -3.1328  0.4248 -0.1752
 8049TIP3   OH248341   0.929   1.064  11.595  0.0997  0.6018  0.1960
 8049TIP3    H148342   0.915   1.151  11.633 -2.5122  0.6236 -0.5913
 8049TIP3    H248343   0.895   1.071  11.506 -0.2202 -1.2330  0.1387
 8050TIP3   OH248344   4.553   4.313  10.382  0.7248  0.7448  0.0544
 8050TIP3    H148345   4.624   4.255  10.352  0.4363  1.5852 -2.4925
 8050TIP3    H248346   4.543   4.377  10.311 -2.9816  0.2936 -0.0124
 8051TIP3   OH248347   6.611   3.574  10.524  0.3287  0.9490 -0.0268
 8051TIP3    H148348   6.653   3.601  10.442  2.0245  1.0817  0.8440
 8051TIP3    H248349   6.596   3.656  10.571 -0.2954  0.8458 -0.0480
 8052TIP3   OH248350   7.419   3.469  12.781 -0.5658 -0.1549 -0.3204
 8052TIP3    H148351   7.470   3.540  12.818  0.7070 -1.0931 -0.2174
 8052TIP3    H248352   7.431   3.396  12.841  0.0593 -1.1498 -1.6063
 8053TIP3   OH248353   6.493   2.126  10.444 -0.6068  0.1323 -0.0189
 8053TIP3    H148354   6.420   2.183  10.467  0.0804  1.5434 -1.2049
 8053TIP3    H248355   6.454   2.040  10.433 -1.4338 -0.0949  3.4597
 8054TIP3   OH248356   6.347   0.727  10.601 -0.0047 -0.3994 -0.1723
 8054TIP3    H148357   6.259   0.749  10.629  0.4576  0.0679  0.9601
 8054TIP3    H248358   6.403   0.792  10.643  0.9509 -1.1183 -0.2955
 8055TIP3   OH248359   1.431   2.891  10.288  0.1813  0.0745  0.2897
 8055TIP3    H148360   1.478   2.810  10.307 -0.8573 -0.2272  1.7970
 8055TIP3    H248361   1.415   2.930  10.374 -1.8782  0.3815 -0.1718
 8056TIP3   OH248362   6.241   7.451  11.603 -0.2333  0.4115 -0.3082
 8056TIP3    H148363   6.300   7.406  11.543 -0.7821  0.8260 -1.1887
 8056TIP3    H248364   6.282   7.443  11.689  1.0263  0.5712 -0.8776
 8057TIP3   OH248365   2.929   5.696  10.984 -1.0851 -0.2937  0.2775
 8057TIP3    H148366   2.984   5.620  10.965  0.5512  0.9182 -0.0723
 8057TIP3    H248367   2.960   5.727  11.069 -3.0961 -1.1302  1.3693
 8058TIP3   OH248368   2.200   7.095  12.573  0.0436 -0.1992  0.3664
 8058TIP3    H148369   2.269   7.136  12.625  0.3418  0.9561 -0.8802
 8058TIP3    H248370   2.224   7.003  12.569  2.3727  0.3625 -1.2009
 8059TIP3   OH248371   2.156   2.703  10.871 -0.3247  0.5870 -0.2554
 8059TIP3    H148372   2.101   2.736  10.800 -0.6725  2.8942  0.9823
 8059TIP3    H248373   2.242   2.689  10.830 -0.2025  2.9459 -0.9609
 8060TIP3   OH248374   4.389   4.304  11.971  0.2140 -0.3115  0.6139
 8060TIP3    H148375   4.478   4.327  11.945 -0.4605  0.8217 -0.8611
 8060TIP3    H248376   4.344   4.285  11.889 -0.8923 -0.9944  1.3435
 8061TIP3   OH248377   7.208   1.996  12.339  0.6196 -0.2486 -0.3289
 8061TIP3    H148378   7.134   1.945  12.304  0.7083  0.1100 -1.0556
 8061TIP3    H248379   7.252   2.030  12.262  1.0973  0.1843  0.1271
 8062TIP3   OH248380   0.569   5.567  11.886 -0.5606 -0.9282 -0.5474
 8062TIP3    H148381   0.525   5.487  11.858  0.2222 -1.3637 -0.5698
 8062TIP3    H248382   0.651   5.536  11.926 -1.4372 -0.3278  1.8567
 8063TIP3   OH248383   3.034   3.362  10.707  0.8745 -0.0970  0.3513
 8063TIP3    H148384   3.040   3.458  10.716 -0.2291  0.2479 -1.7536
 8063TIP3    H248385   2.971   3.335  10.773 -0.6085  1.0112 -0.5368
 8064TIP3   OH248386   6.134   0.977  12.098  0.0744  0.0370 -0.8905
 8064TIP3    H148387   6.225   0.955  12.115  0.3397 -0.4275 -2.6847
 8064TIP3    H248388   6.085   0.927  12.163  1.0746  0.2348  0.0433
 8065TIP3   OH248389   4.172   4.322  12.208 -0.0365 -0.4076 -0.3153
 8065TIP3    H148390   4.207   4.296  12.123 -1.7062  1.3715 -1.6386
 8065TIP3    H248391   4.186   4.417  12.212 -1.5390 -0.1977  0.6314
 8066TIP3   OH248392   3.027   2.488  11.874  0.3298 -0.2222 -0.7945
 8066TIP3    H148393   3.083   2.534  11.937 -1.0155 -0.3104  0.5106
 8066TIP3    H248394   2.947   2.469  11.922  1.4556 -5.7445 -0.4897
 8067TIP3   OH248395   4.026   7.074  11.483  0.4488  0.6559  0.0621
 8067TIP3    H148396   4.055   7.132  11.412 -0.5416  0.2901 -0.6634
 8067TIP3    H248397   3.935   7.053  11.461  0.2077  0.3127  1.3066
 8068TIP3   OH248398   4.993   7.560  12.849 -0.4709 -0.4165 -0.1504
 8068TIP3    H148399   5.024   7.640  12.891  1.7089  0.1030 -2.5426
 8068TIP3    H248400   5.053   7.492  12.879  0.3544 -0.2656 -1.3537
 8069TIP3   OH248401   1.947   2.104  11.047 -0.4057 -0.3237  0.2183
 8069TIP3    H148402   1.946   2.030  11.108 -0.5650 -0.3588  0.1737
 8069TIP3    H248403   1.899   2.173  11.092 -2.2538 -0.9773 -0.6418
 8070TIP3   OH248404   6.934   3.823  10.567 -0.0671 -0.1518  0.2832
 8070TIP3    H148405   6.916   3.779  10.484 -1.4430 -0.6475  0.8056
 8070TIP3    H248406   6.864   3.888  10.575  1.0893  1.1335  0.2266
 8071TIP3   OH248407   4.957   6.376  11.506  0.2924  0.3655  0.2874
 8071TIP3    H148408   5.001   6.353  11.424  1.1733 -1.8340  1.2853
 8071TIP3    H248409   5.014   6.442  11.546 -0.7418  2.3383 -1.3254
 8072TIP3   OH248410   3.075   3.950  12.006 -0.2234  0.0732 -0.0200
 8072TIP3    H148411   2.982   3.935  11.990 -0.2262  1.2006 -1.1815
 8072TIP3    H248412   3.092   4.037  11.970  1.3019 -0.1416  0.1149
 8073TIP3   OH248413   7.655   1.855  11.819  0.0107 -0.3053 -0.7776
 8073TIP3    H148414   7.664   1.943  11.856  2.6713 -0.0291 -1.8349
 8073TIP3    H248415   7.590   1.864  11.750 -1.2423  0.3308  0.4558
 8074TIP3   OH248416   4.888   5.792  11.404 -0.2146 -0.6741  0.0961
 8074TIP3    H148417   4.841   5.861  11.357  0.6843  0.5014  0.8593
 8074TIP3    H248418   4.828   5.763  11.472 -0.0981  0.3580  0.6557
 8075TIP3   OH248419   0.983   5.199  11.162  0.0771  0.3566 -0.1518
 8075TIP3    H148420   0.962   5.225  11.072 -2.3179  1.1135  0.5642
 8075TIP3    H248421   1.013   5.108  11.154  1.2875  0.8479 -1.8283
 8076TIP3   OH248422   6.429   2.210  11.422 -0.0210 -0.0607  0.9182
 8076TIP3    H148423   6.509   2.260  11.407  0.1805  0.2351  2.6995
 8076TIP3    H248424   6.411   2.167  11.339  2.0145 -0.1732  0.4994
 8077TIP3   OH248425   4.918   1.831  12.210  0.1442 -0.3617  0.3938
 8077TIP3    H148426   4.883   1.851  12.124  1.5290  0.8098  0.0752
 8077TIP3    H248427   4.850   1.860  12.271  1.0422  3.2472 -0.1423
 8078TIP3   OH248428   3.633   4.083  10.292  0.1714 -0.0645 -0.1748
 8078TIP3    H148429   3.635   3.999  10.336 -1.5638 -0.6255 -1.0866
 8078TIP3    H248430   3.691   4.139  10.344 -1.6783 -0.6864  2.7958
 8079TIP3   OH248431   3.221   7.544  12.404 -0.1679 -0.0222 -0.1585
 8079TIP3    H148432   3.237   7.633  12.435 -1.5650  0.7333 -1.4979
 8079TIP3    H248433   3.270   7.537  12.322 -2.9430  0.8648 -2.0302
 8080TIP3   OH248434   5.547   2.275  11.327  0.3239  0.0164 -0.2047
 8080TIP3    H148435   5.530   2.366  11.303 -0.0937 -0.2672 -0.9792
 8080TIP3    H248436   5.495   2.223  11.266  0.2537 -0.7395  0.4836
 8081TIP3   OH248437   3.659   6.532  11.781  0.1737  0.1893  0.7612
 8081TIP3    H148438   3.682   6.578  11.862  0.5336 -0.3494  0.9696
 8081TIP3    H248439   3.741   6.527  11.732  0.1455 -0.2460  0.7535
 8082TIP3   OH248440   3.538   5.983  11.573 -0.3245 -0.3187 -0.4258
 8082TIP3    H148441   3.500   5.919  11.634 -0.4717 -0.7120 -0.9269
 8082TIP3    H248442   3.464   6.010  11.519  0.2277 -1.6894 -1.9485
 8083TIP3   OH248443   5.192   4.992  10.633  0.2748  0.6430 -0.3698
 8083TIP3    H148444   5.126   4.994  10.703  0.1600 -0.0713 -0.4500
 8083TIP3    H248445   5.274   4.975  10.678  0.1583 -0.1053 -0.4339
 8084TIP3   OH248446   7.350   4.885  10.273  0.2323 -0.3411  0.0298
 8084TIP3    H148447   7.438   4.912  10.297 -0.6825  1.7516  1.2131
 8084TIP3    H248448   7.319   4.834  10.347  0.1712 -0.4382 -0.0619
 8085TIP3   OH248449   4.090   4.511  11.438 -0.0435  0.0618  0.2405
 8085TIP3    H148450   4.161   4.449  11.418 -0.4753  0.3535 -2.5735
 8085TIP3    H248451   4.022   4.457  11.479  0.7731 -0.7223  0.5965
 8086TIP3   OH248452   6.462   2.237  11.937  0.2760 -0.0227  0.4411
 8086TIP3    H148453   6.555   2.238  11.961  0.1188 -0.3879  1.0852
 8086TIP3    H248454   6.431   2.151  11.964 -0.5481  0.5505  1.3760
 8087TIP3   OH248455   7.198   0.144  11.559 -0.0721 -0.5906  0.4579
 8087TIP3    H148456   7.151   0.067  11.591  0.6320 -1.3858 -0.3721
 8087TIP3    H248457   7.161   0.161  11.473 -0.9576  0.6659  1.0559
 8088TIP3   OH248458   7.629   5.342  10.663 -0.0457 -0.9405  0.4888
 8088TIP3    H148459   7.635   5.255  10.703 -0.4134 -1.1596  0.0834
 8088TIP3    H248460   7.536   5.365  10.669 -0.6889 -2.1765 -2.6399
 8089TIP3   OH248461   6.793   5.917  10.859 -0.3121 -0.0644  0.1425
 8089TIP3    H148462   6.726   5.986  10.861  0.1220  0.3828 -0.2213
 8089TIP3    H248463   6.756   5.845  10.910 -0.4620  0.7325  1.2093
 8090TIP3   OH248464   4.402   3.541  11.077 -0.0277  0.1553 -0.1165
 8090TIP3    H148465   4.460   3.554  11.152  0.0406  1.4118 -0.3606
 8090TIP3    H248466   4.320   3.582  11.103  0.6287  2.5276 -1.4628
 8091TIP3   OH248467   6.450   3.687  12.136  0.1552  0.0560  0.1789
 8091TIP3    H148468   6.509   3.634  12.190 -0.0886 -0.9653 -0.5180
 8091TIP3    H248469   6.409   3.623  12.077 -1.9730  0.6482  0.9244
 8092TIP3   OH248470   5.642   0.984  11.117 -0.1620 -0.1425 -0.2622
 8092TIP3    H148471   5.695   0.979  11.038  0.4739  1.1107  0.0660
 8092TIP3    H248472   5.607   0.895  11.128  0.4067 -0.5351 -1.4766
 8093TIP3   OH248473   3.056   4.739  11.179 -0.7257  0.5971  0.3029
 8093TIP3    H148474   2.967   4.764  11.156 -0.1549  1.2675 -1.3044
 8093TIP3    H248475   3.058   4.644  11.169 -0.6321  0.8099 -2.1282
 8094TIP3   OH248476   4.580   2.925  12.363 -0.1767  1.1101  0.1219
 8094TIP3    H148477   4.543   2.837  12.371  0.7601  0.4185 -2.2108
 8094TIP3    H248478   4.634   2.936  12.441  0.7675 -0.9759 -0.1735
 8095TIP3   OH248479   2.785   5.727  13.510  0.4191 -0.3969 -0.0654
 8095TIP3    H148480   2.782   5.823  13.513  2.7900 -0.2597 -0.2917
 8095TIP3    H248481   2.708   5.699  13.559 -1.7035  1.5947 -2.0352
 8096TIP3   OH248482   0.476   1.808  12.291  0.0219  0.5541 -0.0769
 8096TIP3    H148483   0.451   1.882  12.346 -0.4841  0.2940  0.0502
 8096TIP3    H248484   0.551   1.840  12.241 -0.0274  1.0647  0.1655
 8097TIP3   OH248485   7.386   4.874  10.928 -0.2438  0.2584  0.4452
 8097TIP3    H148486   7.355   4.815  10.996  0.4615 -0.2403  0.3453
 8097TIP3    H248487   7.420   4.950  10.976  0.9531 -0.4188  0.7147
 8098TIP3   OH248488   2.627   7.011  11.041  0.1326  0.2248  0.0787
 8098TIP3    H148489   2.626   6.982  11.132 -0.5636 -0.3785 -0.1104
 8098TIP3    H248490   2.658   6.935  10.992 -1.7329 -0.2747 -0.4241
 8099TIP3   OH248491   5.159   2.815  12.667 -0.1202 -0.0875 -0.3208
 8099TIP3    H148492   5.226   2.796  12.733 -0.2048 -2.4832 -0.8162
 8099TIP3    H248493   5.076   2.799  12.712 -0.3824  2.1021  0.0614
 8100TIP3   OH248494   6.508   5.759  11.158  0.7029  0.1112  0.1578
 8100TIP3    H148495   6.421   5.785  11.187  0.4439 -0.9788  0.4117
 8100TIP3    H248496   6.515   5.792  11.068  0.5914  1.4416  0.6193
 8101TIP3   OH248497   3.203   5.945  11.047  0.2975 -0.1339 -0.0218
 8101TIP3    H148498   3.167   5.893  11.118 -0.1852 -2.0517 -1.5706
 8101TIP3    H248499   3.249   5.882  10.992  1.2570  1.3881 -1.0527
 8102TIP3   OH248500   1.438   7.344  11.956 -0.2240  0.5274 -0.2610
 8102TIP3    H148501   1.352   7.380  11.935 -0.2965 -0.3867 -1.6714
 8102TIP3    H248502   1.490   7.359  11.878 -0.4107 -2.7601 -1.1531
 8103TIP3   OH248503   1.477   7.585  13.284 -0.8513  0.0804  0.0524
 8103TIP3    H148504   1.517   7.635  13.355  0.8969  0.6411 -1.2624
 8103TIP3    H248505   1.393   7.630  13.268 -0.6100  0.8231  0.7861
 8104TIP3   OH248506   4.065   7.227  11.213 -0.6229 -0.8837 -0.4675
 8104TIP3    H148507   4.088   7.189  11.128  0.0326 -0.5448 -0.4491
 8104TIP3    H248508   4.144   7.274  11.240 -1.2656  0.0952 -0.2693
 8105TIP3   OH248509   6.384   1.787  12.303 -0.5643  0.9800 -1.1065
 8105TIP3    H148510   6.468   1.788  12.256  0.2041 -1.0157  0.0761
 8105TIP3    H248511   6.341   1.707  12.272 -0.1051 -0.3123  1.3625
 8106TIP3   OH248512   7.330   3.729  13.299 -0.0933 -0.0184 -0.1188
 8106TIP3    H148513   7.334   3.641  13.261  0.6181  0.6371 -1.6145
 8106TIP3    H248514   7.410   3.736  13.351 -0.7593 -0.6782  1.0609
 8107TIP3   OH248515   3.999   6.263  13.080 -0.4185 -0.4631  0.4756
 8107TIP3    H148516   4.031   6.189  13.028 -1.3142 -0.6478  0.1600
 8107TIP3    H248517   3.930   6.302  13.026 -1.0407 -0.3657  1.3075
 8108TIP3   OH248518   0.285   3.743  10.701 -0.1316 -0.1409 -0.2794
 8108TIP3    H148519   0.364   3.690  10.692  0.1095  0.2144 -0.2563
 8108TIP3    H248520   0.214   3.686  10.671 -0.0435 -0.9392  0.9430
 8109TIP3   OH248521   2.868   0.330  12.787  0.1586 -0.2328 -0.2839
 8109TIP3    H148522   2.865   0.414  12.834  0.4848 -0.8198  0.8245
 8109TIP3    H248523   2.831   0.350  12.701  1.2326  1.2963 -0.4391
 8110TIP3   OH248524   1.728   4.204  10.570  0.1438  0.4500 -0.7605
 8110TIP3    H148525   1.744   4.110  10.573  0.1647  0.4650 -0.1726
 8110TIP3    H248526   1.639   4.214  10.603 -0.5474  0.4946 -2.5481
 8111TIP3   OH248527   5.339   1.401  11.913 -0.2822 -0.2419 -0.4975
 8111TIP3    H148528   5.350   1.325  11.970 -0.7169 -0.0016 -0.0861
 8111TIP3    H248529   5.360   1.369  11.826  1.8728 -0.2664 -0.0331
 8112TIP3   OH248530   7.047   6.874  11.352  0.3885  0.1489  0.6833
 8112TIP3    H148531   6.985   6.933  11.309 -0.9366 -0.1140  2.1454
 8112TIP3    H248532   7.063   6.913  11.438  1.7665 -0.1384  0.5930
 8113TIP3   OH248533   0.250   7.190  11.925  0.0615 -0.3808  0.1246
 8113TIP3    H148534   0.248   7.286  11.921  0.5243 -0.3423  0.6977
 8113TIP3    H248535   0.159   7.165  11.943 -0.1810 -0.0876 -0.6386
 8114TIP3   OH248536   0.077   5.283  10.433  0.3982  0.3328 -0.2039
 8114TIP3    H148537   0.008   5.310  10.494  0.1456  2.1646 -1.2174
 8114TIP3    H248538   0.070   5.346  10.361  1.3408 -1.1486 -1.6369
 8115TIP3   OH248539   3.060   5.793  11.232 -0.3113 -0.2400  0.6205
 8115TIP3    H148540   3.119   5.740  11.287  1.7143  2.2296  1.0017
 8115TIP3    H248541   3.031   5.864  11.289  0.4704  1.4301 -0.9618
 8116TIP3   OH248542   0.251   0.362  12.557 -0.3777  0.1287  0.3457
 8116TIP3    H148543   0.240   0.399  12.644 -1.0147  0.3233  0.1898
 8116TIP3    H248544   0.239   0.437  12.497  1.9299  0.4114  0.1234
 8117TIP3   OH248545   3.994   1.080  12.559  0.1846  0.0796  0.6233
 8117TIP3    H148546   4.035   0.999  12.529 -1.2466 -0.3203 -0.3620
 8117TIP3    H248547   4.065   1.145  12.557  0.7526 -0.5310 -1.2107
 8118TIP3   OH248548   5.489   5.484  11.261  0.3469 -0.1649  0.2421
 8118TIP3    H148549   5.579   5.515  11.256  1.3320 -2.5943  1.3046
 8118TIP3    H248550   5.456   5.492  11.171  1.8474  0.0916 -0.3166
 8119TIP3   OH248551   5.249   4.366  12.427  0.1132 -0.3221 -0.2105
 8119TIP3    H148552   5.201   4.340  12.505 -1.6861 -1.0868 -1.5060
 8119TIP3    H248553   5.312   4.296  12.413 -0.9442 -1.2357 -0.5565
 8120TIP3   OH248554   0.419   1.506  12.626 -0.2964 -0.1058 -0.5641
 8120TIP3    H148555   0.334   1.472  12.654  0.2889  0.6515  2.4414
 8120TIP3    H248556   0.406   1.527  12.533 -1.7851 -4.7763 -1.6577
 8121TIP3   OH248557   6.330   6.744  11.612 -0.5913 -0.3257  0.5492
 8121TIP3    H148558   6.315   6.764  11.704  1.0318 -0.3581  0.8487
 8121TIP3    H248559   6.288   6.660  11.598  0.6426 -1.1727  1.7349
 8122TIP3   OH248560   3.358   7.081  16.495  0.3615 -0.9809 -0.0598
 8122TIP3    H148561   3.285   7.068  16.555  0.7233 -0.7281  0.4322
 8122TIP3    H248562   3.361   7.000  16.444 -0.9662 -0.5691 -0.8593
 8123TIP3   OH248563   2.152   1.541  12.200 -0.2754  0.5840 -0.5834
 8123TIP3    H148564   2.075   1.580  12.243 -1.0964 -1.9279  0.4393
 8123TIP3    H248565   2.125   1.531  12.109 -1.8878 -1.7271  0.0629
 8124TIP3   OH248566   2.456   6.463  12.471 -0.4242 -0.0479  0.0925
 8124TIP3    H148567   2.388   6.395  12.477 -1.7979  1.3674  1.5769
 8124TIP3    H248568   2.471   6.488  12.562  2.5189 -0.6461 -0.1374
 8125TIP3   OH248569   5.368   0.253  11.834  0.5792 -1.2740 -0.3027
 8125TIP3    H148570   5.362   0.345  11.806 -0.3262 -0.9756  0.7974
 8125TIP3    H248571   5.304   0.208  11.778  0.3517 -1.0674 -0.2139
 8126TIP3   OH248572   1.511   5.157  11.543  0.2183 -0.0037 -0.4492
 8126TIP3    H148573   1.536   5.070  11.514  1.0093  0.6899 -1.9655
 8126TIP3    H248574   1.460   5.142  11.623  2.0775 -1.7138  0.5173
 8127TIP3   OH248575   1.261   0.771  12.313 -0.1370 -0.2849 -0.1313
 8127TIP3    H148576   1.238   0.682  12.341 -0.7900 -0.4031 -0.9847
 8127TIP3    H248577   1.223   0.779  12.225  0.0113  0.7991 -0.1143
 8128TIP3   OH248578   2.083   2.301  11.617  0.0947 -0.0354  0.3275
 8128TIP3    H148579   2.007   2.284  11.673 -0.6441  0.4988 -0.4835
 8128TIP3    H248580   2.087   2.396  11.610 -0.3804 -0.1096 -1.2382
 8129TIP3   OH248581   0.101   5.016  13.064  0.0129 -0.0878  0.1877
 8129TIP3    H148582   0.097   4.923  13.087  0.2095 -0.3246 -0.7288
 8129TIP3    H248583   0.183   5.046  13.104  0.5904 -0.6076 -0.5822
 8130TIP3   OH248584   0.003   2.213  12.494  0.6712 -0.2425  0.8535
 8130TIP3    H148585  -0.056   2.178  12.428  0.9351 -0.6289  0.8234
 8130TIP3    H248586   0.017   2.304  12.467  1.5895 -0.6787 -0.2026
 8131TIP3   OH248587   7.034   0.817  11.650  0.5643 -0.4699 -0.8256
 8131TIP3    H148588   6.954   0.806  11.702  0.0331 -0.2934 -1.5948
 8131TIP3    H248589   7.076   0.731  11.653  0.2201 -0.6362 -0.6184
 8132TIP3   OH248590   5.060   0.620  11.461 -0.2201 -0.5549 -0.2263
 8132TIP3    H148591   5.006   0.697  11.475 -0.3243 -0.6656 -0.0227
 8132TIP3    H248592   5.048   0.567  11.539 -0.9361 -1.2457 -0.7818
 8133TIP3   OH248593   1.739   7.249  11.891  0.8385  0.1413  0.2881
 8133TIP3    H148594   1.703   7.325  11.846 -1.9947 -0.3322  1.5255
 8133TIP3    H248595   1.784   7.285  11.968  0.9436  0.6325 -0.0022
 8134TIP3   OH248596   1.945   5.960  18.969  0.1064 -0.3946 -0.3112
 8134TIP3    H148597   1.877   6.026  18.958 -1.1603 -1.4078  1.1966
 8134TIP3    H248598   1.917   5.887  18.914 -1.7681 -2.0645  2.6526
 8135TIP3   OH248599   1.892   4.218  10.857  0.1551  0.0592 -0.2784
 8135TIP3    H148600   1.812   4.172  10.886  0.7090  0.5147  2.1640
 8135TIP3    H248601   1.871   4.248  10.769 -1.3679 -2.1770 -0.7737
 8136TIP3   OH248602   6.074   2.593  12.672  0.0797  0.1322  0.1594
 8136TIP3    H148603   5.987   2.573  12.706  0.6593 -1.1909  0.9412
 8136TIP3    H248604   6.128   2.605  12.749  0.4050  2.0262 -0.3053
 8137TIP3   OH248605   5.728   4.885  13.139 -0.1367 -0.2517 -0.3156
 8137TIP3    H148606   5.659   4.935  13.096 -0.1685 -1.1241 -1.3437
 8137TIP3    H248607   5.810   4.921  13.105 -0.1379 -0.3779 -0.4532
 8138TIP3   OH248608   5.128   7.143  11.116  0.3206  0.1372  0.8298
 8138TIP3    H148609   5.215   7.170  11.147 -0.6057  0.4102  3.3836
 8138TIP3    H248610   5.111   7.199  11.041  2.5218 -0.2465 -0.0356
 8139TIP3   OH248611   3.493   4.178  10.067 -0.3287  0.3178  0.3557
 8139TIP3    H148612   3.537   4.154  10.148 -0.3128 -1.1020 -0.0405
 8139TIP3    H248613   3.563   4.180  10.001 -0.3178  1.6044  0.3963
 8140TIP3   OH248614   5.199   2.151  10.638  0.3878 -0.1228  0.0291
 8140TIP3    H148615   5.221   2.058  10.638 -1.0083 -0.4717  0.2521
 8140TIP3    H248616   5.145   2.164  10.716  0.8601  0.9563  0.1971
 8141TIP3   OH248617   0.570   4.102  11.106 -0.1874  0.2127 -0.0476
 8141TIP3    H148618   0.495   4.044  11.091 -0.1410 -1.0141  3.4116
 8141TIP3    H248619   0.536   4.190  11.093 -1.3463 -0.4088 -1.5491
 8142TIP3   OH248620   0.881   3.308  12.687  0.2432 -0.2069  0.0161
 8142TIP3    H148621   0.830   3.227  12.681  0.6544 -0.4317 -0.5417
 8142TIP3    H248622   0.941   3.293  12.761  2.0761 -1.4512 -1.6298
 8143TIP3   OH248623   1.977   1.122  10.412 -0.0992 -0.7622  0.5092
 8143TIP3    H148624   2.017   1.059  10.472  0.0538 -2.0878 -0.9237
 8143TIP3    H248625   1.907   1.162  10.464  1.3395 -0.3098  2.2262
 8144TIP3   OH248626   7.246   5.232  12.611  0.0939  0.9581  0.0016
 8144TIP3    H148627   7.200   5.270  12.685 -3.1520 -0.8580 -0.8988
 8144TIP3    H248628   7.225   5.288  12.537  0.3322  0.7767 -0.2088
 8145TIP3   OH248629   4.753   2.097  11.131 -0.3945 -0.3994  0.2211
 8145TIP3    H148630   4.751   2.190  11.151 -1.0832 -0.6939  1.6290
 8145TIP3    H248631   4.694   2.087  11.057 -1.3269  0.1231  0.8781
 8146TIP3   OH248632   6.860   1.884  11.046  0.3458  0.3208  0.4396
 8146TIP3    H148633   6.769   1.858  11.033  0.9020 -1.1882 -0.8125
 8146TIP3    H248634   6.859   1.979  11.040 -1.0530  0.2861 -0.2767
 8147TIP3   OH248635   7.425   0.396  12.372  0.2310  0.6006  0.0565
 8147TIP3    H148636   7.519   0.405  12.357  0.2583 -0.3639 -0.4607
 8147TIP3    H248637   7.415   0.409  12.466  1.0399 -0.3149  0.2948
 8148TIP3   OH248638   4.837   7.135  12.334  0.3169  0.1695  0.0802
 8148TIP3    H148639   4.771   7.073  12.366 -0.8066  2.2258  2.0433
 8148TIP3    H248640   4.921   7.090  12.348 -0.5166 -2.5960 -2.6759
 8149TIP3   OH248641   5.652   2.962  10.509 -0.2361  0.3328 -0.5217
 8149TIP3    H148642   5.604   2.906  10.569  1.1153  0.2357  0.5217
 8149TIP3    H248643   5.584   3.005  10.456 -1.4005 -0.3437  0.3813
 8150TIP3   OH248644   2.316   1.010  11.678 -0.1745  0.2162  0.6025
 8150TIP3    H148645   2.392   1.062  11.652  0.1615  0.2459  1.6169
 8150TIP3    H248646   2.241   1.066  11.660 -0.1414 -0.4153 -2.0081
 8151TIP3   OH248647   5.418   6.815  11.939 -0.2323  0.1001  0.3268
 8151TIP3    H148648   5.381   6.735  11.976 -0.4729  0.3402  0.6064
 8151TIP3    H248649   5.513   6.806  11.951 -0.3517  0.4845  1.6240
 8152TIP3   OH248650   7.295   5.221  11.511  0.0183  0.0356 -0.1921
 8152TIP3    H148651   7.381   5.199  11.546 -0.1905  0.0530  0.3397
 8152TIP3    H248652   7.265   5.295  11.564 -0.5836 -0.3582  0.0324
 8153TIP3   OH248653   4.945   6.370  11.112  0.3553  0.0290  0.0926
 8153TIP3    H148654   5.023   6.340  11.066  0.4151  0.8629 -0.3742
 8153TIP3    H248655   4.976   6.441  11.169  0.4648 -1.6162  2.2006
 8154TIP3   OH248656   7.294   4.464  10.971  0.1686 -0.1465  0.1964
 8154TIP3    H148657   7.338   4.486  11.053  0.5377 -0.2721  0.0370
 8154TIP3    H248658   7.223   4.527  10.963  0.9537  0.7381 -0.0572
 8155TIP3   OH248659   1.990   6.417  12.611  0.1920 -0.2055  0.6109
 8155TIP3    H148660   1.987   6.455  12.523  0.6317 -2.0586 -0.2630
 8155TIP3    H248661   1.928   6.344  12.607  1.0468 -1.0051  1.4665
 8156TIP3   OH248662   6.063   6.743  10.758  0.4472  0.0644 -0.1223
 8156TIP3    H148663   6.055   6.829  10.801 -0.6785  0.0556 -0.3066
 8156TIP3    H248664   5.982   6.732  10.710  0.5919 -1.1117 -0.1194
 8157TIP3   OH248665   2.309   4.541  11.040  0.3144  0.2696  0.2114
 8157TIP3    H148666   2.265   4.469  10.995 -1.2816 -0.2546  2.4310
 8157TIP3    H248667   2.247   4.614  11.035  1.3423  1.1115 -0.8381
 8158TIP3   OH248668   7.412   6.270  10.803 -0.7459  0.2852  0.0027
 8158TIP3    H148669   7.393   6.263  10.710  0.0157  1.6498 -0.2751
 8158TIP3    H248670   7.500   6.235  10.812 -0.8394  0.1044  0.2266
 8159TIP3   OH248671   3.898   1.882  11.627  0.2775  0.8535 -0.8047
 8159TIP3    H148672   3.992   1.872  11.640  0.5237  2.3158 -1.2533
 8159TIP3    H248673   3.884   1.857  11.535 -0.3548 -2.6355  0.1073
 8160TIP3   OH248674   2.496   0.084  10.513  0.2134  0.7576  0.0171
 8160TIP3    H148675   2.550   0.044  10.581  0.9032  0.5546 -0.6414
 8160TIP3    H248676   2.558   0.123  10.452 -0.3187 -0.3620 -1.2993
 8161TIP3   OH248677   2.282   0.078  10.697  0.6825 -0.1480 -0.1544
 8161TIP3    H148678   2.351   0.127  10.743  0.3099  1.8820 -1.6248
 8161TIP3    H248679   2.325   0.044  10.618  0.1213  0.8420 -0.9101
 8162TIP3   OH248680   5.788   4.927  12.319  0.6750 -0.1029 -0.0058
 8162TIP3    H148681   5.824   4.986  12.386  0.8781 -1.7109  1.3547
 8162TIP3    H248682   5.858   4.864  12.304 -0.8253 -2.2404  1.3836
 8163TIP3   OH248683   4.345   4.329  11.395  0.0468 -0.0109  0.3150
 8163TIP3    H148684   4.435   4.313  11.367 -0.1392 -0.0190 -0.2846
 8163TIP3    H248685   4.308   4.241  11.406  0.5658 -0.0452  2.0991
 8164TIP3   OH248686   7.430   6.769  12.117 -0.2635  0.0333 -0.4185
 8164TIP3    H148687   7.412   6.675  12.113  3.5336 -0.8209 -1.3807
 8164TIP3    H248688   7.445   6.787  12.210  0.1785 -0.6148 -0.3547
 8165TIP3   OH248689   3.955   0.358  13.035  0.1397 -0.0221 -0.3840
 8165TIP3    H148690   3.928   0.290  12.972 -1.1783  0.0889  0.0311
 8165TIP3    H248691   3.887   0.425  13.028 -0.9694 -0.7462  2.3034
 8166TIP3   OH248692   1.000   6.517  10.890 -0.4533  0.1905 -0.1209
 8166TIP3    H148693   0.949   6.592  10.861  0.4682  0.1635 -1.9016
 8166TIP3    H248694   1.023   6.470  10.810  1.7046 -0.2351  0.6789
 8167TIP3   OH248695   2.306   5.851  12.633 -0.4445  0.4255 -0.1421
 8167TIP3    H148696   2.358   5.788  12.683 -0.9014  0.0275 -0.1642
 8167TIP3    H248697   2.358   5.931  12.634 -0.3381  0.3523  0.7645
 8168TIP3   OH248698   3.001   6.124  12.474 -0.4488  0.5540 -0.5490
 8168TIP3    H148699   3.052   6.139  12.394 -0.1901 -1.1901 -0.7365
 8168TIP3    H248700   3.059   6.072  12.530 -0.1590  2.7364  1.3258
 8169TIP3   OH248701   4.683   0.359  10.802 -0.1473 -0.1904 -0.0544
 8169TIP3    H148702   4.610   0.301  10.821 -0.9091  0.2780 -1.4342
 8169TIP3    H248703   4.673   0.432  10.862  0.0351 -0.8161  0.7509
 8170TIP3   OH248704   4.639   5.719  12.860  0.2194 -0.2239 -0.3322
 8170TIP3    H148705   4.645   5.787  12.928 -0.5173 -0.8637  0.4088
 8170TIP3    H248706   4.628   5.638  12.910 -3.2832 -0.4158 -1.1759
 8171TIP3   OH248707   5.827   2.713  11.292  0.2265 -0.1582  0.0233
 8171TIP3    H148708   5.843   2.801  11.256  1.9977 -1.1070 -1.6693
 8171TIP3    H248709   5.879   2.710  11.372  1.8637 -0.2980 -0.9903
 8172TIP3   OH248710   6.158   6.161  12.317 -0.4838 -0.4572  0.1456
 8172TIP3    H148711   6.161   6.181  12.411  0.8945 -0.2481  0.0721
 8172TIP3    H248712   6.069   6.127  12.303 -1.5349  1.7086  1.0716
 8173TIP3   OH248713   4.544   7.625  11.773  0.0861  0.5342  0.6147
 8173TIP3    H148714   4.564   7.715  11.795  0.0211  0.5218  0.7270
 8173TIP3    H248715   4.455   7.611  11.808  0.3605  0.2206  1.2088
 8174TIP3   OH248716   6.150   6.450  11.096  0.1194 -0.1789 -0.4937
 8174TIP3    H148717   6.132   6.398  11.175  0.9435 -0.5103 -0.5058
 8174TIP3    H248718   6.195   6.388  11.038  1.6597  0.6886 -0.2803
 8175TIP3   OH248719   4.054   5.789  11.769 -0.3627 -0.3342  0.9051
 8175TIP3    H148720   4.034   5.857  11.834 -0.7992  1.2402 -0.7933
 8175TIP3    H248721   4.133   5.820  11.725 -1.6251  0.1085 -1.1725
 8176TIP3   OH248722   1.056   0.484  12.852  0.2499 -0.4445 -0.6007
 8176TIP3    H148723   1.061   0.579  12.858  1.8736 -0.4097 -1.7762
 8176TIP3    H248724   1.132   0.452  12.900 -0.2480 -1.1718 -0.2620
 8177TIP3   OH248725   2.577   5.863  10.943  0.1755 -0.6329  0.0864
 8177TIP3    H148726   2.615   5.944  10.909  0.3298 -0.9591 -0.5424
 8177TIP3    H248727   2.586   5.870  11.038 -1.4558  0.8912  0.1682
 8178TIP3   OH248728   4.092   3.785  12.523  0.0092 -0.7428 -0.2122
 8178TIP3    H148729   4.171   3.830  12.492 -0.2774  1.3455  1.7690
 8178TIP3    H248730   4.087   3.808  12.616 -1.7138 -2.7223  0.2510
 8179TIP3   OH248731   5.311   1.692  11.903 -0.3545 -0.2734 -0.2540
 8179TIP3    H148732   5.366   1.621  11.935 -0.3439 -0.2617 -0.2461
 8179TIP3    H248733   5.227   1.679  11.947  0.2398  0.8875  1.3351
 8180TIP3   OH248734   6.963   5.911  12.192 -0.0060 -0.2488 -0.1094
 8180TIP3    H148735   6.964   6.000  12.157  0.7554 -0.2779 -0.1665
 8180TIP3    H248736   6.943   5.923  12.285 -1.5189 -0.1398 -0.4137
 8181TIP3   OH248737   6.258   3.142  11.989  0.2215  0.4018  0.3305
 8181TIP3    H148738   6.195   3.149  12.060 -0.0951 -0.7255  0.1918
 8181TIP3    H248739   6.271   3.231  11.958  0.6954  0.9592  2.0715
 8182TIP3   OH248740   5.654   6.739  11.584  0.2526  0.1384  0.0333
 8182TIP3    H148741   5.633   6.646  11.596 -0.9850  0.2913 -0.7958
 8182TIP3    H248742   5.748   6.740  11.566  0.6608 -0.7700  1.8561
 8183TIP3   OH248743   2.460   2.518  12.582 -0.3303 -0.4890  0.2731
 8183TIP3    H148744   2.526   2.449  12.572  0.6574 -0.0004  2.6606
 8183TIP3    H248745   2.501   2.595  12.543 -1.3455 -1.1152 -2.1961
 8184TIP3   OH248746   5.828   1.981  12.089 -0.0194 -0.2676  0.1132
 8184TIP3    H148747   5.784   1.909  12.043 -0.6090 -1.3375  2.2172
 8184TIP3    H248748   5.896   1.938  12.141 -0.7852  0.5878  1.8970
 8185TIP3   OH248749   1.395   2.007  11.080  0.2635 -0.2219  0.0273
 8185TIP3    H148750   1.412   1.968  10.995  0.2211  0.7923 -0.4622
 8185TIP3    H248751   1.299   2.007  11.087  0.2754 -0.6255  0.2388
 8186TIP3   OH248752   6.657   0.210  12.956  0.3697 -0.4626 -0.1520
 8186TIP3    H148753   6.692   0.262  12.884 -1.0003 -1.9834 -2.0435
 8186TIP3    H248754   6.562   0.210  12.941  0.1006 -1.2065  1.3862
 8187TIP3   OH248755   3.114   1.431  11.798  0.4677 -0.3557 -0.2240
 8187TIP3    H148756   3.055   1.464  11.731  0.1517 -0.7096 -0.1225
 8187TIP3    H248757   3.058   1.380  11.857  0.9749 -1.2632 -0.5028
 8188TIP3   OH248758   1.745   6.334  12.971  0.0230 -0.3595  0.5689
 8188TIP3    H148759   1.749   6.303  13.062 -2.5445 -0.9364  0.5425
 8188TIP3    H248760   1.822   6.391  12.962  0.2817 -0.2000  3.1229
 8189TIP3   OH248761   3.458   6.596  12.087 -0.4445 -0.3270 -0.0103
 8189TIP3    H148762   3.506   6.579  12.168  2.3445  0.5775 -1.3627
 8189TIP3    H248763   3.448   6.510  12.047 -0.5684 -0.5941  0.5750
 8190TIP3   OH248764   7.591   3.098  12.368 -0.2921 -0.2695  0.1875
 8190TIP3    H148765   7.619   3.058  12.286  1.4527 -1.4925  1.3189
 8190TIP3    H248766   7.561   3.025  12.422 -0.0368  0.3326  1.1772
 8191TIP3   OH248767   4.671   4.593  11.182  0.1586  0.2460 -0.3492
 8191TIP3    H148768   4.622   4.627  11.256  0.3529  0.2695 -0.2297
 8191TIP3    H248769   4.609   4.594  11.109  0.0228  0.3970 -0.2312
 8192TIP3   OH248770   4.691   6.846  12.537  0.2113 -0.0638  0.0498
 8192TIP3    H148771   4.705   6.779  12.604 -0.7248 -0.3155 -0.0015
 8192TIP3    H248772   4.614   6.894  12.567 -0.8322 -0.8005 -1.3263
 8193TIP3   OH248773   7.571   4.350  10.348 -0.0647  1.0488 -0.0920
 8193TIP3    H148774   7.643   4.290  10.330  0.5810  1.8915 -0.3796
 8193TIP3    H248775   7.524   4.309  10.421  1.9391  1.4617  1.5563
 8194TIP3   OH248776   6.730   4.870  12.462 -0.5234  0.7263 -0.1341
 8194TIP3    H148777   6.750   4.925  12.386 -2.2123  0.8227 -0.5367
 8194TIP3    H248778   6.643   4.835  12.444  0.2623 -1.6654  0.3732
 8195TIP3   OH248779   0.054   3.309  10.462  0.0444 -0.4388 -0.0425
 8195TIP3    H148780   0.081   3.219  10.477  1.4918 -0.4826 -2.4529
 8195TIP3    H248781   0.110   3.340  10.391 -3.2518  0.9621 -2.2790
 8196TIP3   OH248782   5.589   7.543  12.498 -0.2459 -0.7585 -0.8151
 8196TIP3    H148783   5.585   7.607  12.569 -0.2395 -0.7828 -0.7931
 8196TIP3    H248784   5.544   7.466  12.532 -1.5416 -0.2663 -1.3729
 8197TIP3   OH248785   0.571   4.109  12.634  0.1911  0.0246 -0.0640
 8197TIP3    H148786   0.505   4.042  12.613  2.2821 -1.5899 -2.0549
 8197TIP3    H248787   0.602   4.086  12.722 -0.5235 -0.4024  0.0854
 8198TIP3   OH248788   4.167   0.821  12.400 -0.6675  0.4620  0.1903
 8198TIP3    H148789   4.169   0.901  12.346  0.3989  0.9440  0.9153
 8198TIP3    H248790   4.256   0.812  12.433 -0.6597 -1.2908 -0.2054
 8199TIP3   OH248791   0.543   2.259  11.805  0.4717  0.4386 -0.2865
 8199TIP3    H148792   0.475   2.295  11.862 -1.2343 -2.4038 -0.3244
 8199TIP3    H248793   0.535   2.309  11.724 -1.6635  0.1860 -0.3000
 8200TIP3   OH248794   4.558   5.328  10.620  0.1462 -0.4802 -0.3585
 8200TIP3    H148795   4.516   5.243  10.637  0.9176 -0.9437 -0.6682
 8200TIP3    H248796   4.605   5.315  10.538 -0.6075  0.5988 -0.9768
 8201TIP3   OH248797   7.307   4.162  12.724  0.4142  0.2055 -0.0995
 8201TIP3    H148798   7.400   4.162  12.701  0.3651  0.7997 -0.3103
 8201TIP3    H248799   7.303   4.203  12.810  0.4013 -0.3026  0.1420
 8202TIP3   OH248800   4.080   4.222  11.951 -0.0587 -0.2204 -0.0502
 8202TIP3    H148801   4.148   4.241  11.885  1.3652  0.5173  1.5500
 8202TIP3    H248802   4.011   4.286  11.933  0.8005  0.6967 -0.1690
 8203TIP3   OH248803   1.145   4.035  11.639  0.1156 -0.2523  0.2030
 8203TIP3    H148804   1.238   4.017  11.653  0.0292 -0.1205  0.9749
 8203TIP3    H248805   1.102   3.951  11.656 -0.0839  0.1350  1.7558
 8204TIP3   OH248806   6.057   0.571  10.864 -0.0500 -0.0560 -0.2118
 8204TIP3    H148807   6.041   0.604  10.953  0.8327  1.0131 -0.4359
 8204TIP3    H248808   6.103   0.642  10.820  1.1273 -1.2522 -0.9825
 8205TIP3   OH248809   2.154   1.464  11.934 -0.0581 -0.0506 -0.3220
 8205TIP3    H148810   2.167   1.488  11.842 -2.1585  0.4489 -0.5415
 8205TIP3    H248811   2.228   1.407  11.955  0.8241  0.3665 -2.1148
 8206TIP3   OH248812   1.773   0.139  10.581  0.3204 -0.2990  0.5987
 8206TIP3    H148813   1.862   0.175  10.586  0.2065 -0.0004  0.5222
 8206TIP3    H248814   1.741   0.142  10.672 -0.2156  1.1695  0.3895
 8207TIP3   OH248815   6.292   2.878  12.376 -0.0137  0.0902  0.2264
 8207TIP3    H148816   6.324   2.899  12.464  1.6839 -0.4994 -0.2050
 8207TIP3    H248817   6.371   2.853  12.327 -1.2779 -2.9087 -0.5157
 8208TIP3   OH248818   3.184   6.048  11.598 -0.2605 -0.2370 -0.4485
 8208TIP3    H148819   3.231   6.118  11.643 -0.4451 -0.1376 -0.4117
 8208TIP3    H248820   3.173   5.979  11.664 -1.9527  0.5513  0.1444
 8209TIP3   OH248821   0.761   0.931  10.992  0.2539  0.4358 -0.1211
 8209TIP3    H148822   0.711   0.985  11.053  0.1597 -0.3602  0.5096
 8209TIP3    H248823   0.734   0.962  10.905 -2.4465 -0.8982  0.1326
 8210TIP3   OH248824   4.032   2.738  12.179 -0.0532 -0.4044  0.6348
 8210TIP3    H148825   4.047   2.717  12.271 -1.0028 -0.1605  0.8585
 8210TIP3    H248826   4.109   2.787  12.152 -0.1428  0.2568  1.5397
 8211TIP3   OH248827   5.989   3.475  11.889 -0.1799 -0.0233  0.0595
 8211TIP3    H148828   5.922   3.442  11.950 -1.4556 -0.0269 -1.2936
 8211TIP3    H248829   6.071   3.441  11.924 -0.9959 -1.0087  1.1160
 8212TIP3   OH248830   1.540   6.458  11.911  0.0093  0.3667 -0.2091
 8212TIP3    H148831   1.544   6.553  11.898 -0.4046  0.2135 -1.5961
 8212TIP3    H248832   1.624   6.426  11.881  0.0069  0.2488 -0.0929
 8213TIP3   OH248833   4.307   0.065  12.155 -0.0982 -0.3521 -0.0435
 8213TIP3    H148834   4.364   0.128  12.111  1.8404 -2.4941 -0.8148
 8213TIP3    H248835   4.318   0.083  12.248  0.9822  0.0063 -0.2290
 8214TIP3   OH248836   4.252   6.534  12.030 -0.5087 -0.0188  0.0633
 8214TIP3    H148837   4.258   6.457  12.087  0.6737  2.0095  2.9372
 8214TIP3    H248838   4.309   6.513  11.956 -0.3155 -1.9608  0.6903
 8215TIP3   OH248839   3.182   4.939  10.515  0.2303 -0.1332  0.2780
 8215TIP3    H148840   3.149   4.956  10.603  0.1546 -1.3701  0.5130
 8215TIP3    H248841   3.152   4.850  10.495  2.3063 -0.8447  0.0162
 8216TIP3   OH248842   0.913   0.318  12.327 -0.1729  0.1273  0.1159
 8216TIP3    H148843   0.988   0.319  12.267  0.2309  1.6310  0.5944
 8216TIP3    H248844   0.850   0.378  12.288  0.3238  1.5582  1.4268
 8217TIP3   OH248845   6.172   2.807  11.606 -0.2338 -0.5043  0.3256
 8217TIP3    H148846   6.115   2.730  11.607  0.1477 -0.8141  2.0864
 8217TIP3    H248847   6.207   2.812  11.695  0.5427  1.1295 -0.0292
 8218TIP3   OH248848   0.636   4.788  13.089  0.6637  0.3975  0.2148
 8218TIP3    H148849   0.576   4.751  13.154 -1.3014  0.8141 -1.2694
 8218TIP3    H248850   0.720   4.746  13.108 -0.4976 -1.6758  1.1921
 8219TIP3   OH248851   5.864   7.283  12.672 -0.1917 -0.8977 -0.6186
 8219TIP3    H148852   5.849   7.366  12.716  1.2625 -0.4714 -0.8832
 8219TIP3    H248853   5.804   7.284  12.597  1.3365  0.9285 -1.9068
 8220TIP3   OH248854   3.552   4.522  11.062  0.4263 -0.3855  0.5075
 8220TIP3    H148855   3.610   4.519  10.985 -0.9533  1.2554 -0.6704
 8220TIP3    H248856   3.604   4.568  11.128  1.0374 -0.3537  0.0227
 8221TIP3   OH248857   0.168   5.992  10.811  0.1716 -0.0876  0.8400
 8221TIP3    H148858   0.191   5.900  10.820  1.8892  0.2910  0.6656
 8221TIP3    H248859   0.226   6.025  10.743 -1.1905  0.8931  0.0926
 8222TIP3   OH248860   2.498   5.966  11.510  0.1232  0.2106  0.2674
 8222TIP3    H148861   2.461   6.024  11.578  0.4640  0.6723  0.0617
 8222TIP3    H248862   2.480   5.878  11.542  1.1988  0.4031  1.4805
 8223TIP3   OH248863   2.390   0.369  10.677 -0.5066 -0.3819  0.2814
 8223TIP3    H148864   2.387   0.318  10.596 -0.5019 -0.8745  0.5869
 8223TIP3    H248865   2.347   0.452  10.655 -2.2891 -1.2520  0.2765
 8224TIP3   OH248866   3.595   4.189  12.055 -0.1374 -0.3075 -0.0804
 8224TIP3    H148867   3.540   4.198  11.977 -0.7947  2.3931  0.5697
 8224TIP3    H248868   3.663   4.127  12.029  0.3517  1.3187 -3.2558
 8225TIP3   OH248869   3.830   2.619  12.925  0.1939  0.1732  0.4036
 8225TIP3    H148870   3.818   2.629  12.831 -1.0595  0.0040  0.5353
 8225TIP3    H248871   3.851   2.707  12.957 -1.1704  0.5777  0.2145
 8226TIP3   OH248872   1.161   1.508  12.441 -0.1052  0.0791 -0.0360
 8226TIP3    H148873   1.079   1.514  12.392  0.1216 -0.1407 -0.4476
 8226TIP3    H248874   1.134   1.501  12.533 -0.5465 -0.0811 -0.1785
 8227TIP3   OH248875   4.283   6.329  13.035  0.1769 -0.1278  0.2525
 8227TIP3    H148876   4.293   6.407  13.089  1.2986 -0.0002 -0.1076
 8227TIP3    H248877   4.209   6.283  13.073  1.2524 -0.3231  2.2824
 8228TIP3   OH248878   6.651   5.444  11.244 -0.3500 -0.1979  0.2062
 8228TIP3    H148879   6.739   5.411  11.263  0.0772 -0.0915 -1.4524
 8228TIP3    H248880   6.661   5.539  11.245 -0.6410 -0.1686  0.8064
 8229TIP3   OH248881   7.397   4.915  11.460  0.2351 -0.2068  0.0848
 8229TIP3    H148882   7.446   4.908  11.542 -0.5120  0.5731  0.6182
 8229TIP3    H248883   7.315   4.956  11.486  0.3655  0.9172 -1.2093
 8230TIP3   OH248884   4.070   5.718  11.065  0.3799 -0.1968 -0.2483
 8230TIP3    H148885   4.062   5.814  11.061  1.2923 -0.1368 -2.3674
 8230TIP3    H248886   3.997   5.686  11.012  1.8537 -0.4843 -2.2189
 8231TIP3   OH248887   3.057   0.768  12.923  0.4482  0.5625 -0.0315
 8231TIP3    H148888   3.059   0.816  13.006  1.1971 -0.0854  0.3423
 8231TIP3    H248889   3.004   0.690  12.942  1.2546  0.0262  0.0710
 8232TIP3   OH248890   5.491   3.151  10.885  0.3556 -0.1177  0.0807
 8232TIP3    H148891   5.450   3.172  10.801  0.3946 -1.4124 -0.2858
 8232TIP3    H248892   5.432   3.087  10.925  0.1030  0.8200  1.2594
 8233TIP3   OH248893   0.819   0.599  11.347 -0.2239 -0.3633  0.3926
 8233TIP3    H148894   0.907   0.634  11.361  0.2041 -0.8586 -0.9290
 8233TIP3    H248895   0.767   0.675  11.320 -0.0318 -0.1999  0.4789
 8234TIP3   OH248896   4.434   3.344  12.066 -0.5718  0.0296 -0.1486
 8234TIP3    H148897   4.424   3.311  12.156  0.6435 -2.3973 -0.8195
 8234TIP3    H248898   4.369   3.295  12.015  0.0423 -0.0228 -0.8964
 8235TIP3   OH248899   3.788   0.688  10.696  0.5338  0.1920  0.0331
 8235TIP3    H148900   3.830   0.666  10.779  0.3188  2.1306  0.6965
 8235TIP3    H248901   3.861   0.696  10.634  0.7243 -0.9122  0.0981
 8236TIP3   OH248902   1.783   1.668  10.131  0.1041  0.3351  0.5841
 8236TIP3    H148903   1.779   1.720  10.211  1.3660 -2.3640  2.5589
 8236TIP3    H248904   1.732   1.589  10.150 -1.3964  0.5184 -2.1210
 8237TIP3   OH248905   0.847   5.488  11.915  0.2445  0.3634 -0.3504
 8237TIP3    H148906   0.894   5.510  11.835 -0.9251  1.6510 -0.7167
 8237TIP3    H248907   0.893   5.536  11.984  0.9503 -0.3531 -0.3097
 8238TIP3   OH248908   2.038   6.428  11.821  0.1477 -0.1992  0.5425
 8238TIP3    H148909   2.120   6.429  11.871  0.4500 -0.3274  0.0593
 8238TIP3    H248910   2.010   6.519  11.818  1.3867  0.1819 -1.0606
 8239TIP3   OH248911   7.174   3.052  11.136  0.0364 -0.0507 -0.6168
 8239TIP3    H148912   7.239   3.034  11.204  0.0393 -0.5834 -0.7580
 8239TIP3    H248913   7.226   3.063  11.056  0.0829  1.1648 -0.4334
 8240TIP3   OH248914   2.887   0.489  10.940  0.1372  0.1524 -0.4041
 8240TIP3    H148915   2.835   0.444  11.007 -1.4138  2.1632 -0.1541
 8240TIP3    H248916   2.830   0.492  10.863  0.5055  1.0033 -0.6540
 8241TIP3   OH248917   3.740   3.848  10.416 -0.6950 -0.3714  0.0541
 8241TIP3    H148918   3.792   3.775  10.384  0.8707  0.6900  0.0399
 8241TIP3    H248919   3.776   3.868  10.503  0.3703  1.6721 -0.7797
 8242TIP3   OH248920   0.457   1.435  10.788  0.0097 -0.9667 -0.1274
 8242TIP3    H148921   0.549   1.422  10.811 -0.6303 -2.2923  2.0096
 8242TIP3    H248922   0.409   1.393  10.859 -2.3197  2.4590  0.5433
 8243TIP3   OH248923   4.989   6.561  12.911  0.1407  0.1375 -0.4848
 8243TIP3    H148924   5.074   6.565  12.867  0.9983 -0.6797  1.0161
 8243TIP3    H248925   4.950   6.479  12.881  0.6960 -0.3883  0.2199
 8244TIP3   OH248926   1.751   1.011  11.184 -0.2997  0.2837  0.1210
 8244TIP3    H148927   1.746   0.922  11.218  0.3189  0.6994  1.3414
 8244TIP3    H248928   1.676   1.056  11.222 -0.1972  0.4728  0.1017
 8245TIP3   OH248929   7.564   3.654  11.711  0.6495  0.2390  0.2679
 8245TIP3    H148930   7.587   3.727  11.654 -0.8534  0.3543 -0.2127
 8245TIP3    H248931   7.496   3.606  11.664  0.8293 -0.8397  1.0674
 8246TIP3   OH248932   6.537   0.882  11.682 -0.3689 -0.5211  0.3704
 8246TIP3    H148933   6.483   0.958  11.661 -0.9050 -0.9328  0.2211
 8246TIP3    H248934   6.475   0.818  11.719  0.4889  0.1646  3.2565
 8247TIP3   OH248935   1.346   0.993  12.630  0.1173  0.4135 -0.6831
 8247TIP3    H148936   1.282   1.038  12.686 -1.3369  0.2142 -2.0997
 8247TIP3    H248937   1.430   1.032  12.652 -0.7119  1.7715  0.1760
 8248TIP3   OH248938   3.472   3.172  12.118 -0.3577  0.2580 -0.5004
 8248TIP3    H148939   3.483   3.087  12.160 -0.1448  0.1103 -0.8473
 8248TIP3    H248940   3.388   3.204  12.149 -1.0582 -0.6711 -1.4016
 8249TIP3   OH248941   3.335   1.974  10.651 -0.0629  0.2092 -0.2631
 8249TIP3    H148942   3.430   1.957  10.653  0.2116  1.4395 -1.4761
 8249TIP3    H248943   3.299   1.914  10.716  1.6332  0.2515  0.7767
 8250TIP3   OH248944   4.563   5.433  12.269  0.1295  0.8925  0.3758
 8250TIP3    H148945   4.497   5.392  12.325 -0.9749 -1.3604 -2.3236
 8250TIP3    H248946   4.646   5.392  12.294 -0.4905 -0.7783 -0.1731
 8251TIP3   OH248947   5.173   7.625  11.861 -0.6127  0.1103  0.2713
 8251TIP3    H148948   5.267   7.643  11.853 -0.0973 -2.1693  0.5975
 8251TIP3    H248949   5.158   7.552  11.802 -2.9691  2.5936 -2.5039
 8252TIP3   OH248950   4.714   1.658  12.554 -0.2597 -0.3334 -0.1164
 8252TIP3    H148951   4.777   1.729  12.542  0.9519 -1.5247 -1.1016
 8252TIP3    H248952   4.699   1.655  12.648 -0.3966  1.2526 -0.0592
 8253TIP3   OH248953   2.397   5.118  12.514  0.1298  0.9564  0.1615
 8253TIP3    H148954   2.410   5.159  12.429  0.6292  0.7969  0.1610
 8253TIP3    H248955   2.445   5.173  12.576 -0.0396  0.9405  0.3108
 8254TIP3   OH248956   6.197   1.327  11.054 -0.2117 -0.7158  0.0757
 8254TIP3    H148957   6.227   1.339  11.144  0.3831  1.3741 -0.3429
 8254TIP3    H248958   6.277   1.309  11.005 -0.3040 -0.1044 -0.2983
 8255TIP3   OH248959   7.230   1.698  11.439  1.2017  0.0293 -0.4105
 8255TIP3    H148960   7.240   1.667  11.529  1.5228 -0.3446 -0.5712
 8255TIP3    H248961   7.164   1.767  11.444 -2.5057 -3.1236 -0.5509
 8256TIP3   OH248962   0.865   5.553  11.630  0.8775  0.2819 -0.2326
 8256TIP3    H148963   0.865   5.460  11.655  1.6314  0.1522 -0.6876
 8256TIP3    H248964   0.932   5.559  11.562 -1.0983  0.6202 -2.2305
 8257TIP3   OH248965   6.764   6.402  12.191 -0.2409 -0.5120 -0.2096
 8257TIP3    H148966   6.784   6.389  12.284 -2.7764 -1.2269  0.3049
 8257TIP3    H248967   6.777   6.496  12.178  0.0426 -0.3735  0.8835
 8258TIP3   OH248968   6.286   3.085  11.512 -0.5275 -0.4790 -0.2272
 8258TIP3    H148969   6.253   3.124  11.431  3.2967  1.2367 -1.2054
 8258TIP3    H248970   6.310   3.160  11.567  2.4006 -1.3811 -0.0828
 8259TIP3   OH248971   4.899   0.033  11.473  0.7222  0.5741  0.3251
 8259TIP3    H148972   4.957   0.013  11.400 -0.0934  1.0325 -0.4704
 8259TIP3    H248973   4.914   0.125  11.492  2.2581  0.0331  1.9721
 8260TIP3   OH248974   2.457   4.628  10.842 -0.3176  0.0863  0.1056
 8260TIP3    H148975   2.425   4.599  10.928 -1.7800  0.7880 -0.1808
 8260TIP3    H248976   2.481   4.546  10.797 -2.4390 -0.5697  0.0703
 8261TIP3   OH248977   3.290   7.483  11.749 -0.3221  0.5386 -0.1639
 8261TIP3    H148978   3.366   7.534  11.778 -0.2037  0.0555  0.4051
 8261TIP3    H248979   3.223   7.502  11.815  0.6470 -2.3209  1.8673
 8262TIP3   OH248980   4.499   6.766  12.366 -0.1346 -0.0690 -0.0988
 8262TIP3    H148981   4.564   6.823  12.406 -1.1302  1.1144 -0.0844
 8262TIP3    H248982   4.482   6.698  12.432  0.5519  0.0125  0.1689
 8263TIP3   OH248983   3.171   5.966  12.605 -0.1845 -0.0132 -0.4245
 8263TIP3    H148984   3.223   6.012  12.670 -2.0970 -0.6025  1.6505
 8263TIP3    H248985   3.215   5.881  12.594  0.3284  0.2129 -0.1235
 8264TIP3   OH248986   2.410   4.022  11.495  0.7402 -0.6780 -0.3324
 8264TIP3    H148987   2.444   4.080  11.427  1.1477  1.6534  1.6835
 8264TIP3    H248988   2.445   4.059  11.577 -0.9141 -2.4255  1.2662
 8265TIP3   OH248989   0.515   1.836  11.399 -0.7536  0.3827  0.3069
 8265TIP3    H148990   0.604   1.804  11.412 -0.6687  0.5103  0.0549
 8265TIP3    H248991   0.524   1.907  11.335 -0.9268  0.9734  0.9224
 8266TIP3   OH248992   5.413   2.500  11.324  0.2879  0.4652 -0.0448
 8266TIP3    H148993   5.346   2.567  11.310 -0.0448 -0.3422 -2.9107
 8266TIP3    H248994   5.379   2.447  11.396 -1.1907  1.2576 -0.1161
 8267TIP3   OH248995   4.169   5.515  12.802 -0.1345  0.1750  0.3359
 8267TIP3    H148996   4.201   5.530  12.713  1.2363  1.3319  0.9895
 8267TIP3    H248997   4.101   5.448  12.792  0.9067 -0.6872 -1.4084
 8268TIP3   OH248998   6.208   6.173  10.461 -0.4762  0.5237  0.0278
 8268TIP3    H148999   6.258   6.211  10.533 -1.5726 -0.1575  1.1998
 8268TIP3    H249000   6.272   6.124  10.410  0.2650  0.7256  0.7458
 8269TIP3   OH249001   3.281   1.923  12.689 -0.2724  0.2019 -0.0628
 8269TIP3    H149002   3.264   1.999  12.746 -0.5724  0.6783 -0.7720
 8269TIP3    H249003   3.204   1.918  12.633 -0.6671 -1.1776  0.5562
 8270TIP3   OH249004   0.940   1.565  11.200  0.4829  0.0044  0.3117
 8270TIP3    H149005   0.976   1.514  11.127  1.7846  1.8546 -0.4035
 8270TIP3    H249006   1.008   1.629  11.221  0.1922 -0.4946  3.2433
 8271TIP3   OH249007   2.593   5.490  11.074 -0.5555  0.0183 -0.2497
 8271TIP3    H149008   2.660   5.524  11.133  0.3570  0.4252 -1.4636
 8271TIP3    H249009   2.510   5.521  11.110  0.0112  0.5537  0.6040
 8272TIP3   OH249010   1.711   2.716  11.813  0.0259 -0.3057  0.6829
 8272TIP3    H149011   1.678   2.685  11.729  1.0036  0.1383  0.1188
 8272TIP3    H249012   1.666   2.662  11.878 -2.4298  0.7993  0.0324
 8273TIP3   OH249013   6.275   1.030  11.340 -0.1251  0.6034  0.3212
 8273TIP3    H149014   6.311   1.043  11.428 -0.3047 -0.0336  0.4987
 8273TIP3    H249015   6.217   0.954  11.349  0.9506 -0.3696 -0.6585
 8274TIP3   OH249016   5.357   2.885  11.495 -0.2156  0.0084  0.5220
 8274TIP3    H149017   5.284   2.947  11.499 -0.3845 -0.1314 -0.2694
 8274TIP3    H249018   5.428   2.934  11.456 -0.6795 -0.5869 -1.1484
 8275TIP3   OH249019   3.694   6.311  11.365  0.0909 -0.1694  0.0084
 8275TIP3    H149020   3.634   6.269  11.303 -0.7331  1.0997 -0.0968
 8275TIP3    H249021   3.666   6.278  11.451 -0.5309  0.1382 -0.0711
 8276TIP3   OH249022   3.225   2.187  11.774  0.1139  0.4163 -0.2932
 8276TIP3    H149023   3.188   2.234  11.699  0.2856  0.4439 -0.3618
 8276TIP3    H249024   3.186   2.100  11.770 -0.1175  0.5142 -0.2338
 8277TIP3   OH249025   5.359   3.801  12.793  0.9079  0.1138  0.6291
 8277TIP3    H149026   5.362   3.736  12.863  1.1342 -0.1433  0.3797
 8277TIP3    H249027   5.267   3.807  12.770  0.8644  0.0115  0.7734
 8278TIP3   OH249028   2.409   7.314  11.050  0.0375 -0.1493  0.0796
 8278TIP3    H149029   2.337   7.324  10.988 -0.4941 -1.3102  0.4890
 8278TIP3    H249030   2.476   7.267  11.001 -0.5789 -1.5132  0.5085
 8279TIP3   OH249031   2.754   3.883  12.501 -0.3935  0.1606  0.3125
 8279TIP3    H149032   2.833   3.895  12.448 -0.7613  1.1068 -0.0452
 8279TIP3    H249033   2.785   3.880  12.591  0.1620 -0.6666  0.0998
 8280TIP3   OH249034   0.748   4.218  11.343 -0.4387 -0.3952  0.1864
 8280TIP3    H149035   0.713   4.130  11.355 -0.7921 -0.0652  1.7693
 8280TIP3    H249036   0.754   4.228  11.248 -1.2836 -1.7758 -0.0451
 8281TIP3   OH249037   4.368   5.702  11.058  0.5945 -0.0142  0.0083
 8281TIP3    H149038   4.345   5.613  11.031 -0.5098  0.5172 -0.8784
 8281TIP3    H249039   4.309   5.722  11.130 -1.2934  1.0494 -1.7325
 8282TIP3   OH249040   3.255   2.654  11.029  0.6472 -0.4284  0.3624
 8282TIP3    H149041   3.318   2.636  11.099  1.2316  0.5237  0.1062
 8282TIP3    H249042   3.309   2.664  10.951  0.4305  2.2558  0.4599
 8283TIP3   OH249043   4.202   3.432  11.620  0.0869 -0.3145 -0.5706
 8283TIP3    H149044   4.107   3.426  11.631 -0.0917 -1.4736 -2.3200
 8283TIP3    H249045   4.238   3.380  11.692 -0.5624  0.5052  0.3708
 8284TIP3   OH249046   0.299   4.197  10.894  0.1893 -0.0094  0.0575
 8284TIP3    H149047   0.309   4.285  10.859 -0.9541  0.7287  1.4506
 8284TIP3    H249048   0.318   4.139  10.821 -0.6570  1.4145 -1.3518
 8285TIP3   OH249049   3.148   1.833  12.078 -0.0590 -0.6358  0.0451
 8285TIP3    H149050   3.081   1.867  12.019 -0.9348 -0.4499  1.1261
 8285TIP3    H249051   3.175   1.910  12.129 -3.3745 -1.7134  3.8293
 8286TIP3   OH249052   2.833   6.711  12.447  0.0871  0.3666  0.4048
 8286TIP3    H149053   2.874   6.793  12.421  0.8882  0.2304  1.2061
 8286TIP3    H249054   2.817   6.720  12.540 -0.1181 -0.2556  0.4350
 8287TIP3   OH249055   6.103   2.014  11.837  0.6066 -0.4700  0.1897
 8287TIP3    H149056   6.087   2.081  11.904 -1.7326 -0.3754 -0.3627
 8287TIP3    H249057   6.113   1.933  11.887 -1.4904 -0.4650  0.7162
 8288TIP3   OH249058   0.875   5.265  12.081  0.4329  0.4356 -0.2217
 8288TIP3    H149059   0.882   5.182  12.034  1.0800  0.3635 -0.0078
 8288TIP3    H249060   0.867   5.331  12.012  0.8392  0.2794 -0.4215
 8289TIP3   OH249061   5.269   6.335  11.493 -0.0175  0.5109 -0.1679
 8289TIP3    H149062   5.287   6.420  11.452  0.1486  1.7785  2.3294
 8289TIP3    H249063   5.349   6.313  11.540 -0.6139 -0.2341  0.5337
 8290TIP3   OH249064   3.407   4.223  10.465 -0.7276  0.1412 -0.4198
 8290TIP3    H149065   3.480   4.162  10.466 -0.2791  0.6743 -0.1706
 8290TIP3    H249066   3.345   4.188  10.528 -1.2138 -0.9376 -1.4657
 8291TIP3   OH249067   2.870   0.680  11.352 -0.1230 -0.3280 -0.0938
 8291TIP3    H149068   2.939   0.618  11.328 -0.9562 -0.8535 -1.2171
 8291TIP3    H249069   2.816   0.687  11.273 -0.9116  0.6718  0.5124
 8292TIP3   OH249070   5.542   0.684  10.517  0.2163 -0.3993  0.1258
 8292TIP3    H149071   5.466   0.737  10.493 -0.1105 -1.9725 -2.7822
 8292TIP3    H249072   5.617   0.742  10.503 -0.2768  0.3102  0.3458
 8293TIP3   OH249073   4.742   4.642  10.573  0.2321 -0.1543 -0.8316
 8293TIP3    H149074   4.782   4.555  10.582 -1.4293 -0.8506  0.3364
 8293TIP3    H249075   4.806   4.702  10.613  0.2666 -1.2089  0.7997
 8294TIP3   OH249076   1.203   2.506  12.842  0.1071  0.3215  0.6046
 8294TIP3    H149077   1.252   2.570  12.894  0.3959  0.8067 -0.2531
 8294TIP3    H249078   1.219   2.422  12.887 -0.4753  0.8625  1.8767
 8295TIP3   OH249079   5.889   0.917  10.723  0.5999  0.1569 -0.0188
 8295TIP3    H149080   5.868   0.964  10.804 -0.1565  0.5983 -0.4619
 8295TIP3    H249081   5.820   0.942  10.662  1.7059  0.6039 -1.1328
 8296TIP3   OH249082   7.309   3.584  11.960  0.2048 -0.0385  0.0178
 8296TIP3    H149083   7.401   3.606  11.977  0.6757 -1.0742 -1.0075
 8296TIP3    H249084   7.263   3.609  12.040  1.3731  0.5118  0.5483
 8297TIP3   OH249085   5.469   5.323  12.724 -0.3858 -0.2469 -0.1514
 8297TIP3    H149086   5.409   5.321  12.799  0.8810 -1.0625  0.8827
 8297TIP3    H249087   5.449   5.242  12.676  0.1454 -0.7161  0.4101
 8298TIP3   OH249088   6.588   4.721  10.881  0.1287  0.0606  0.3266
 8298TIP3    H149089   6.543   4.726  10.965  1.1932 -0.8484  0.9700
 8298TIP3    H249090   6.519   4.698  10.818 -0.2960 -1.6151  1.3396
 8299TIP3   OH249091   5.684   4.941  11.549  0.6331 -1.0517 -0.6231
 8299TIP3    H149092   5.685   4.847  11.569  0.6079 -0.6588  1.4338
 8299TIP3    H249093   5.591   4.961  11.534  0.7002 -1.4365 -1.6595
 8300TIP3   OH249094   1.190   0.259  13.053 -0.6437 -0.0102 -0.3789
 8300TIP3    H149095   1.249   0.245  12.979 -0.4743  0.7302 -0.3942
 8300TIP3    H249096   1.183   0.354  13.061 -2.4698 -0.0480 -0.8897
 8301TIP3   OH249097   5.129   5.848  12.480  0.4402  0.3476 -0.0088
 8301TIP3    H149098   5.170   5.786  12.420 -0.2002  0.4535 -0.5769
 8301TIP3    H249099   5.190   5.856  12.553  0.9391 -0.2703 -0.3501
 8302TIP3   OH249100   0.113   3.215  12.013  0.2800 -0.5425  0.3033
 8302TIP3    H149101   0.018   3.221  12.014  0.2618 -0.7238 -0.0422
 8302TIP3    H249102   0.138   3.243  11.925  0.7919  2.6318  1.3228
 8303TIP3   OH249103   2.882   7.298  12.470 -0.4382  0.0033 -0.7450
 8303TIP3    H149104   2.905   7.228  12.532 -0.3518  0.2844 -0.4595
 8303TIP3    H249105   2.961   7.309  12.417  0.9432  2.3818  1.5444
 8304TIP3   OH249106   3.326   6.338  12.834  0.1759  0.4145  0.0484
 8304TIP3    H149107   3.415   6.367  12.815 -0.1147  0.7839 -0.7922
 8304TIP3    H249108   3.337   6.256  12.882  0.9812  1.2885  1.4152
 8305TIP3   OH249109   5.085   1.467  12.696  0.4395 -0.3471 -0.4508
 8305TIP3    H149110   5.115   1.403  12.760 -2.9557 -0.3400  1.4150
 8305TIP3    H249111   5.086   1.551  12.742 -0.0281  0.0457 -1.1192
 8306TIP3   OH249112   2.752   0.345  13.141  0.5069  0.0716 -0.5458
 8306TIP3    H149113   2.848   0.347  13.135  0.5107  0.4583 -0.3499
 8306TIP3    H249114   2.726   0.279  13.076  0.8870  0.1536 -0.7858
 8307TIP3   OH249115   1.417   6.782  10.375  0.0677 -0.2663  0.0280
 8307TIP3    H149116   1.323   6.791  10.388  0.0100 -2.6561  1.8341
 8307TIP3    H249117   1.446   6.723  10.444  2.8067 -0.1067 -0.8577
 8308TIP3   OH249118   2.779   4.129  12.260  0.3664 -0.3605  0.2056
 8308TIP3    H149119   2.846   4.071  12.296  1.8614  1.4788  0.5377
 8308TIP3    H249120   2.720   4.146  12.333  0.3507 -0.8470  0.3102
 8309TIP3   OH249121   1.322   6.604  11.289 -0.7304 -0.0819 -0.0629
 8309TIP3    H149122   1.322   6.620  11.194 -0.3966 -0.8560 -0.2050
 8309TIP3    H249123   1.261   6.532  11.301 -1.4952  0.6306  0.4398
 8310TIP3   OH249124   2.418   5.798  11.763  0.3669 -0.3368  0.3142
 8310TIP3    H149125   2.479   5.736  11.723 -1.7338 -2.5268  0.3276
 8310TIP3    H249126   2.425   5.782  11.857 -0.6656 -1.0760  0.2797
 8311TIP3   OH249127   3.367   3.905  10.969  0.0319  0.1951 -0.0769
 8311TIP3    H149128   3.392   3.845  11.039 -3.4334  0.0460  1.2287
 8311TIP3    H249129   3.360   3.849  10.892 -1.8783 -0.9413  0.8443
 8312TIP3   OH249130   1.020   6.558  12.201 -0.5522 -0.2748  0.2098
 8312TIP3    H149131   1.075   6.534  12.277 -0.7786 -0.4852  0.3071
 8312TIP3    H249132   1.068   6.524  12.126  2.4924  4.3921 -0.3843
 8313TIP3   OH249133   3.509   2.925  12.221  0.0442 -0.4170 -0.2785
 8313TIP3    H149134   3.512   2.843  12.172 -2.8877 -2.1939  2.0754
 8313TIP3    H249135   3.589   2.925  12.274 -0.2685 -2.2408  0.2591
 8314TIP3   OH249136   5.027   0.090  10.896 -0.1104  0.1548  0.4129
 8314TIP3    H149137   4.934   0.073  10.908 -1.4493  5.1870 -0.3771
 8314TIP3    H249138   5.043   0.071  10.804 -1.0835  1.3462 -0.0413
 8315TIP3   OH249139   4.734   4.156  12.820  0.0809  0.4870  0.2210
 8315TIP3    H149140   4.639   4.143  12.822  0.2172 -0.6143  0.8319
 8315TIP3    H249141   4.763   4.109  12.742  0.2513 -0.3193  0.7552
 8316TIP3   OH249142   4.279   4.617  12.301  0.4931 -0.1223 -0.1350
 8316TIP3    H149143   4.229   4.564  12.364  0.1393 -0.0295 -0.3352
 8316TIP3    H249144   4.351   4.560  12.274  1.0873  0.1037  0.9195
 8317TIP3   OH249145   6.991   2.448  12.181  0.8440 -0.1221 -0.0858
 8317TIP3    H149146   7.082   2.473  12.193  1.3177 -1.6053 -0.3886
 8317TIP3    H249147   6.987   2.412  12.093 -0.4373  1.5216 -0.7486
 8318TIP3   OH249148   4.868   5.130  12.859  0.0615 -0.5629  0.1473
 8318TIP3    H149149   4.811   5.189  12.809  1.4370  1.1339  0.4444
 8318TIP3    H249150   4.956   5.164  12.843  0.7660 -1.5613  1.6689
 8319TIP3   OH249151   7.481   3.230  13.006  0.0472 -0.0793  0.5637
 8319TIP3    H149152   7.513   3.212  13.095 -0.2383  0.7699  0.8565
 8319TIP3    H249153   7.390   3.255  13.019  0.2850  1.0791  0.1705
 8320TIP3   OH249154   1.054   2.493  12.599 -0.1092  0.2716  0.1801
 8320TIP3    H149155   1.014   2.414  12.636  1.0330  0.7089  2.5462
 8320TIP3    H249156   1.091   2.538  12.674 -1.3964  3.5122 -0.9449
 8321TIP3   OH249157   3.608   2.323  10.264  0.0091  0.1308  0.6225
 8321TIP3    H149158   3.660   2.403  10.268  0.1053  0.0138  1.7832
 8321TIP3    H249159   3.668   2.256  10.233 -0.1939  0.5872 -0.8491
 8322TIP3   OH249160   3.382   2.476  10.668  0.4497  0.6419  0.3202
 8322TIP3    H149161   3.462   2.443  10.627 -0.6204 -1.7608  0.0322
 8322TIP3    H249162   3.396   2.571  10.673  1.9307  0.7311 -2.7950
 8323TIP3   OH249163   3.939   4.926  11.131  0.1114  0.0008  0.0011
 8323TIP3    H149164   3.861   4.968  11.165  0.2208  0.1405  0.0803
 8323TIP3    H249165   3.960   4.857  11.194 -0.1845 -0.3093 -0.2313
 8324TIP3   OH249166   2.971   1.784  11.735  0.1960  0.1018 -0.0336
 8324TIP3    H149167   2.956   1.769  11.642  0.4267  0.9145 -0.2093
 8324TIP3    H249168   2.889   1.824  11.766  1.5168  3.7674 -0.8162
 8325TIP3   OH249169   6.127   1.790  10.947 -0.6267  0.2092 -0.6644
 8325TIP3    H149170   6.123   1.868  11.003 -0.5280 -0.2459 -0.0087
 8325TIP3    H249171   6.037   1.759  10.943 -0.2910 -1.2245  1.3898
 8326TIP3   OH249172   3.454   1.617  13.273  0.4342 -0.6307  0.0933
 8326TIP3    H149173   3.383   1.661  13.321  1.9441  1.3554  0.6197
 8326TIP3    H249174   3.513   1.586  13.341  0.4659 -1.6195 -0.3696
 8327TIP3   OH249175   1.751   7.557  10.620  0.1543  0.0095  0.3445
 8327TIP3    H149176   1.698   7.567  10.699 -1.8964 -1.9008 -0.7074
 8327TIP3    H249177   1.749   7.644  10.579 -0.3102  0.5294  1.4277
 8328TIP3   OH249178   2.012   2.900  11.316 -0.3680  0.2204  0.2612
 8328TIP3    H149179   2.065   2.938  11.385 -2.2131  2.9521  0.3162
 8328TIP3    H249180   2.076   2.865  11.253  1.3963  0.9582  1.5638
 8329TIP3   OH249181   2.442   5.524  12.480 -0.6960 -0.5996  0.3355
 8329TIP3    H149182   2.464   5.513  12.388 -0.3973  1.9591  0.0421
 8329TIP3    H249183   2.522   5.503  12.527  0.5012  2.1435 -0.3128
 8330TIP3   OH249184   3.687   2.930  11.798 -0.3214 -0.2161  0.5269
 8330TIP3    H149185   3.675   2.838  11.772  1.6884  0.0888 -1.8884
 8330TIP3    H249186   3.626   2.978  11.741  1.2911  0.1603 -0.9651
 8331TIP3   OH249187   2.013   2.306  10.184  0.3092 -0.0115 -0.5199
 8331TIP3    H149188   2.105   2.328  10.200  0.3438 -0.7446  0.4144
 8331TIP3    H249189   1.972   2.388  10.160  1.1880  0.3498 -0.8169
 8332TIP3   OH249190   2.183   5.702  11.253 -0.6155  0.2988 -0.9624
 8332TIP3    H149191   2.163   5.661  11.337 -0.8870  1.1366 -0.6076
 8332TIP3    H249192   2.192   5.629  11.192  0.3619 -0.3551 -0.0489
 8333TIP3   OH249193   5.060   4.394  11.891  0.4652  0.1250  0.3541
 8333TIP3    H149194   4.983   4.448  11.870 -0.2744 -0.0592  2.3069
 8333TIP3    H249195   5.115   4.450  11.945  1.0276 -0.2064  0.1368
 8334TIP3   OH249196   6.778   2.569  12.371 -0.3640 -0.0006 -0.1625
 8334TIP3    H149197   6.834   2.499  12.337  1.3986  1.8386 -1.2940
 8334TIP3    H249198   6.822   2.598  12.451  0.7090  1.7928 -1.3237
 8335TIP3   OH249199   2.583   1.826  10.831 -0.2425  0.3644 -0.0456
 8335TIP3    H149200   2.500   1.860  10.798 -0.1560  0.4943 -0.1295
 8335TIP3    H249201   2.581   1.733  10.810 -0.0440  0.5050 -0.7232
 8336TIP3   OH249202   5.022   0.519  16.597 -0.4024  1.1188  0.4181
 8336TIP3    H149203   5.107   0.485  16.627  0.3124  2.7613  0.4221
 8336TIP3    H249204   5.035   0.535  16.504 -1.0258  0.5273  0.2254
 8337TIP3   OH249205   6.168   2.575  12.352  0.5852 -0.1392  0.2516
 8337TIP3    H149206   6.169   2.487  12.315  0.4159  0.7397 -1.9950
 8337TIP3    H249207   6.076   2.596  12.363  0.6143 -0.9058  2.6980
 8338TIP3   OH249208   5.768   6.075  11.684  0.4765 -0.0106  0.2864
 8338TIP3    H149209   5.809   6.151  11.726 -0.3540  0.7857 -0.3047
 8338TIP3    H249210   5.688   6.109  11.645  1.7137 -0.4261 -2.9190
 8339TIP3   OH249211   4.789   1.284  12.254 -0.6900  0.0898  0.2124
 8339TIP3    H149212   4.837   1.204  12.233 -0.1212  0.5099 -0.1053
 8339TIP3    H249213   4.856   1.348  12.275 -1.1544  0.4259  0.6928
 8340TIP3   OH249214   1.572   7.106  11.201  0.3706 -0.3534 -0.3727
 8340TIP3    H149215   1.616   7.182  11.165  0.6942 -0.0888  0.5533
 8340TIP3    H249216   1.633   7.071  11.266  0.3800 -1.6170 -1.0308
 8341TIP3   OH249217   4.199   0.959  12.151 -0.4303  0.0290  0.3364
 8341TIP3    H149218   4.278   1.013  12.142 -2.2037  2.7680  0.0014
 8341TIP3    H249219   4.196   0.908  12.070 -0.0089  1.3609 -0.5613
 8342TIP3   OH249220   5.467   2.036  13.365  0.5075  0.8090  0.4510
 8342TIP3    H149221   5.525   2.078  13.301  1.5827 -0.5439  0.4696
 8342TIP3    H249222   5.521   2.024  13.443 -0.2692  0.8682  1.0152
 8343TIP3   OH249223   7.663   6.820  11.979  0.1269  0.6053  0.1928
 8343TIP3    H149224   7.696   6.733  11.997 -0.5792  0.3234  0.1758
 8343TIP3    H249225   7.580   6.825  12.028  0.5298  1.5330  0.8130
 8344TIP3   OH249226   5.744   3.252  11.489 -0.2611  0.2160 -0.2200
 8344TIP3    H149227   5.759   3.347  11.494  1.2328 -0.0564  0.9177
 8344TIP3    H249228   5.822   3.218  11.446 -1.5034 -0.3720 -2.1308
 8345TIP3   OH249229   2.155   2.849  11.937 -0.6130  0.0238  0.4786
 8345TIP3    H149230   2.139   2.891  12.022 -0.2426 -1.4914  1.3335
 8345TIP3    H249231   2.111   2.765  11.944 -2.3131  0.6613 -1.6259
 8346TIP3   OH249232   6.413   2.644  12.073 -0.2724 -0.6757 -0.4442
 8346TIP3    H149233   6.361   2.564  12.060 -0.9443 -0.3494  0.1551
 8346TIP3    H249234   6.351   2.716  12.060 -0.1235 -0.2902  0.8244
 8347TIP3   OH249235   0.587   5.170  11.175  0.3198 -0.4082  0.4235
 8347TIP3    H149236   0.624   5.085  11.152  0.2919 -0.7905  1.7203
 8347TIP3    H249237   0.613   5.184  11.266  2.7440  2.2909 -0.5173
 8348TIP3   OH249238   6.969   2.135  17.573  0.0912 -0.5033  0.5645
 8348TIP3    H149239   6.944   2.053  17.614 -1.1324  0.1359  1.1513
 8348TIP3    H249240   7.051   2.161  17.616  1.1052 -1.9464 -0.4148
 8349TIP3   OH249241   3.973   2.184  10.554  0.7074  0.4795 -0.2100
 8349TIP3    H149242   3.926   2.266  10.536  1.8493  0.8480 -1.7822
 8349TIP3    H249243   4.055   2.212  10.594  1.2040  0.1511 -0.9644
 8350TIP3   OH249244   1.254   3.889  10.630 -0.0894  0.0449  0.5929
 8350TIP3    H149245   1.272   3.797  10.606  0.7853  0.5023 -0.6474
 8350TIP3    H249246   1.162   3.890  10.654 -0.8649 -0.6968 -1.9954
 8351TIP3   OH249247   4.756   2.395  10.898  0.4459 -0.1126 -0.0684
 8351TIP3    H149248   4.732   2.390  10.990  1.0133 -2.6165 -0.0009
 8351TIP3    H249249   4.675   2.378  10.851  0.1798  1.0541 -0.0636
 8352TIP3   OH249250   1.598   1.964  12.470  0.0564  0.3789  0.1111
 8352TIP3    H149251   1.537   2.001  12.407 -0.5032 -1.3219 -0.3928
 8352TIP3    H249252   1.561   1.987  12.556 -0.7466  0.2337 -0.1883
 8353TIP3   OH249253   1.124   2.650  11.634 -0.3985  0.1526  0.4523
 8353TIP3    H149254   1.043   2.644  11.582  0.1209  0.1167 -0.3651
 8353TIP3    H249255   1.146   2.743  11.633  0.7177 -0.1059 -1.1296
 8354TIP3   OH249256   6.621   7.222  12.259  0.2394  0.4752  0.0720
 8354TIP3    H149257   6.643   7.173  12.179 -1.9697 -1.1901  0.4027
 8354TIP3    H249258   6.525   7.219  12.263  0.3039 -0.3225  3.2795
 8355TIP3   OH249259   6.376   2.803  11.296  0.3280  0.1089  0.2290
 8355TIP3    H149260   6.390   2.818  11.390  0.4699 -0.7482  0.3554
 8355TIP3    H249261   6.406   2.884  11.254  1.3678  0.0701  0.8438
 8356TIP3   OH249262   1.307   6.141  10.955  0.3874 -0.1221 -0.6328
 8356TIP3    H149263   1.369   6.174  10.891  2.1587  1.7319  1.8177
 8356TIP3    H249264   1.335   6.051  10.972  0.5602 -0.2657 -1.6128
 8357TIP3   OH249265   4.307   0.623  11.634 -0.2244 -0.1493 -0.2619
 8357TIP3    H149266   4.299   0.572  11.715 -2.8624  0.3556 -0.1024
 8357TIP3    H249267   4.263   0.705  11.654  0.8457  0.7956 -1.6293
 8358TIP3   OH249268   6.933   2.414  10.371 -0.7135  0.1565  0.5907
 8358TIP3    H149269   6.867   2.362  10.418  0.3432  0.4921  2.5407
 8358TIP3    H249270   6.905   2.505  10.383 -0.3410  0.2561  0.7233
 8359TIP3   OH249271   3.476   7.533  12.022  0.0619 -0.1721  1.2139
 8359TIP3    H149272   3.383   7.534  12.001  0.3506 -2.1133 -0.3978
 8359TIP3    H249273   3.485   7.596  12.094 -2.3155  0.7479  0.7932
 8360TIP3   OH249274   0.235   1.096  12.259  0.4196 -0.1130 -0.1345
 8360TIP3    H149275   0.151   1.054  12.273  1.5871 -2.1219  1.2907
 8360TIP3    H249276   0.276   1.098  12.346  2.1255  0.1880 -0.9059
 8361TIP3   OH249277   1.285   5.748  10.535  0.0375 -0.1996 -0.1634
 8361TIP3    H149278   1.212   5.797  10.570 -1.6799 -1.2595 -2.0301
 8361TIP3    H249279   1.361   5.806  10.546 -0.9015  0.6827  2.3612
 8362TIP3   OH249280   1.505   6.501  11.613  0.3028  0.4946 -0.3529
 8362TIP3    H149281   1.490   6.455  11.695  0.4205  1.5304  0.2739
 8362TIP3    H249282   1.536   6.434  11.552  0.6624 -0.2049  0.5825
 8363TIP3   OH249283   1.531   0.504  10.606  0.4840 -0.3982  0.2851
 8363TIP3    H149284   1.568   0.459  10.682 -0.3441  1.4174  1.8585
 8363TIP3    H249285   1.440   0.522  10.631  0.2106  0.2878 -1.1184
 8364TIP3   OH249286   3.203   2.788  11.392 -0.5628  0.2385  0.0102
 8364TIP3    H149287   3.109   2.799  11.380 -0.2327  2.1743 -1.2390
 8364TIP3    H249288   3.217   2.693  11.394 -2.4457 -0.0785 -0.5429
 8365TIP3   OH249289   4.880   7.660  11.944 -0.2791 -0.3367  0.1621
 8365TIP3    H149290   4.822   7.726  11.906 -0.6141 -0.5442  0.3056
 8365TIP3    H249291   4.967   7.682  11.910 -0.3610  0.2623  0.3257
 8366TIP3   OH249292   1.011   3.670  11.956 -0.4618 -0.0330  0.4332
 8366TIP3    H149293   0.970   3.595  11.914 -0.9550 -0.1966  1.1899
 8366TIP3    H249294   1.078   3.632  12.013 -0.8436  0.0872  0.9642
 8367TIP3   OH249295   7.086   4.755  11.413  0.7558  0.3051 -0.2355
 8367TIP3    H149296   7.101   4.827  11.473  1.0240  0.6896 -0.7515
 8367TIP3    H249297   7.131   4.781  11.332  1.5595 -0.7916 -0.1731
 8368TIP3   OH249298   0.367   6.587  11.457  0.3636  0.2408 -0.0467
 8368TIP3    H149299   0.282   6.611  11.494 -0.9148  0.4036 -2.8960
 8368TIP3    H249300   0.362   6.492  11.448  1.1086  0.0698  1.0963
 8369TIP3   OH249301   1.336   1.963  11.778 -0.2261  0.1635 -0.0333
 8369TIP3    H149302   1.322   1.997  11.689 -1.2506  0.8430  0.3643
 8369TIP3    H249303   1.313   1.870  11.772  1.4068 -0.2154 -0.8617
 8370TIP3   OH249304   2.223   1.578  10.499 -0.2759  0.4748  0.0922
 8370TIP3    H149305   2.190   1.663  10.530 -0.2910  0.1608  0.9469
 8370TIP3    H249306   2.157   1.515  10.526 -0.6281  0.2736 -1.1951
 8371TIP3   OH249307   4.641   0.119  11.172 -0.1646  0.0644  0.0344
 8371TIP3    H149308   4.622   0.063  11.247  0.7954 -0.9159 -0.4255
 8371TIP3    H249309   4.727   0.156  11.190 -0.7289  1.3081  0.2665
 8372TIP3   OH249310   6.726   2.008  12.892 -0.1161  0.0946 -0.1137
 8372TIP3    H149311   6.790   2.075  12.871 -0.3414  0.0628 -0.9605
 8372TIP3    H249312   6.756   1.930  12.845 -0.1325 -0.2602  0.4459
 8373TIP3   OH249313   7.501   4.047  12.961 -0.1945 -0.3999 -0.3696
 8373TIP3    H149314   7.420   4.096  12.967 -1.7750 -2.5978 -2.1079
 8373TIP3    H249315   7.479   3.969  12.911  2.6264 -1.9020  0.4635
 8374TIP3   OH249316   5.531   1.980  11.888 -0.4028 -0.1052 -0.0156
 8374TIP3    H149317   5.456   2.010  11.837 -1.0906  0.3828  1.2189
 8374TIP3    H249318   5.574   2.061  11.916  0.0274 -0.3620  0.0668
 8375TIP3   OH249319   0.754   5.187  11.792  0.7004  0.2672  0.2552
 8375TIP3    H149320   0.683   5.251  11.792  1.8085  1.5425  0.9109
 8375TIP3    H249321   0.712   5.106  11.821 -0.7772  0.6064 -0.7830
 8376TIP3   OH249322   2.402   5.493  13.315  0.1700  0.4801  0.0765
 8376TIP3    H149323   2.376   5.554  13.246  2.7018 -1.2293 -2.6734
 8376TIP3    H249324   2.345   5.417  13.303  0.4359  0.2893 -0.0106
 8377TIP3   OH249325   7.619   6.113  10.806  0.2957  0.1351 -0.1401
 8377TIP3    H149326   7.708   6.079  10.815  0.3273 -0.0639 -1.1330
 8377TIP3    H249327   7.568   6.066  10.872  0.8634  0.0353  0.2320
 8378TIP3   OH249328   3.078   7.087  11.872 -0.5039  0.3642 -0.4783
 8378TIP3    H149329   3.121   7.113  11.953 -2.3641  0.8780  0.4131
 8378TIP3    H249330   3.090   6.993  11.866  0.4563  0.4579 -0.1087
 8379TIP3   OH249331   3.500   3.415  10.329 -0.5524 -0.6099 -0.3605
 8379TIP3    H149332   3.430   3.461  10.284  0.1504 -0.2452 -1.1008
 8379TIP3    H249333   3.471   3.324  10.333 -0.8340 -0.5560 -1.1286
 8380TIP3   OH249334   6.347   0.461  11.963  0.1549  0.3147 -0.2151
 8380TIP3    H149335   6.323   0.389  11.905 -2.5138 -0.6160  1.8045
 8380TIP3    H249336   6.264   0.506  11.981  0.9389  0.9186  2.2996
 8381TIP3   OH249337   4.380   2.866  10.733 -0.1421  0.0217  0.2110
 8381TIP3    H149338   4.384   2.832  10.643  0.5338 -1.3262  0.7176
 8381TIP3    H249339   4.467   2.901  10.749  0.1659 -0.9510  0.7641
 8382TIP3   OH249340   0.577   3.493  11.640 -0.0780  0.0533 -0.3592
 8382TIP3    H149341   0.621   3.411  11.662  2.0196  0.9750 -0.9008
 8382TIP3    H249342   0.576   3.494  11.544 -0.6779  0.3859 -0.3555
 8383TIP3   OH249343   4.356   1.097  11.132 -0.3012 -0.4483  0.4989
 8383TIP3    H149344   4.446   1.118  11.109 -0.7028 -0.1957 -0.9097
 8383TIP3    H249345   4.327   1.171  11.186  0.4773 -0.7790  1.3969
 8384TIP3   OH249346   2.401   4.879  11.861 -0.4420 -0.3641 -0.2072
 8384TIP3    H149347   2.433   4.871  11.951  1.6132  0.4712 -0.8037
 8384TIP3    H249348   2.415   4.793  11.823  0.0420 -0.3267 -0.1240
 8385TIP3   OH249349   5.965   1.247  11.720 -0.3074 -0.2046 -0.0590
 8385TIP3    H149350   5.877   1.225  11.751 -1.2007  1.7088 -1.0817
 8385TIP3    H249351   6.013   1.164  11.724 -2.0051 -1.2007  0.9584
 8386TIP3   OH249352   4.508   4.645  10.707 -0.4773  0.4471 -0.2203
 8386TIP3    H149353   4.587   4.668  10.659  1.1561 -0.4734  1.8614
 8386TIP3    H249354   4.518   4.552  10.727 -1.0835  0.7700  1.8261
 8387TIP3   OH249355   6.773   3.968  10.337  0.5905 -0.7510  0.5347
 8387TIP3    H149356   6.709   4.039  10.334  0.1180 -1.1705 -1.9042
 8387TIP3    H249357   6.849   4.005  10.381 -0.2807  0.6893  0.8792
 8388TIP3   OH249358   1.445   2.001  12.249 -0.1635 -0.0519 -0.0509
 8388TIP3    H149359   1.350   2.009  12.253 -0.2501 -1.0492 -0.0626
 8388TIP3    H249360   1.462   1.947  12.171  0.3539 -0.8375  0.5907
 8389TIP3   OH249361   1.254   6.485  13.187 -0.0029 -0.7885  0.0520
 8389TIP3    H149362   1.177   6.492  13.244  1.8782 -1.7405  2.9223
 8389TIP3    H249363   1.284   6.576  13.178 -0.5343 -0.5806  0.2802
 8390TIP3   OH249364   3.825   0.771  11.133  0.0053 -0.2612  0.3245
 8390TIP3    H149365   3.894   0.761  11.198 -0.0860  0.0957  0.4836
 8390TIP3    H249366   3.748   0.800  11.183  0.1040  0.6144 -0.0112
 8391TIP3   OH249367   2.013   1.611  11.528  0.4910 -0.0779 -1.0406
 8391TIP3    H149368   2.034   1.595  11.436 -1.0384 -1.7415 -1.1513
 8391TIP3    H249369   2.018   1.706  11.537  0.0133  0.1918 -3.0171
 8392TIP3   OH249370   0.058   3.431  11.024  0.1851  0.1988 -0.1265
 8392TIP3    H149371   0.038   3.350  11.070 -0.8934  0.0059 -0.9000
 8392TIP3    H249372   0.089   3.491  11.092  2.2973 -1.2344  0.2746
 8393TIP3   OH249373   1.487   5.892  10.671  0.0547 -0.4009  0.1533
 8393TIP3    H149374   1.485   5.928  10.760 -0.2302  0.3637 -0.1540
 8393TIP3    H249375   1.581   5.881  10.652  0.2451  1.4517 -0.2200
 8394TIP3   OH249376   7.367   4.672  10.724  0.6411  0.1669 -0.3185
 8394TIP3    H149377   7.383   4.587  10.765 -0.2295  0.4623  0.6849
 8394TIP3    H249378   7.401   4.735  10.787  1.0295  0.5732 -0.9352
 8395TIP3   OH249379   5.791   7.033  13.224 -0.3159  0.7146  0.2851
 8395TIP3    H149380   5.749   6.963  13.274 -0.3724  0.5528  0.0127
 8395TIP3    H249381   5.722   7.066  13.166 -0.8725  2.3629  1.8111
 8396TIP3   OH249382   4.639   4.426  11.934  0.1022  0.7180  0.0913
 8396TIP3    H149383   4.701   4.461  11.871  0.8267  0.3858  0.5988
 8396TIP3    H249384   4.693   4.394  12.006 -0.6070 -0.3247  0.1857
 8397TIP3   OH249385   4.342   0.361  10.841  0.4948  0.3511 -0.6134
 8397TIP3    H149386   4.391   0.443  10.836 -1.1981  1.3449 -1.7732
 8397TIP3    H249387   4.267   0.374  10.783 -1.5670 -0.8266  1.6255
 8398TIP3   OH249388   1.041   1.305  11.278  0.0736  0.5199 -0.5971
 8398TIP3    H149389   1.070   1.386  11.320  0.0022  0.4380 -0.3890
 8398TIP3    H249390   1.033   1.327  11.185  0.1539  0.7231 -0.5551
 8399TIP3   OH249391   7.318   1.024  11.801  0.6404 -0.1341 -0.1973
 8399TIP3    H149392   7.331   0.941  11.755  0.3145 -0.1117 -0.3362
 8399TIP3    H249393   7.264   1.076  11.741  2.2826  0.8443 -0.8829
 8400TIP3   OH249394   5.278   4.591  11.661 -0.2064 -0.0985  0.2459
 8400TIP3    H149395   5.364   4.578  11.699 -0.1366 -0.7151 -0.1059
 8400TIP3    H249396   5.255   4.506  11.623 -0.6487  0.2558 -0.3035
 8401TIP3   OH249397   3.423   4.312  13.072  0.1805  0.4029 -0.1907
 8401TIP3    H149398   3.414   4.227  13.116  0.6797  0.8124  0.7266
 8401TIP3    H249399   3.475   4.365  13.133 -0.0914  1.3562 -0.7736
 8402TIP3   OH249400   1.275   1.816  10.365  0.7099 -0.3785 -0.0966
 8402TIP3    H149401   1.328   1.861  10.299  0.8312  0.6188  0.6613
 8402TIP3    H249402   1.340   1.783  10.428  0.4124  2.0535  1.5851
 8403TIP3   OH249403   1.575   5.468  12.212  0.6317  0.0954 -0.4889
 8403TIP3    H149404   1.667   5.457  12.189  0.8415  1.4795 -0.4012
 8403TIP3    H249405   1.573   5.550  12.262 -0.9716  1.3248 -2.4421
 8404TIP3   OH249406   0.471   0.647  11.522  0.4437 -0.0404 -0.4729
 8404TIP3    H149407   0.486   0.739  11.502  1.3070 -0.3737 -1.4383
 8404TIP3    H249408   0.391   0.625  11.474  0.0233  0.2941  0.0651
 8405TIP3   OH249409   4.863   5.363  11.833  0.3501  0.3044  0.3453
 8405TIP3    H149410   4.804   5.375  11.758  0.0365 -0.2001  0.5055
 8405TIP3    H249411   4.840   5.434  11.893  2.0060  1.9910 -0.8945
 8406TIP3   OH249412   4.665   3.451  11.965 -0.2620  0.3074  0.3393
 8406TIP3    H149413   4.632   3.481  11.880 -0.5249  0.3100  0.4423
 8406TIP3    H249414   4.595   3.398  12.001  0.2916 -0.6414  0.0489
 8407TIP3   OH249415   3.048   0.665  11.798 -0.6515 -0.2610  0.0147
 8407TIP3    H149416   3.005   0.746  11.769  0.5569  0.5634  0.4455
 8407TIP3    H249417   3.108   0.693  11.867  1.4752 -1.1570 -1.3671
 8408TIP3   OH249418   2.207   0.516  11.844 -0.3780  0.1947  0.1889
 8408TIP3    H149419   2.275   0.578  11.870  0.6971  0.5047 -2.9961
 8408TIP3    H249420   2.135   0.570  11.812 -0.1736 -0.1587 -0.9005
 8409TIP3   OH249421   0.471   1.334  11.737  0.0473 -0.0528  0.0142
 8409TIP3    H149422   0.381   1.304  11.723  0.3052 -0.1274 -1.7181
 8409TIP3    H249423   0.469   1.426  11.710  0.2338  0.2925  1.1407
 8410TIP3   OH249424   4.713   5.889  12.258  0.0460  0.7704 -0.4701
 8410TIP3    H149425   4.653   5.816  12.273  0.4540 -0.0115 -2.3535
 8410TIP3    H249426   4.777   5.883  12.329 -1.0268  0.4837  0.4905
 8411TIP3   OH249427   7.465   6.228  12.584 -0.4121 -0.2189 -0.0713
 8411TIP3    H149428   7.542   6.284  12.595  0.7289 -1.3883 -1.6224
 8411TIP3    H249429   7.410   6.276  12.521 -0.3767  0.0612  0.1094
 8412TIP3   OH249430   2.112   7.504  10.737 -0.1473  0.0133  0.2300
 8412TIP3    H149431   2.068   7.484  10.654 -1.1935 -0.9670  0.9915
 8412TIP3    H249432   2.162   7.584  10.719 -1.8037  0.8698 -0.8300
 8413TIP3   OH249433   1.549   2.834  11.358  0.4126  0.5492 -0.4696
 8413TIP3    H149434   1.608   2.906  11.379 -0.6021  1.0862  0.6525
 8413TIP3    H249435   1.472   2.876  11.319 -0.9614  0.3131  1.8101
 8414TIP3   OH249436   6.420   0.684  11.441 -0.2209  0.1072  0.3039
 8414TIP3    H149437   6.448   0.679  11.533 -1.9318  0.2698  0.8541
 8414TIP3    H249438   6.441   0.597  11.406 -2.4423 -1.1103  1.7467
 8415TIP3   OH249439   6.768   0.115  11.097  0.2359  0.4903  0.1433
 8415TIP3    H149440   6.726   0.042  11.141  1.1468 -0.1012  0.0477
 8415TIP3    H249441   6.854   0.083  11.072  0.7717  1.6816  0.3597
 8416TIP3   OH249442   1.572   0.266  11.710 -0.0963  0.5922  0.4365
 8416TIP3    H149443   1.550   0.290  11.800  0.3236  2.0068  0.1785
 8416TIP3    H249444   1.489   0.272  11.662 -0.4892 -0.9625  0.8642
 8417TIP3   OH249445   6.428   6.973  12.260 -0.0628 -0.4402  0.8719
 8417TIP3    H149446   6.441   6.878  12.250  0.9529 -0.1635 -0.8924
 8417TIP3    H249447   6.353   6.993  12.205  0.7724  0.0082 -0.1306
 8418TIP3   OH249448   1.424   2.900  11.983  0.1118  0.0117  0.3808
 8418TIP3    H149449   1.332   2.903  12.008 -0.5024  0.9769 -1.7801
 8418TIP3    H249450   1.428   2.839  11.910  1.1116  0.2777  0.1913
 8419TIP3   OH249451   5.760   1.727  12.320 -0.2189 -0.1942  0.2429
 8419TIP3    H149452   5.733   1.705  12.231 -0.8191  3.3514 -0.6149
 8419TIP3    H249453   5.851   1.755  12.311 -0.6295  1.2986  0.4689
 8420TIP3   OH249454   1.312   5.545  11.552  0.6614 -0.2546  0.2115
 8420TIP3    H149455   1.227   5.582  11.526  0.3949 -0.4765  0.7408
 8420TIP3    H249456   1.327   5.581  11.639  0.2338 -1.6430  0.8814
 8421TIP3   OH249457   2.990   0.837  10.239  0.8781  0.4773  0.1177
 8421TIP3    H149458   2.926   0.871  10.177  1.8873  0.2468 -1.0798
 8421TIP3    H249459   3.041   0.913  10.267  0.9621  0.4537  0.0279
 8422TIP3   OH249460   3.614   3.992  11.771  0.4807 -0.5368 -0.3900
 8422TIP3    H149461   3.663   3.914  11.745  0.6686  0.0900 -1.9536
 8422TIP3    H249462   3.680   4.059  11.785  0.2082 -0.2421 -0.5200
 8423TIP3   OH249463   3.665   1.940  12.556 -0.4598  0.7842 -0.1218
 8423TIP3    H149464   3.631   1.945  12.646  0.1417  1.4277  0.0770
 8423TIP3    H249465   3.737   2.002  12.554 -0.8946  1.2777 -1.2592
 8424TIP3   OH249466   1.661   1.849  10.379  0.1169 -0.4839  0.7753
 8424TIP3    H149467   1.740   1.872  10.429 -0.0898  0.1819  0.8140
 8424TIP3    H249468   1.646   1.926  10.324 -2.3038  0.7867  2.9947
 8425TIP3   OH249469   0.613   0.068  11.136  0.6671  0.1198  0.2125
 8425TIP3    H149470   0.574   0.154  11.121  2.4593  0.7300 -1.5426
 8425TIP3    H249471   0.703   0.088  11.163  1.9912 -1.0961 -2.8656
 8426TIP3   OH249472   2.772   1.742  10.377 -0.0464 -0.4631 -0.4655
 8426TIP3    H149473   2.811   1.760  10.462 -0.4817 -3.3169  0.4543
 8426TIP3    H249474   2.678   1.745  10.391 -0.1341 -0.1301 -1.0668
 8427TIP3   OH249475   5.358   4.062  10.791  0.1805 -0.6689 -0.3584
 8427TIP3    H149476   5.343   4.079  10.884 -1.2189 -0.1778 -0.6516
 8427TIP3    H249477   5.284   4.007  10.764 -1.0981  1.6370 -1.8329
 8428TIP3   OH249478   6.330   7.635  11.128 -0.2119 -0.1592  0.1747
 8428TIP3    H149479   6.370   7.555  11.094 -1.2436 -0.5601 -0.1041
 8428TIP3    H249480   6.322   7.693  11.052  0.6486  0.2823  0.3977
 8429TIP3   OH249481   2.858   7.293  12.054 -0.2103 -0.0248  0.6395
 8429TIP3    H149482   2.953   7.288  12.065 -0.2999  0.6925  1.8890
 8429TIP3    H249483   2.824   7.221  12.107 -0.3977  0.1017  0.6901
 8430TIP3   OH249484   6.615   2.351  11.663  0.0271  0.3413  0.7991
 8430TIP3    H149485   6.627   2.401  11.744 -0.6703 -0.3225  1.3111
 8430TIP3    H249486   6.538   2.391  11.622  0.6711  1.0076  0.1957
 8431TIP3   OH249487   3.320   0.658  11.260 -0.4362 -0.2308 -0.0598
 8431TIP3    H149488   3.379   0.668  11.186 -0.0480  1.9309  0.4556
 8431TIP3    H249489   3.360   0.590  11.314  0.6831 -0.0010 -0.5622
 8432TIP3   OH249490   7.116   5.494  11.962 -0.2048 -0.1491 -0.2336
 8432TIP3    H149491   7.043   5.552  11.984  0.9215  1.2422 -0.0078
 8432TIP3    H249492   7.100   5.414  12.013 -1.1548  0.4233  0.3950
 8433TIP3   OH249493   3.320   3.711  11.456 -0.3613 -0.2073 -0.0019
 8433TIP3    H149494   3.351   3.711  11.547 -1.1065  0.5195  0.2615
 8433TIP3    H249495   3.362   3.787  11.416 -0.6527 -0.0658 -0.0433
 8434TIP3   OH249496   2.901   6.040  10.954 -0.1939  0.2249  0.2882
 8434TIP3    H149497   2.888   5.952  10.991  3.0638  0.3810  2.1584
 8434TIP3    H249498   2.931   6.093  11.028 -0.1466  2.4332 -1.2240
 8435TIP3   OH249499   2.946   2.241  10.692 -0.0915 -0.4211  0.1240
 8435TIP3    H149500   2.962   2.149  10.715  1.4466  0.2469  2.0385
 8435TIP3    H249501   3.018   2.289  10.733 -1.4748  1.7790  0.1765
 8436TIP3   OH249502   4.874   4.422  10.597 -0.1541  0.1897  0.0735
 8436TIP3    H149503   4.883   4.343  10.651 -1.4174 -0.0660 -0.0716
 8436TIP3    H249504   4.943   4.413  10.531  0.2737 -0.3530  0.5774
 8437TIP3   OH249505   1.370   0.497  11.903 -0.1398 -0.1171  0.3413
 8437TIP3    H149506   1.292   0.487  11.847  0.7916  2.4125 -1.6004
 8437TIP3    H249507   1.370   0.590  11.927  0.9846 -0.5963  2.3873
 8438TIP3   OH249508   0.330   7.048  11.592  0.0669  0.3208  0.1186
 8438TIP3    H149509   0.302   6.989  11.663 -1.4743  2.0828  1.0567
 8438TIP3    H249510   0.269   7.121  11.596  1.3555  1.5724 -1.6058
 8439TIP3   OH249511   4.941   5.143  11.369  0.0259  0.1645 -0.0404
 8439TIP3    H149512   4.911   5.053  11.382 -0.9738  0.4130 -0.5269
 8439TIP3    H249513   4.863   5.191  11.345  0.2006  1.5421  1.8634
 8440TIP3   OH249514   3.345   6.116  11.920 -0.0228 -0.1660  0.1834
 8440TIP3    H149515   3.369   6.026  11.943 -0.4292  0.0361  1.4581
 8440TIP3    H249516   3.258   6.128  11.957 -0.8852  0.0801 -1.8239
 8441TIP3   OH249517   3.655   0.898  11.286  0.5982 -0.2593 -0.4432
 8441TIP3    H149518   3.570   0.942  11.282  0.2685 -0.8417 -0.0120
 8441TIP3    H249519   3.684   0.910  11.377  0.6609 -0.6454 -0.4100
 8442TIP3   OH249520   2.569   1.561  11.039 -0.0807  0.0211 -0.1389
 8442TIP3    H149521   2.581   1.559  10.944  1.6559 -0.7736  0.0636
 8442TIP3    H249522   2.617   1.639  11.068 -0.0985 -0.0717  0.1451
 8443TIP3   OH249523   4.892   7.025  11.683 -0.0773  0.2973  0.3424
 8443TIP3    H149524   4.913   7.001  11.773 -1.8137 -0.7364  0.5106
 8443TIP3    H249525   4.885   6.942  11.636 -0.9024  0.7198 -0.3263
 8444TIP3   OH249526   4.193   3.981  10.418 -0.4746 -0.1763  0.4361
 8444TIP3    H149527   4.201   3.913  10.351 -2.6475  0.6350 -0.7474
 8444TIP3    H249528   4.283   4.002  10.442  0.6148  0.8686 -3.7169
 8445TIP3   OH249529   6.742   7.605  13.013  0.1018 -0.0193  0.3557
 8445TIP3    H149530   6.720   7.697  13.001  1.9811  0.2749 -1.4878
 8445TIP3    H249531   6.665   7.558  12.981 -0.1384  0.9288 -0.5043
 8446TIP3   OH249532   3.350   5.330  12.775  0.4347 -0.7966 -0.8123
 8446TIP3    H149533   3.256   5.328  12.757  0.1528  0.1945  0.4027
 8446TIP3    H249534   3.382   5.243  12.750 -0.7920 -1.1332 -1.2603
 8447TIP3   OH249535   4.205   4.323  10.822  0.1254 -0.2355  0.0546
 8447TIP3    H149536   4.267   4.280  10.763 -0.0938 -0.7036  0.1613
 8447TIP3    H249537   4.183   4.406  10.779  0.6088 -0.1928 -0.1145
 8448TIP3   OH249538   1.941   3.219  11.142 -0.3980 -0.5653  0.4215
 8448TIP3    H149539   1.970   3.196  11.230 -1.2068  1.3684  1.2583
 8448TIP3    H249540   1.916   3.311  11.149 -3.2383 -1.1094 -1.0801
 8449TIP3   OH249541   5.243   0.670  11.228  0.8212 -0.0964 -0.3799
 8449TIP3    H149542   5.183   0.672  11.303  2.1469  1.7616  0.7157
 8449TIP3    H249543   5.188   0.643  11.155 -1.2777  1.1262  0.6466
 8450TIP3   OH249544   6.680   3.944  11.478  0.8681 -0.1401  0.7783
 8450TIP3    H149545   6.640   3.908  11.556 -0.1053  0.0658  0.3827
 8450TIP3    H249546   6.611   3.994  11.435  2.1340  2.1969  1.2718
 8451TIP3   OH249547   3.884   2.252  11.416 -0.8222  0.2080 -0.0328
 8451TIP3    H149548   3.822   2.200  11.468 -0.5449 -0.7955 -0.6641
 8451TIP3    H249549   3.834   2.278  11.339 -0.1019 -1.8849 -1.2892
 8452TIP3   OH249550   0.388   3.239  10.448 -0.4996 -0.5877  0.1603
 8452TIP3    H149551   0.393   3.296  10.525 -0.8295 -1.0824  0.5554
 8452TIP3    H249552   0.304   3.195  10.456 -0.5296 -0.6487 -0.4844
 8453TIP3   OH249553   3.733   3.777  11.095 -0.2891  0.2506 -0.1343
 8453TIP3    H149554   3.729   3.737  11.182 -2.0857 -2.3244 -1.2571
 8453TIP3    H249555   3.825   3.802  11.085  0.1449 -0.1295  2.1587
 8454TIP3   OH249556   4.522   0.584  10.591  0.0281 -0.4313  0.4686
 8454TIP3    H149557   4.519   0.543  10.504 -1.1024 -2.0415  1.2011
 8454TIP3    H249558   4.578   0.661  10.580 -0.2356 -0.4957 -1.7125
 8455TIP3   OH249559   1.425   0.109  12.264 -0.2729 -0.0156 -0.2499
 8455TIP3    H149560   1.405   0.080  12.352  0.9346  0.4224  0.1898
 8455TIP3    H249561   1.442   0.029  12.215  0.9015 -0.1866  0.4067
 8456TIP3   OH249562   4.181   5.473  13.073 -0.5825  0.0284  0.5295
 8456TIP3    H149563   4.263   5.425  13.085 -0.1903  0.6669  0.4497
 8456TIP3    H249564   4.193   5.519  12.990 -1.3709 -0.5556  0.0696
 8457TIP3   OH249565   0.301   0.786  10.943 -0.0204 -0.3816  0.2684
 8457TIP3    H149566   0.373   0.785  11.006  0.7135  0.4322 -0.5451
 8457TIP3    H249567   0.224   0.807  10.996  0.5559  0.1246  0.9221
 8458TIP3   OH249568   6.174   4.888  11.388 -0.1076 -0.1424  0.0257
 8458TIP3    H149569   6.166   4.983  11.381  1.4402 -0.0051 -0.3466
 8458TIP3    H249570   6.248   4.874  11.447  0.0523 -1.0981 -0.3765
 8459TIP3   OH249571   6.780   6.364  10.603  0.2010  0.9650 -0.4221
 8459TIP3    H149572   6.737   6.368  10.517  0.3860 -0.8605 -0.6245
 8459TIP3    H249573   6.855   6.307  10.590 -1.4400 -1.8841  1.5963
 8460TIP3   OH249574   2.206   4.210  10.555 -0.3367  0.6565 -0.0643
 8460TIP3    H149575   2.173   4.292  10.590 -0.2445  0.1335  1.3245
 8460TIP3    H249576   2.288   4.233  10.512  0.8983  1.0049  2.3138
 8461TIP3   OH249577   7.064   2.414  12.884 -0.2467  0.3240  0.1317
 8461TIP3    H149578   7.061   2.477  12.956  1.2078 -0.1572  0.6335
 8461TIP3    H249579   7.150   2.374  12.890  0.2871  0.9143 -2.4504
 8462TIP3   OH249580   6.632   1.788  12.191  0.1624  0.4930 -0.2314
 8462TIP3    H149581   6.665   1.719  12.249 -0.1867  0.2415 -0.3315
 8462TIP3    H249582   6.672   1.769  12.106 -1.4137 -0.7093 -0.7410
 8463TIP3   OH249583   6.929   3.959  11.808  0.2384  0.2174  0.0056
 8463TIP3    H149584   7.021   3.960  11.783 -0.0590 -1.8326 -1.4058
 8463TIP3    H249585   6.882   3.980  11.727 -0.6096 -2.2322 -0.2280
 8464TIP3   OH249586   1.583   1.507  11.043 -0.3088 -0.8062  0.1501
 8464TIP3    H149587   1.642   1.502  10.967 -1.1992  1.9719 -0.8138
 8464TIP3    H249588   1.501   1.470  11.012 -0.0298 -1.7927  0.5324
 8465TIP3   OH249589   2.617   2.090  10.347 -0.0568  0.2109 -0.1041
 8465TIP3    H149590   2.708   2.088  10.377  1.0802 -0.8049 -3.2644
 8465TIP3    H249591   2.568   2.046  10.417  2.2544 -1.4203  0.6123
 8466TIP3   OH249592   3.946   1.516  10.630 -0.4108  0.2917  0.0237
 8466TIP3    H149593   3.851   1.521  10.618 -0.3162  1.1012 -0.4325
 8466TIP3    H249594   3.967   1.592  10.685  0.2006  1.1566 -1.3708
 8467TIP3   OH249595   6.698   2.671  12.698  0.1166  0.6052 -0.4058
 8467TIP3    H149596   6.735   2.718  12.773 -0.6853  0.7923 -0.1042
 8467TIP3    H249597   6.614   2.715  12.682 -1.1056 -1.2379  0.4518
 8468TIP3   OH249598   5.613   0.983  10.601  0.5193  0.0245  0.2978
 8468TIP3    H149599   5.595   0.960  10.692 -3.2952 -2.3361 -0.8122
 8468TIP3    H249600   5.528   0.976  10.557  2.2255  0.6668 -3.5517
 8469TIP3   OH249601   3.534   5.510  12.881  0.3277  0.1928 -0.1902
 8469TIP3    H149602   3.521   5.488  12.973 -0.9938 -0.3905 -0.5081
 8469TIP3    H249603   3.467   5.461  12.834 -0.5369  2.2995 -1.2505
 8470TIP3   OH249604   2.787   1.109  12.196  0.5133 -0.0710  0.5249
 8470TIP3    H149605   2.700   1.074  12.176  0.2121  0.5489  0.6988
 8470TIP3    H249606   2.775   1.204  12.194  1.0909  0.0191  0.9806
 8471TIP3   OH249607   4.952   3.651  12.443  0.4651 -0.0611 -0.4579
 8471TIP3    H149608   4.931   3.567  12.403 -0.7704 -0.0871  0.2018
 8471TIP3    H249609   4.869   3.683  12.477  0.7771  1.7566 -1.2937
 8472TIP3   OH249610   0.889   4.493  10.887  0.0205 -0.6114 -0.3095
 8472TIP3    H149611   0.817   4.430  10.880 -2.4058  2.0796 -1.9733
 8472TIP3    H249612   0.911   4.515  10.797  1.2089  0.5190  0.2160
 8473TIP3   OH249613   5.276   5.144  10.422 -0.7197  0.1271  0.0877
 8473TIP3    H149614   5.327   5.087  10.364 -1.0234  0.0492 -0.1060
 8473TIP3    H249615   5.252   5.088  10.496 -2.8735 -0.6750 -1.1062
 8474TIP3   OH249616   4.984   2.280  10.487 -0.1247  0.8275 -0.0617
 8474TIP3    H149617   5.047   2.273  10.559 -0.1177 -1.3362 -0.2048
 8474TIP3    H249618   4.913   2.333  10.523 -0.2056 -0.3437  1.6694
 8475TIP3   OH249619   4.580   7.198  10.698  1.0183 -0.1742 -0.3546
 8475TIP3    H149620   4.562   7.127  10.636 -0.7688 -1.1727  1.1820
 8475TIP3    H249621   4.493   7.233  10.720  1.5571  0.0111  1.6767
 8476TIP3   OH249622   3.843   7.346  11.095  0.2109 -0.4264  0.5143
 8476TIP3    H149623   3.787   7.268  11.092 -0.2965 -0.1321  1.7835
 8476TIP3    H249624   3.914   7.322  11.155  0.7207 -0.3220 -0.0370
 8477TIP3   OH249625   2.707   0.388  11.102  0.1514 -0.2715 -0.3019
 8477TIP3    H149626   2.727   0.375  11.195 -0.4307  1.9651  0.1828
 8477TIP3    H249627   2.669   0.304  11.075 -0.5877 -0.6626  1.7458
 8478TIP3   OH249628   5.793   4.240  12.281 -0.2715 -0.1526 -0.0827
 8478TIP3    H149629   5.746   4.310  12.328 -0.6881 -0.1921 -0.4332
 8478TIP3    H249630   5.866   4.284  12.238 -1.7307  0.4655 -2.0525
 8479TIP3   OH249631   1.127   0.033  11.884 -0.1297 -0.3413 -0.3564
 8479TIP3    H149632   1.111   0.117  11.841 -0.7661 -0.8697 -1.2003
 8479TIP3    H249633   1.162   0.055  11.970  0.4233  0.7699 -0.8515
 8480TIP3   OH249634   0.250   7.602  11.381 -0.3403 -0.3144  0.1130
 8480TIP3    H149635   0.342   7.615  11.404 -0.1239  0.1039 -0.9477
 8480TIP3    H249636   0.251   7.529  11.319 -0.6630 -0.0438 -0.2194
 8481TIP3   OH249637   7.476   5.857  12.773  0.2513 -0.4469 -0.1106
 8481TIP3    H149638   7.535   5.782  12.759  1.3198  0.6386 -1.8297
 8481TIP3    H249639   7.465   5.895  12.686 -1.1794  0.7380  0.5552
 8482TIP3   OH249640   2.189   5.878  10.650  0.9203  0.3229  0.2498
 8482TIP3    H149641   2.126   5.807  10.643 -0.4934  1.4424  1.1476
 8482TIP3    H249642   2.274   5.834  10.654  0.0827 -1.3144  0.9254
 8483TIP3   OH249643   6.302   4.066  10.422  0.6853  0.2752 -0.2382
 8483TIP3    H149644   6.375   4.092  10.479  1.4784  0.6894 -1.3852
 8483TIP3    H249645   6.328   3.982  10.386  1.4102  1.1507 -1.9015
 8484TIP3   OH249646   2.971   0.145  11.930 -0.3307 -0.1570  0.0661
 8484TIP3    H149647   2.882   0.175  11.916 -0.0988  0.5412  0.0708
 8484TIP3    H249648   2.986   0.081  11.860 -0.1393  1.2375 -1.2150
 8485TIP3   OH249649   4.134   3.183  11.782 -0.0525  0.1824 -0.4133
 8485TIP3    H149650   4.052   3.143  11.754  0.0435 -0.2530 -0.0748
 8485TIP3    H249651   4.196   3.110  11.789  0.4300  0.5361 -0.8899
 8486TIP3   OH249652   6.072   4.142  10.614  0.2932 -0.1645 -0.2844
 8486TIP3    H149653   5.984   4.127  10.650  0.0679  2.5350  0.5503
 8486TIP3    H249654   6.064   4.122  10.521 -0.2638 -3.1784  0.3171
 8487TIP3   OH249655   6.790   5.012  12.223 -0.1249 -0.0461 -0.3498
 8487TIP3    H149656   6.863   4.950  12.213 -1.1625 -1.2532 -0.5817
 8487TIP3    H249657   6.764   5.032  12.133  0.1925  0.7527 -0.2769
 8488TIP3   OH249658   3.746   5.230  12.648  0.2043 -0.2455 -0.0200
 8488TIP3    H149659   3.668   5.178  12.670  1.6105 -2.0637  0.9779
 8488TIP3    H249660   3.757   5.289  12.722  0.9248 -1.4515  0.8683
 8489TIP3   OH249661   6.903   0.905  11.396  0.8267 -0.2834 -0.3348
 8489TIP3    H149662   6.956   0.864  11.464  1.0439 -0.0590 -0.3653
 8489TIP3    H249663   6.848   0.968  11.443 -0.8742 -1.8885 -0.0264
 8490TIP3   OH249664   3.340   3.628  11.079 -0.4028 -0.2029  0.9479
 8490TIP3    H149665   3.248   3.625  11.105 -0.5054 -0.5389  0.5510
 8490TIP3    H249666   3.349   3.557  11.016 -0.0397  0.2910  0.4405
 8491TIP3   OH249667   5.977   3.034  11.643 -0.6671  0.3613  0.5777
 8491TIP3    H149668   6.056   2.981  11.649 -1.2544 -0.6627 -0.3067
 8491TIP3    H249669   6.008   3.125  11.646  0.5643 -0.0147 -0.0402
 8492TIP3   OH249670   4.243   1.158  12.458  0.0744  0.4788 -0.2458
 8492TIP3    H149671   4.277   1.242  12.427  1.7869 -0.5048 -1.1580
 8492TIP3    H249672   4.285   1.093  12.403 -0.4168 -1.0582  1.1096
 8493TIP3   OH249673   2.998   0.942  12.199  0.4848  0.1687 -0.1253
 8493TIP3    H149674   2.926   0.880  12.197  0.6374 -0.0181 -1.9859
 8493TIP3    H249675   2.960   1.025  12.170  0.8799  0.2345 -0.4634
 8494TIP3   OH249676   0.225   2.930  10.249  0.5408 -0.5509 -0.0943
 8494TIP3    H149677   0.219   2.835  10.256 -0.5524 -0.4633  0.3602
 8494TIP3    H249678   0.149   2.956  10.198  0.5482  0.1301  0.2217
 8495TIP3   OH249679   4.063   4.567  10.472  0.6555 -0.1593  0.1436
 8495TIP3    H149680   4.133   4.595  10.530  1.0679  0.1449 -0.4915
 8495TIP3    H249681   4.015   4.647  10.452  0.6791 -0.2214 -0.1568
 8496TIP3   OH249682   3.223   5.405  11.775  0.0641 -0.3270 -0.0330
 8496TIP3    H149683   3.163   5.412  11.849 -1.1996 -1.9953 -0.8392
 8496TIP3    H249684   3.184   5.459  11.707 -0.6624 -1.5719 -0.6248
 8497TIP3   OH249685   3.823   2.344  11.884  0.5329 -0.0150 -0.2568
 8497TIP3    H149686   3.828   2.354  11.979 -1.6847 -0.0438 -0.0632
 8497TIP3    H249687   3.877   2.268  11.865  0.3117 -0.5513  1.1234
 8498TIP3   OH249688   0.561   6.916  10.387 -0.1776  0.5952 -0.4549
 8498TIP3    H149689   0.477   6.937  10.346 -0.4670  0.6861  0.1633
 8498TIP3    H249690   0.537   6.866  10.465  0.4116 -0.5027 -0.9513
 8499TIP3   OH249691   1.211   1.216  10.350  0.3913 -0.5462 -0.3220
 8499TIP3    H149692   1.244   1.304  10.335  1.3307 -0.5955  1.2287
 8499TIP3    H249693   1.174   1.190  10.266  2.6961  0.2193 -1.6920
 8500TIP3   OH249694   3.798   2.924  11.067  0.0882  0.1915  0.0092
 8500TIP3    H149695   3.816   2.832  11.088  0.7498  0.1408 -0.7675
 8500TIP3    H249696   3.884   2.962  11.046 -0.3431  0.6531 -0.9794
 8501TIP3   OH249697   4.344   6.595  11.565 -0.2481  0.0743 -0.2281
 8501TIP3    H149698   4.271   6.636  11.518  0.5798  1.4440 -0.3972
 8501TIP3    H249699   4.407   6.667  11.577  0.9957 -1.0321  0.0539
 8502TIP3   OH249700   6.919   2.063  11.913 -0.1778 -0.3685  0.2769
 8502TIP3    H149701   6.839   2.055  11.861  0.1664  0.2301 -0.3690
 8502TIP3    H249702   6.920   1.985  11.969 -1.4846 -0.1145  0.6848
 8503TIP3   OH249703   3.106   3.909  10.639 -0.0100 -0.1873  0.5806
 8503TIP3    H149704   3.116   3.851  10.563 -0.7024 -1.7451  1.6146
 8503TIP3    H249705   3.129   3.996  10.606 -0.7771 -0.7165 -1.5410
 8504TIP3   OH249706   7.094   0.914  12.383  0.0985  0.2784 -0.2772
 8504TIP3    H149707   7.187   0.913  12.405  0.0489  0.1518 -0.0679
 8504TIP3    H249708   7.088   0.860  12.304  0.0334 -0.7645  0.4191
 8505TIP3   OH249709   1.148   1.781  11.145  0.3734  0.6400 -0.6384
 8505TIP3    H149710   1.163   1.876  11.137 -0.5054  0.9328  0.8249
 8505TIP3    H249711   1.150   1.749  11.055  3.3590  1.5855 -1.0382
 8506TIP3   OH249712   5.946   1.357  10.953 -0.0157  1.0426  0.4061
 8506TIP3    H149713   6.038   1.353  10.981  0.5285 -0.8081 -1.3615
 8506TIP3    H249714   5.920   1.448  10.969  1.4727  1.1258  2.8053
 8507TIP3   OH249715   2.838   3.679  10.546 -0.8024 -1.0583  0.0578
 8507TIP3    H149716   2.792   3.713  10.622  1.6236 -1.2036  1.6759
 8507TIP3    H249717   2.799   3.725  10.471 -1.6783  0.7661  1.5799
 8508TIP3   OH249718   3.466   5.357  11.898 -0.0506  0.1481 -0.1780
 8508TIP3    H149719   3.426   5.401  11.823 -0.5601 -1.2327 -0.7488
 8508TIP3    H249720   3.508   5.279  11.862  2.3780  1.0142  0.5558
 8509TIP3   OH249721   4.034   3.761  10.918 -0.9917  0.0017  0.4711
 8509TIP3    H149722   4.055   3.749  11.011 -1.2538  1.0306  0.6820
 8509TIP3    H249723   4.075   3.845  10.895 -0.2616 -0.6185 -0.5572
 8510TIP3   OH249724   6.773   2.633  12.101  0.1266 -0.3369 -0.3942
 8510TIP3    H149725   6.820   2.551  12.117  0.7057  0.1725  0.6253
 8510TIP3    H249726   6.835   2.701  12.127 -1.5594  0.3289  2.2930
 8511TIP3   OH249727   4.839   0.580  11.041 -0.3251  0.1290  0.4972
 8511TIP3    H149728   4.758   0.531  11.059  1.6569 -4.4085 -1.3040
 8511TIP3    H249729   4.895   0.561  11.117  0.5746 -0.8115 -0.3669
 8512TIP3   OH249730   1.741   3.855  10.950 -0.0629  0.2910  0.6937
 8512TIP3    H149731   1.714   3.946  10.961  0.0955  0.1836  2.1190
 8512TIP3    H249732   1.836   3.859  10.936 -0.0305  0.3351  0.9279
 8513TIP3   OH249733   1.866   2.061  11.416  0.4917  0.1394 -0.0284
 8513TIP3    H149734   1.776   2.086  11.438  0.7529  0.1210  1.0871
 8513TIP3    H249735   1.906   2.142  11.385 -0.0912  0.0072 -1.1828
 8514TIP3   OH249736   4.337   2.731  13.267 -0.5428 -0.1024 -0.6830
 8514TIP3    H149737   4.373   2.787  13.198  0.0205 -0.6612 -0.8509
 8514TIP3    H249738   4.413   2.706  13.320 -0.7731 -0.7367 -0.6377
 8515TIP3   OH249739   6.118   1.270  12.708 -0.2038 -0.0236 -0.3791
 8515TIP3    H149740   6.211   1.281  12.727 -0.0163 -0.4530 -1.0230
 8515TIP3    H249741   6.095   1.345  12.653 -0.3923  0.4124  0.2793
 8516TIP3   OH249742   1.869   5.324  12.579  0.4508 -0.2681  0.3231
 8516TIP3    H149743   1.797   5.367  12.626  0.8814  0.3009  0.4840
 8516TIP3    H249744   1.921   5.282  12.648  1.4502  1.1153  0.4746
 8517TIP3   OH249745   7.628   5.090  12.589  0.1860  0.5374  0.1154
 8517TIP3    H149746   7.594   5.048  12.667  1.8740  0.0182  0.6223
 8517TIP3    H249747   7.625   5.022  12.521  2.2677 -0.2957  0.7595
 8518TIP3   OH249748   4.288   3.631  11.839  0.2201 -0.6872 -0.9131
 8518TIP3    H149749   4.361   3.599  11.785  3.0139  1.3843  1.3479
 8518TIP3    H249750   4.256   3.707  11.791  0.2717 -0.9502 -1.3794
 8519TIP3   OH249751   6.265   1.078  10.763 -0.3910 -0.2684  0.1025
 8519TIP3    H149752   6.295   1.164  10.790  1.5922 -0.6182 -0.8035
 8519TIP3    H249753   6.344   1.024  10.762 -1.2730 -1.6178 -1.0829
 8520TIP3   OH249754   0.210   1.793  12.158  0.1982  0.3837  0.1289
 8520TIP3    H149755   0.254   1.767  12.077 -0.0277 -2.8571  0.9106
 8520TIP3    H249756   0.254   1.743  12.227 -2.6258 -0.6524  1.3394
 8521TIP3   OH249757   3.014   0.320  13.145  0.1271 -0.1753  0.0225
 8521TIP3    H149758   3.075   0.261  13.190  0.2425 -0.4356 -0.4599
 8521TIP3    H249759   3.058   0.405  13.145  1.0392 -0.6134 -1.3500
 8522TIP3   OH249760   7.056   0.431  11.482 -0.3171 -0.8391 -0.4357
 8522TIP3    H149761   6.970   0.398  11.507 -0.9626 -0.4893 -2.0332
 8522TIP3    H249762   7.082   0.376  11.407  0.3529 -0.2461 -0.6554
 8523TIP3   OH249763   1.048   5.495  10.653 -0.6011  0.0443 -0.1602
 8523TIP3    H149764   1.038   5.569  10.713 -2.2199  0.1619 -0.5130
 8523TIP3    H249765   1.122   5.518  10.598 -0.4600  0.9398  0.3789
 8524TIP3   OH249766   5.354   2.662  11.663  0.1431 -0.2668  0.3238
 8524TIP3    H149767   5.318   2.729  11.605 -1.2725 -1.4948 -0.2886
 8524TIP3    H249768   5.448   2.674  11.659 -0.0778  2.3646  1.0980
 8525TIP3   OH249769   1.578   0.575  11.719 -0.3901  0.0226  0.5763
 8525TIP3    H149770   1.525   0.539  11.791  0.6206  1.1171  1.9154
 8525TIP3    H249771   1.659   0.524  11.720 -0.6439 -0.4219 -0.2684
 8526TIP3   OH249772   1.719   0.067  10.323  0.3577 -0.1019 -0.0366
 8526TIP3    H149773   1.733   0.113  10.406  1.8424 -1.0396  0.2654
 8526TIP3    H249774   1.807   0.043  10.294 -0.3155 -2.2988 -0.4426
 8527TIP3   OH249775   4.708   2.720  10.478 -0.3391 -0.3043  0.1254
 8527TIP3    H149776   4.728   2.749  10.389 -1.8190  0.1807 -0.0620
 8527TIP3    H249777   4.784   2.749  10.530  0.1125  0.2038 -0.7997
 8528TIP3   OH249778   6.742   5.696  11.314  0.1022 -0.8215  0.4356
 8528TIP3    H149779   6.796   5.725  11.240 -2.3041 -0.5962 -1.3675
 8528TIP3    H249780   6.653   5.719  11.289 -0.9974 -2.1457  2.7740
 8529TIP3   OH249781   5.218   0.904  11.489 -0.3509 -0.1723 -0.5501
 8529TIP3    H149782   5.192   0.961  11.560  0.1657 -1.4734  0.7398
 8529TIP3    H249783   5.161   0.827  11.497  1.8657 -1.8302  0.6153
 8530TIP3   OH249784   6.225   7.114  11.651 -0.3107  0.2010 -0.3051
 8530TIP3    H149785   6.271   7.140  11.730 -0.7200 -1.3297  0.4778
 8530TIP3    H249786   6.291   7.119  11.582  0.2102  0.9627  0.2334
 8531TIP3   OH249787   0.142   2.069  10.434 -0.1217 -0.0838 -0.1588
 8531TIP3    H149788   0.215   2.130  10.441  1.0700 -1.6243  2.4485
 8531TIP3    H249789   0.182   1.984  10.418 -1.5353 -0.6379 -0.9747
 8532TIP3   OH249790   4.708   6.529  12.403 -0.0611 -0.0150  0.0990
 8532TIP3    H149791   4.783   6.519  12.462  1.1952 -0.2771 -1.5005
 8532TIP3    H249792   4.633   6.535  12.462  1.2548  0.8836  1.7645
 8533TIP3   OH249793   3.236   6.994  12.789 -0.4590  0.1064  0.1168
 8533TIP3    H149794   3.156   6.954  12.822 -0.4526 -0.2619 -0.3023
 8533TIP3    H249795   3.307   6.940  12.825 -0.2838  1.5364  2.0383
 8534TIP3   OH249796   1.910   3.151  10.696  0.4316 -0.0109  0.6964
 8534TIP3    H149797   1.994   3.130  10.656  0.2571 -0.6429  0.6619
 8534TIP3    H249798   1.849   3.088  10.659 -0.2033  0.8532  0.2183
 8535TIP3   OH249799   2.738   3.916  11.000 -0.3872 -0.1088  0.4241
 8535TIP3    H149800   2.815   3.934  10.946 -1.5770  0.1908 -1.2598
 8535TIP3    H249801   2.716   4.001  11.038 -0.8512  0.1668 -0.4422
 8536TIP3   OH249802   5.380   1.526  12.144 -0.0906  0.0979  0.4353
 8536TIP3    H149803   5.347   1.489  12.062 -1.6939 -2.7646  2.2012
 8536TIP3    H249804   5.303   1.530  12.201  0.6883  3.3352  1.4555
 8537TIP3   OH249805   4.675   4.050  10.883 -0.0686 -0.2767  0.5238
 8537TIP3    H149806   4.760   4.075  10.847 -0.6141 -0.1775 -0.7444
 8537TIP3    H249807   4.686   3.958  10.909 -0.0377 -0.8212 -1.2490
 8538TIP3   OH249808   3.488   1.384  11.122 -0.1213 -0.2044  0.1071
 8538TIP3    H149809   3.442   1.299  11.125  1.0455 -0.9417 -1.4505
 8538TIP3    H249810   3.539   1.380  11.041  0.7736  1.5847  0.5514
 8539TIP3   OH249811   4.378   0.856  10.979  0.4179  0.2046  0.2687
 8539TIP3    H149812   4.413   0.882  10.894  1.8594 -1.4760  0.2687
 8539TIP3    H249813   4.355   0.938  11.022 -1.1232  1.0519 -2.0163
 8540TIP3   OH249814   3.792   5.042  12.198 -0.0738  0.4885 -0.3536
 8540TIP3    H149815   3.739   5.121  12.194 -1.9375 -0.7321 -1.3611
 8540TIP3    H249816   3.730   4.972  12.219  1.4599 -0.7602  0.2577
 8541TIP3   OH249817   7.280   1.073  12.566  0.3908 -0.4201  0.3204
 8541TIP3    H149818   7.372   1.050  12.573  0.0434 -1.6320  1.1997
 8541TIP3    H249819   7.233   1.000  12.607 -0.8195  1.4946  2.6130
 8542TIP3   OH249820   1.861   6.407  10.395  0.4361 -0.5487 -0.5243
 8542TIP3    H149821   1.935   6.356  10.361  1.9983  1.2448 -0.0215
 8542TIP3    H249822   1.868   6.492  10.350  1.0483  1.0231  2.2551
 8543TIP3   OH249823   0.420   5.770  10.971  0.2158 -0.5411  0.4103
 8543TIP3    H149824   0.341   5.766  10.917 -0.9298  0.4103  1.9293
 8543TIP3    H249825   0.481   5.822  10.919 -0.9481  0.5856  0.1025
 8544TIP3   OH249826   5.917   0.242  12.870  0.1149 -0.4168 -0.2855
 8544TIP3    H149827   5.873   0.217  12.951 -0.1693  1.3148  0.1323
 8544TIP3    H249828   5.994   0.186  12.866  0.2329 -0.4022  1.2875
 8545TIP3   OH249829   0.165   4.006  12.503 -0.0010  0.0684  0.6338
 8545TIP3    H149830   0.248   4.010  12.455  0.3083 -1.8700  0.9295
 8545TIP3    H249831   0.098   4.002  12.434  0.1905  0.7148  0.3979
 8546TIP3   OH249832   2.755   2.842  11.509 -0.5274 -0.2583  0.8545
 8546TIP3    H149833   2.750   2.905  11.581  0.2099 -0.9097  1.4947
 8546TIP3    H249834   2.703   2.767  11.538 -0.6033 -0.3366  0.5172
 8547TIP3   OH249835   2.723   3.564  12.171  0.4203  0.4062 -0.4104
 8547TIP3    H149836   2.789   3.514  12.219 -0.5044  0.4428  0.9611
 8547TIP3    H249837   2.639   3.532  12.204 -0.2193  2.9678  0.6944
 8548TIP3   OH249838   4.217   1.387  13.019 -0.1971 -0.3117 -0.1389
 8548TIP3    H149839   4.231   1.469  12.972 -2.2197 -0.6852 -1.5419
 8548TIP3    H249840   4.217   1.412  13.112  0.6305  1.0073 -0.4642
 8549TIP3   OH249841   1.042   5.628  11.421  0.0569  0.5490 -0.4294
 8549TIP3    H149842   0.999   5.665  11.344 -1.1643 -2.9159 -1.6002
 8549TIP3    H249843   1.079   5.545  11.390  1.3861  0.0279  2.2720
 8550TIP3   OH249844   4.424   0.040  16.963 -0.2283 -0.4613 -0.6429
 8550TIP3    H149845   4.345  -0.014  16.977 -0.9430  0.5997 -0.4624
 8550TIP3    H249846   4.408   0.085  16.880  0.3967 -0.5748 -0.8297
 8551TIP3   OH249847   3.725   5.387  13.269 -0.1474  0.1768  0.6331
 8551TIP3    H149848   3.698   5.477  13.289  0.2355  0.6411 -0.8704
 8551TIP3    H249849   3.819   5.393  13.252 -0.4167 -0.1965 -1.1327
 8552TIP3   OH249850   1.226   2.234  10.872 -0.3103 -0.7870  0.3375
 8552TIP3    H149851   1.220   2.219  10.966 -0.6933  1.4350  0.7346
 8552TIP3    H249852   1.138   2.217  10.839 -0.6612  0.1809  0.7225
 8553TIP3   OH249853   6.283   6.733  10.483  0.0158 -0.2354 -0.2430
 8553TIP3    H149854   6.192   6.706  10.467  0.1828 -0.6208 -0.5495
 8553TIP3    H249855   6.331   6.704  10.405  0.1998  0.9769 -0.5970
 8554TIP3   OH249856   2.123   0.972  10.571 -0.0181  0.0049 -0.4727
 8554TIP3    H149857   2.064   0.918  10.624 -0.2209  0.8590  0.1928
 8554TIP3    H249858   2.207   0.927  10.574  0.1609  0.3983  1.1794
 8555TIP3   OH249859   2.569   7.623  12.299  0.2764 -0.3282 -0.2645
 8555TIP3    H149860   2.644   7.666  12.257 -1.0442  0.3683 -2.0280
 8555TIP3    H249861   2.565   7.536  12.258 -0.8706  0.2647 -1.4736
 8556TIP3   OH249862   3.819   5.272  10.114 -0.7003 -0.1949  0.4027
 8556TIP3    H149863   3.835   5.212  10.041 -0.7334  0.2294  0.0431
 8556TIP3    H249864   3.905   5.283  10.155 -0.2260  1.2455 -0.8863
 8557TIP3   OH249865   1.068   5.939  10.624 -0.3328 -0.2275 -0.1317
 8557TIP3    H149866   0.990   5.927  10.570 -1.3951 -0.2281  1.3575
 8557TIP3    H249867   1.055   6.022  10.669  0.0282 -0.7208  0.9248
 8558TIP3   OH249868   2.706   4.646  12.419  0.6836  0.2587  0.5946
 8558TIP3    H149869   2.756   4.598  12.484 -1.1021 -0.4308  1.5340
 8558TIP3    H249870   2.727   4.603  12.336 -1.3280 -2.6837  1.4708
 8559TIP3   OH249871   5.421   4.409  11.105  0.0607  0.2581 -0.1745
 8559TIP3    H149872   5.498   4.361  11.072 -0.4118 -0.6333 -0.0197
 8559TIP3    H249873   5.347   4.365  11.063 -0.4544  0.0926  0.8875
 8560TIP3   OH249874   1.554   5.011  12.864  0.0887 -0.0141  0.2749
 8560TIP3    H149875   1.558   5.083  12.927  0.7402  0.3706 -0.1965
 8560TIP3    H249876   1.461   5.001  12.845  0.0434  1.2900 -0.3099
 8561TIP3   OH249877   4.341   3.820  10.248 -0.2373  0.3132  0.1437
 8561TIP3    H149878   4.403   3.833  10.176 -0.5838 -0.7150 -0.3629
 8561TIP3    H249879   4.396   3.791  10.322 -0.1612 -1.2708 -0.4988
 8562TIP3   OH249880   6.139   4.895  17.564  0.0638  0.8052 -0.1585
 8562TIP3    H149881   6.151   4.902  17.470  0.7130  0.8875 -0.0737
 8562TIP3    H249882   6.228   4.902  17.601  0.2673 -2.2873  0.2795
 8563TIP3   OH249883   5.990   0.465  12.438 -0.1124  0.0644 -0.5253
 8563TIP3    H149884   5.950   0.531  12.495  1.5641  1.0451 -0.4265
 8563TIP3    H249885   5.979   0.382  12.486 -1.3416  0.3970 -0.1820
 8564TIP3   OH249886   4.056   6.126  12.731  0.0288  0.4252 -0.0122
 8564TIP3    H149887   3.974   6.082  12.709  0.4756 -0.9184  0.8691
 8564TIP3    H249888   4.047   6.214  12.695 -1.2499 -0.1215 -1.1124
 8565TIP3   OH249889   2.938   5.735  12.493 -0.0794  0.0284 -0.1672
 8565TIP3    H149890   2.953   5.743  12.587  0.3103  0.9416 -0.2955
 8565TIP3    H249891   2.899   5.818  12.467  2.4544  0.9960 -1.2802
 8566TIP3   OH249892   7.184   0.836  10.778 -0.3626 -0.2550 -0.5468
 8566TIP3    H149893   7.196   0.815  10.871 -0.0119 -2.6554 -1.0646
 8566TIP3    H249894   7.242   0.911  10.763 -1.0671  0.7323  1.3245
 8567TIP3   OH249895   5.615   4.492  12.320 -0.0798  0.1853  0.0317
 8567TIP3    H149896   5.641   4.578  12.351  2.5498  0.8602 -3.4615
 8567TIP3    H249897   5.567   4.509  12.239 -0.6470 -1.6207 -0.0680
 8568TIP3   OH249898   1.056   0.465  11.518 -0.1965  0.4243  0.4240
 8568TIP3    H149899   1.094   0.473  11.430  0.9432  2.0407  1.0306
 8568TIP3    H249900   0.992   0.394  11.509 -0.0072  0.4426 -1.6712
 8569TIP3   OH249901   6.567   7.120  10.813  0.1135  0.5517  0.0303
 8569TIP3    H149902   6.616   7.061  10.756  1.8332  0.8700  1.1025
 8569TIP3    H249903   6.496   7.154  10.758  0.7844 -0.3215 -1.4309
 8570TIP3   OH249904   1.500   7.275  12.513 -0.2719  0.4992  0.5112
 8570TIP3    H149905   1.582   7.274  12.562  0.5779  2.3785 -0.7213
 8570TIP3    H249906   1.527   7.291  12.422 -2.0331  2.1363  0.2126
 8571TIP3   OH249907   5.186   3.100  12.649 -0.2824 -0.0938  0.2460
 8571TIP3    H149908   5.183   3.005  12.646 -0.6548 -0.0668 -0.4208
 8571TIP3    H249909   5.185   3.121  12.742 -0.5448 -0.7327  0.3929
 8572TIP3   OH249910   3.446   0.665  11.994  0.2285 -0.6267 -0.2212
 8572TIP3    H149911   3.366   0.710  11.963 -1.1260 -1.6616  1.6087
 8572TIP3    H249912   3.479   0.619  11.916 -0.4738  0.4756 -1.2112
 8573TIP3   OH249913   2.640   1.625  12.547 -0.1787 -0.1353 -0.0376
 8573TIP3    H149914   2.597   1.597  12.466 -0.1318  0.6639 -0.3454
 8573TIP3    H249915   2.709   1.560  12.561 -1.2847 -1.2823  0.3169
 8574TIP3   OH249916   7.151   2.921  10.415  1.1781  0.0082  0.1011
 8574TIP3    H149917   7.107   2.999  10.449 -0.1506  0.1621 -1.7786
 8574TIP3    H249918   7.185   2.949  10.330 -0.0244 -1.6270 -0.9816
 8575TIP3   OH249919   6.886   4.549  10.650  0.3900  0.1262  0.0205
 8575TIP3    H149920   6.870   4.500  10.730 -1.4932  0.6812  0.0180
 8575TIP3    H249921   6.927   4.486  10.590 -1.4705 -1.3127  0.1997
 8576TIP3   OH249922   2.408   4.298  12.808 -0.1700 -0.0626 -0.1703
 8576TIP3    H149923   2.356   4.229  12.850  2.5969 -2.7874 -0.8293
 8576TIP3    H249924   2.380   4.379  12.852 -2.6940 -1.7145  1.5799
 8577TIP3   OH249925   4.900   6.333  11.932  0.0356 -0.2061 -0.3923
 8577TIP3    H149926   4.920   6.422  11.901 -1.2380  0.2691  0.0958
 8577TIP3    H249927   4.960   6.277  11.883  2.5960  1.1036  1.0462
 8578TIP3   OH249928   4.777   5.397  11.580  0.2074 -0.1983 -0.3759
 8578TIP3    H149929   4.832   5.424  11.507 -1.3709  1.3165 -1.0865
 8578TIP3    H249930   4.772   5.301  11.574  0.1533 -0.1019 -2.2370
 8579TIP3   OH249931   6.078   2.906  11.354 -0.3369 -0.6772  0.0957
 8579TIP3    H149932   6.155   2.956  11.380  0.4112 -2.3716  1.3710
 8579TIP3    H249933   6.065   2.844  11.426 -3.2349 -0.1186  0.1759
 8580TIP3   OH249934   0.444   3.497  11.021  0.2252 -0.1502 -0.1382
 8580TIP3    H149935   0.355   3.505  10.989  1.3264  0.6631 -3.3833
 8580TIP3    H249936   0.449   3.408  11.057 -1.9640 -0.0220  0.6158
 8581TIP3   OH249937   0.156   2.802  11.779  0.2414  0.0394  0.2537
 8581TIP3    H149938   0.096   2.874  11.762  0.6948  0.5704  0.8615
 8581TIP3    H249939   0.099   2.727  11.798 -0.2270  0.3689  0.1731
 8582TIP3   OH249940   4.780   0.826  12.396 -0.3486  0.3483  0.0523
 8582TIP3    H149941   4.771   0.751  12.337 -1.1726  0.8417 -0.4751
 8582TIP3    H249942   4.739   0.797  12.478  0.9342 -0.3941  0.4560
 8583TIP3   OH249943   3.870   6.231  12.441  0.9339  0.6281  0.1153
 8583TIP3    H149944   3.835   6.216  12.529 -1.3466  1.0640 -0.6417
 8583TIP3    H249945   3.926   6.155  12.425  2.7732  1.3360  2.5176
 8584TIP3   OH249946   2.860   5.928  12.976  0.0381  0.7225  0.1573
 8584TIP3    H149947   2.940   5.980  12.966  1.6996 -1.6643  0.2730
 8584TIP3    H249948   2.861   5.899  13.067  0.5859 -1.6080 -0.5375
 8585TIP3   OH249949   4.830   2.003  10.758 -0.1822 -0.5632  0.3016
 8585TIP3    H149950   4.736   2.006  10.773 -0.1215  0.4571  0.5604
 8585TIP3    H249951   4.847   1.914  10.728 -1.3223 -0.5701 -0.3778
 8586TIP3   OH249952   6.310   4.332  11.748  0.0891 -0.0590 -0.9892
 8586TIP3    H149953   6.298   4.246  11.790 -0.1857 -0.4210 -1.7854
 8586TIP3    H249954   6.394   4.325  11.703  0.3991  0.3413 -0.4814
 8587TIP3   OH249955   1.395   2.427  10.669 -0.2233  0.3805  0.2091
 8587TIP3    H149956   1.301   2.411  10.662 -0.4212  0.8367  1.5287
 8587TIP3    H249957   1.402   2.515  10.706  0.7138  0.1951  0.5098
 8588TIP3   OH249958   6.500   5.455  11.533 -0.3382  0.0045  0.7720
 8588TIP3    H149959   6.558   5.444  11.608 -1.4214 -1.5885  1.4117
 8588TIP3    H249960   6.559   5.452  11.457  0.6374  0.5053  1.4927
 8589TIP3   OH249961   2.117   4.160  11.238 -0.1085 -0.6130  0.3610
 8589TIP3    H149962   2.100   4.137  11.146 -0.2475 -1.5499  0.6092
 8589TIP3    H249963   2.030   4.181  11.274 -0.2374 -1.5429  0.6122
 8590TIP3   OH249964   1.027   6.831  12.450  0.0609  0.2761  0.0193
 8590TIP3    H149965   0.979   6.807  12.529 -1.5224 -0.0518 -1.0098
 8590TIP3    H249966   1.051   6.747  12.410 -0.9121  0.3919 -0.8642
 8591TIP3   OH249967   1.018   3.390  11.964  0.3159  0.2871 -0.3569
 8591TIP3    H149968   1.022   3.330  11.890  0.3642 -0.2189  0.0494
 8591TIP3    H249969   1.052   3.339  12.038 -0.8338  0.3923  0.2621
 8592TIP3   OH249970   0.006   4.361  10.723  0.3511 -0.1989 -0.4135
 8592TIP3    H149971   0.015   4.455  10.732 -0.4298  0.1014 -2.3360
 8592TIP3    H249972  -0.086   4.347  10.701 -0.0561 -1.6283  1.8159
 8593TIP3   OH249973   4.566   4.762  11.850 -0.6614  0.0141 -0.4288
 8593TIP3    H149974   4.475   4.732  11.842 -0.6486 -0.1294 -0.0648
 8593TIP3    H249975   4.591   4.740  11.940 -0.5449  0.8169 -0.2511
 8594TIP3   OH249976   1.442   7.444  13.066 -0.7211  0.0976  0.3443
 8594TIP3    H149977   1.475   7.463  13.154  0.6064  0.9383 -0.3057
 8594TIP3    H249978   1.459   7.524  13.017 -2.9918  0.2458 -0.2714
 8595TIP3   OH249979   1.072   3.217  11.748  0.0757 -0.1331  0.0447
 8595TIP3    H149980   1.114   3.276  11.685 -0.2512  0.6564  0.5625
 8595TIP3    H249981   1.141   3.195  11.811  1.2542 -3.1564 -2.0344
 8596TIP3   OH249982   7.440   6.865  10.511  0.5803 -0.0029 -0.0151
 8596TIP3    H149983   7.445   6.779  10.554 -0.3036  1.3781  3.1424
 8596TIP3    H249984   7.355   6.864  10.467  0.1319 -0.4003  0.8347
 8597TIP3   OH249985   0.494   2.484  11.165 -0.0044  0.2769  0.1486
 8597TIP3    H149986   0.558   2.535  11.214 -1.6774  1.7056  0.9285
 8597TIP3    H249987   0.474   2.410  11.223  0.2361  0.3380  0.3142
 8598TIP3   OH249988   5.870   2.432  11.668 -0.0846 -0.1804 -0.2662
 8598TIP3    H149989   5.787   2.405  11.630 -1.4160 -1.0968  2.9900
 8598TIP3    H249990   5.918   2.350  11.680  0.6229  0.1754 -0.6152
 8599TIP3   OH249991   3.231   2.955  12.443  0.1410 -0.1837 -0.3469
 8599TIP3    H149992   3.179   2.877  12.460 -1.4728  0.7850 -0.5887
 8599TIP3    H249993   3.254   2.949  12.350  1.0927 -0.9536 -0.0768
 8600TIP3   OH249994   5.630   2.298  11.607  0.3824 -0.4568 -0.5809
 8600TIP3    H149995   5.603   2.305  11.515  0.6691 -1.0689 -0.7174
 8600TIP3    H249996   5.682   2.218  11.610  0.3995 -0.4208  0.1120
 8601TIP3   OH249997   2.892   6.753  11.637  0.1971  0.4820  0.1526
 8601TIP3    H149998   2.837   6.831  11.628 -0.9596 -0.0810  1.6898
 8601TIP3    H249999   2.982   6.786  11.636 -0.1258  1.4741 -2.0605
 8602TIP3   OH250000   1.839   2.997  10.321 -0.2535 -0.4368  0.4908
 8602TIP3    H150001   1.799   2.998  10.408  0.5051  1.2575  0.8719
 8602TIP3    H250002   1.780   3.050  10.267  0.3562  0.3197  0.5390
 8603TIP3   OH250003   6.030   6.345  11.325 -0.6154 -0.0503  0.4718
 8603TIP3    H150004   6.027   6.298  11.408  0.2724  0.6769  0.9217
 8603TIP3    H250005   5.941   6.377  11.312 -0.9984 -1.0021  0.6392
 8604TIP3   OH250006   3.744   6.583  11.385  0.2143 -0.2752 -0.2232
 8604TIP3    H150007   3.727   6.488  11.386 -1.6751  0.0147 -0.9579
 8604TIP3    H250008   3.695   6.615  11.309  1.1133  1.2694 -0.1898
 8605TIP3   OH250009   5.943   2.524  11.098 -0.0898 -0.3953 -0.0768
 8605TIP3    H150010   5.974   2.434  11.111 -0.2327 -0.7089 -1.5851
 8605TIP3    H250011   5.930   2.559  11.186  1.3581 -1.3577  0.5472
 8606TIP3   OH250012   2.573   3.674  12.458 -0.4924  0.2331  0.1502
 8606TIP3    H150013   2.565   3.660  12.552 -0.3702  0.4323  0.1901
 8606TIP3    H250014   2.617   3.759  12.449 -0.4432  0.1850 -0.0848
 8607TIP3   OH250015   0.441   3.252  10.828 -0.5113  0.0774 -0.4091
 8607TIP3    H150016   0.440   3.218  10.917 -1.2547 -2.1276 -1.1837
 8607TIP3    H250017   0.498   3.192  10.779  0.4838  1.6642 -1.3084
 8608TIP3   OH250018   2.100   5.956  12.226  0.1651 -0.1635 -0.0049
 8608TIP3    H150019   2.033   5.926  12.287  1.2424 -0.2011  1.2012
 8608TIP3    H250020   2.106   5.886  12.160 -2.7409  0.9847 -1.6664
 8609TIP3   OH250021   6.262   4.776  10.522 -0.3478 -0.5451 -0.2686
 8609TIP3    H150022   6.304   4.824  10.450 -2.1997  0.8447 -0.4827
 8609TIP3    H250023   6.184   4.738  10.483 -0.7447 -0.7910  0.7439
 8610TIP3   OH250024   5.492   1.313  11.079  0.1644 -0.5898  0.3399
 8610TIP3    H150025   5.479   1.263  11.160  1.0823 -0.3967  0.6179
 8610TIP3    H250026   5.583   1.296  11.055  0.4100  0.7163  0.2801
 8611TIP3   OH250027   0.042   1.256  12.589 -1.0837 -0.2734  0.5686
 8611TIP3    H150028   0.064   1.164  12.604 -2.2607 -0.4962  1.1229
 8611TIP3    H250029   0.082   1.277  12.505 -0.6177 -1.2275  0.5276
 8612TIP3   OH250030   1.470   7.269  12.879 -0.6016 -0.1057  0.0974
 8612TIP3    H150031   1.472   7.335  12.948  1.6123  0.2677 -0.2711
 8612TIP3    H250032   1.385   7.226  12.890 -0.3553 -0.0247  3.0006
 8613TIP3   OH250033   2.480   1.889  11.713  0.0399  0.0811  0.2353
 8613TIP3    H150034   2.388   1.905  11.736 -0.9979  0.2015 -3.3914
 8613TIP3    H250035   2.499   1.954  11.646  3.0997  0.5135  1.3651
 8614TIP3   OH250036   3.059   6.631  11.370  0.1354  0.2696 -0.2217
 8614TIP3    H150037   3.082   6.722  11.390  1.2246 -0.0951  0.2435
 8614TIP3    H250038   3.109   6.579  11.433 -1.0898 -0.6298  0.0404
 8615TIP3   OH250039   0.376   5.383  11.190  0.7143 -0.3374  0.0465
 8615TIP3    H150040   0.320   5.361  11.115 -1.9965  0.2961  1.7283
 8615TIP3    H250041   0.429   5.305  11.204 -2.4308 -2.5872  0.5483
 8616TIP3   OH250042   0.260   6.618  10.854 -0.0595  0.2645  0.3312
 8616TIP3    H150043   0.242   6.548  10.916  2.7125 -0.4515  0.4355
 8616TIP3    H250044   0.259   6.698  10.906 -0.1324 -0.0414  0.8039
 8617TIP3   OH250045   4.287   6.087  10.413 -0.4291 -0.2926 -0.1993
 8617TIP3    H150046   4.216   6.031  10.383  0.4634 -1.0420 -1.0094
 8617TIP3    H250047   4.248   6.144  10.479 -1.3890 -1.8067  0.5679
 8618TIP3   OH250048   6.272   1.585  12.664  0.3269  0.0560 -0.0663
 8618TIP3    H150049   6.311   1.501  12.684 -0.5156  0.0020  1.4857
 8618TIP3    H250050   6.337   1.650  12.692  0.7486 -0.0531 -0.7649
 8619TIP3   OH250051   4.547   1.932  10.724 -0.0645  0.4044 -0.0664
 8619TIP3    H150052   4.482   1.867  10.701 -0.7147  1.4247 -1.2108
 8619TIP3    H250053   4.590   1.954  10.641 -0.1526  1.7350  0.2255
 8620TIP3   OH250054   0.174   4.805  12.040  0.3058  0.0424  0.3093
 8620TIP3    H150055   0.202   4.827  12.129 -0.1727 -0.0883  0.4929
 8620TIP3    H250056   0.093   4.854  12.027  1.5600  1.9576 -0.9147
 8621TIP3   OH250057   3.253   1.672  11.694 -0.6250  0.0331  0.4486
 8621TIP3    H150058   3.184   1.738  11.694  0.0556  0.7835 -1.2702
 8621TIP3    H250059   3.263   1.649  11.787 -0.5725  2.6526  1.1773
 8622TIP3   OH250060   4.380   4.847  12.214 -0.0204  0.1724 -0.1192
 8622TIP3    H150061   4.359   4.846  12.121 -1.0665  0.3454  0.1078
 8622TIP3    H250062   4.330   4.774  12.251 -0.7712  1.0126  0.5450
 8623TIP3   OH250063   0.180   6.911  10.758 -0.0953 -0.6462  0.5664
 8623TIP3    H150064   0.086   6.922  10.776  0.2862 -0.8021  3.0083
 8623TIP3    H250065   0.220   6.993  10.789  0.2898  1.2377 -4.1781
 8624TIP3   OH250066   6.551   7.455  12.427 -0.2001  0.3870  0.0372
 8624TIP3    H150067   6.600   7.425  12.351  0.6142  1.6249  0.0413
 8624TIP3    H250068   6.599   7.421  12.502  0.8636  1.7963  0.0488
 8625TIP3   OH250069   7.341   2.279  11.027 -0.2994 -0.6918  0.7944
 8625TIP3    H150070   7.268   2.221  11.004 -1.7398  0.1573  2.8831
 8625TIP3    H250071   7.349   2.271  11.122  0.9631  0.8418  0.8618
 8626TIP3   OH250072   2.777   4.591  11.421  0.2904 -0.3480  0.1904
 8626TIP3    H150073   2.703   4.629  11.374  0.9025  1.3295  0.5151
 8626TIP3    H250074   2.842   4.661  11.425  0.4112 -0.4818  3.2329
 8627TIP3   OH250075   1.881   3.897  12.298 -0.0885  0.0503  0.0742
 8627TIP3    H150076   1.793   3.920  12.329  0.6630  0.8839  1.7045
 8627TIP3    H250077   1.925   3.981  12.288  0.7795 -0.3957  0.1107
 8628TIP3   OH250078   2.785   0.106  11.605  0.4028  0.1631 -0.6328
 8628TIP3    H150079   2.763   0.140  11.692 -0.4911 -1.5519 -0.1527
 8628TIP3    H250080   2.842   0.032  11.622 -0.6650 -0.8828 -1.4171
 8629TIP3   OH250081   0.843   4.036  11.742 -0.4132 -0.6079  0.1059
 8629TIP3    H150082   0.875   4.124  11.719  1.4501 -1.0950  0.7352
 8629TIP3    H250083   0.835   3.991  11.658  1.5974 -0.7935 -0.0196
 8630TIP3   OH250084   4.741   5.119  11.583 -0.5822 -0.4143 -0.3156
 8630TIP3    H150085   4.780   5.036  11.557 -1.9832 -1.6425  1.2665
 8630TIP3    H250086   4.702   5.101  11.669 -3.0279  1.2033 -0.9851
 8631TIP3   OH250087   3.386   0.455  13.334 -0.1711  0.3651  0.2964
 8631TIP3    H150088   3.390   0.548  13.359 -0.4716  1.1385 -2.2910
 8631TIP3    H250089   3.470   0.438  13.292 -1.0952  0.2350 -1.5841
 8632TIP3   OH250090   5.057   2.720  11.567 -0.2008  0.1337  0.0760
 8632TIP3    H150091   5.045   2.809  11.600 -0.7081  0.3331 -0.6305
 8632TIP3    H250092   5.047   2.664  11.644 -0.8834  0.6270  0.3543
 8633TIP3   OH250093   2.832   1.707  10.911  0.3719 -0.0740 -0.5907
 8633TIP3    H150094   2.862   1.719  11.001 -0.6905 -0.7295 -0.1263
 8633TIP3    H250095   2.774   1.782  10.895 -0.6642 -0.7600 -0.1665
 8634TIP3   OH250096   4.399   0.964  11.783 -0.1939 -0.7400 -0.0211
 8634TIP3    H150097   4.487   0.984  11.815 -0.0135  0.7140 -1.3195
 8634TIP3    H250098   4.354   1.049  11.783 -0.8338 -1.0472 -1.5945
 8635TIP3   OH250099   5.665   0.637  11.808 -0.1919 -0.5873 -0.0119
 8635TIP3    H150100   5.701   0.614  11.894 -0.1701  1.1751  0.4867
 8635TIP3    H250101   5.737   0.621  11.747  0.8360  0.9984  0.7192
 8636TIP3   OH250102   4.422   0.499  12.241  0.2027 -0.4140  0.0205
 8636TIP3    H150103   4.350   0.489  12.304  0.6568 -0.1642  0.5884
 8636TIP3    H250104   4.466   0.579  12.268  1.4415 -1.1976  0.4525
 8637TIP3   OH250105   2.725   3.415  12.562 -0.7681 -0.0343  0.5245
 8637TIP3    H150106   2.664   3.390  12.493 -1.3167 -0.5210  1.1602
 8637TIP3    H250107   2.693   3.500  12.593  0.5492  1.0712 -1.0140
 8638TIP3   OH250108   1.432   0.890  11.442 -0.7486  0.4386  0.5092
 8638TIP3    H150109   1.461   0.957  11.379 -0.8018 -0.0702 -0.0632
 8638TIP3    H250110   1.503   0.825  11.442 -3.3094 -2.8610 -3.8056
 8639TIP3   OH250111   7.303   4.055  12.132  0.4922  0.0630 -0.4267
 8639TIP3    H150112   7.372   4.112  12.165  0.4323 -0.5235  0.7606
 8639TIP3    H250113   7.307   4.065  12.037 -1.6245  4.5203 -0.2742
 8640TIP3   OH250114   0.251   7.452  11.737 -0.3138 -0.4726 -0.1309
 8640TIP3    H150115   0.335   7.498  11.746 -1.6107  2.1700 -0.5471
 8640TIP3    H250116   0.274   7.368  11.698  2.0549  0.5457 -1.1311
 8641TIP3   OH250117   5.994   3.303  11.650  0.0840  0.3470  0.0364
 8641TIP3    H150118   5.983   3.343  11.737  1.3557  0.0541  0.3534
 8641TIP3    H250119   5.919   3.336  11.599 -1.5833 -0.7334  1.6713
 8642TIP3   OH250120   3.039   1.764  12.311 -0.3997 -0.3356 -0.0514
 8642TIP3    H150121   3.091   1.713  12.374  0.0008  0.2593  0.1084
 8642TIP3    H250122   3.103   1.794  12.247 -0.1679  2.0421  1.1908
 8643TIP3   OH250123   3.363   0.799  12.917  0.4124 -0.2262  0.1751
 8643TIP3    H150124   3.417   0.743  12.973 -0.6371 -1.6243 -0.1467
 8643TIP3    H250125   3.274   0.765  12.927  0.1282 -0.3275 -2.0688
 8644TIP3   OH250126   5.060   4.101  10.432 -0.0014 -0.0846  0.4557
 8644TIP3    H150127   5.148   4.070  10.456 -0.5797 -0.5648  2.1486
 8644TIP3    H250128   5.003   4.064  10.500 -1.6216 -0.3588 -0.9968
 8645TIP3   OH250129   5.054   4.983  10.864  0.1745 -0.0926 -0.1545
 8645TIP3    H150130   5.021   5.068  10.893 -1.1114 -0.5175 -0.3280
 8645TIP3    H250131   5.109   4.953  10.936  0.0498  0.5576  0.2195
 8646TIP3   OH250132   1.175   6.346  10.676  0.0393  0.4355  0.5617
 8646TIP3    H150133   1.265   6.312  10.682 -0.2465 -0.1383  2.0410
 8646TIP3    H250134   1.120   6.276  10.711 -0.9784  0.8553 -0.1538
 8647TIP3   OH250135   0.122   6.446  11.057  0.1784  0.3113  0.7466
 8647TIP3    H150136   0.065   6.495  10.998 -0.2856  0.7414  1.5313
 8647TIP3    H250137   0.063   6.412  11.124  0.4845 -1.4462  0.1532
 8648TIP3   OH250138   7.446   0.369  11.886 -0.4225 -0.0666 -0.0980
 8648TIP3    H150139   7.456   0.325  11.802  0.2286 -0.0653 -0.0263
 8648TIP3    H250140   7.369   0.328  11.926 -1.1913  0.4422 -1.0038
 8649TIP3   OH250141   0.715   4.284  12.068  0.0467  0.2076 -0.6809
 8649TIP3    H150142   0.646   4.350  12.070  0.9671  1.1837  0.1269
 8649TIP3    H250143   0.669   4.200  12.074 -1.0140  0.8937  1.9769
 8650TIP3   OH250144   3.645   2.924  11.338 -0.1150  0.6948  0.0246
 8650TIP3    H150145   3.674   2.923  11.246  0.8488  0.2071  0.3242
 8650TIP3    H250146   3.561   2.970  11.335 -0.2494  0.4272 -1.1462
 8651TIP3   OH250147   4.171   1.806  11.681 -0.2507 -0.3395  0.2980
 8651TIP3    H150148   4.177   1.710  11.687 -0.2437 -0.3151  0.7061
 8651TIP3    H250149   4.192   1.825  11.590  0.6684 -0.6587  0.4247
 8652TIP3   OH250150   5.527   4.571  11.815 -0.0544  0.0684 -0.6201
 8652TIP3    H150151   5.510   4.477  11.803 -1.6778  0.0045  1.4543
 8652TIP3    H250152   5.576   4.575  11.898 -1.8059  1.1153  0.4231
 8653TIP3   OH250153   4.770   7.361  10.582  0.3368  0.3497  0.3982
 8653TIP3    H150154   4.722   7.418  10.641 -0.2350  0.5534 -0.2442
 8653TIP3    H250155   4.734   7.274  10.598 -0.5933  0.5722 -0.4053
 8654TIP3   OH250156   5.724   0.552  12.064  0.2907 -0.9695  0.6183
 8654TIP3    H150157   5.738   0.643  12.090  0.9799 -0.5592 -1.0300
 8654TIP3    H250158   5.634   0.532  12.091 -0.7533  1.0155 -1.1062
 8655TIP3   OH250159   3.838   5.964  12.681 -1.1181  0.0795 -0.2521
 8655TIP3    H150160   3.776   6.036  12.674 -0.2147  0.7625 -1.7947
 8655TIP3    H250161   3.845   5.929  12.592 -2.0424 -2.4124  0.5573
 8656TIP3   OH250162   3.410   1.237  12.126  0.0960  0.5529  0.6170
 8656TIP3    H150163   3.501   1.243  12.154  0.6671 -2.1743 -0.2761
 8656TIP3    H250164   3.362   1.216  12.206  0.6841 -0.5571  0.6978
 8657TIP3   OH250165   4.094   5.297  10.264  0.1997 -0.4411  0.2697
 8657TIP3    H150166   4.135   5.215  10.237 -1.6506 -1.4011  0.2320
 8657TIP3    H250167   4.060   5.279  10.352  2.9273  1.4821  1.8769
 8658TIP3   OH250168   2.540   2.517  11.909  0.1820 -0.2427  0.1630
 8658TIP3    H150169   2.486   2.574  11.963  0.9270  0.7464 -0.1056
 8658TIP3    H250170   2.522   2.429  11.942 -1.2286  0.0980  0.3815
 8659TIP3   OH250171   3.355   6.279  11.656  0.2438  0.1185 -0.0452
 8659TIP3    H150172   3.419   6.342  11.621 -0.7862  1.7928  0.9835
 8659TIP3    H250173   3.398   6.242  11.733  0.6530 -0.1175 -0.3745
 8660TIP3   OH250174   7.276   2.850  10.700  0.3661 -0.4363 -0.1972
 8660TIP3    H150175   7.280   2.898  10.618 -1.4902 -0.4853 -0.3544
 8660TIP3    H250176   7.363   2.812  10.710  0.6337 -0.3905 -2.1084
 8661TIP3   OH250177   0.830   5.743  11.263 -0.7253 -0.1443 -0.5160
 8661TIP3    H150178   0.826   5.712  11.172  0.2604 -1.1221 -0.2569
 8661TIP3    H250179   0.875   5.827  11.257  0.4134 -0.7509 -0.8371
 8662TIP3   OH250180   1.129   6.224  12.326  0.3738 -0.1940  0.7452
 8662TIP3    H150181   1.177   6.242  12.246  2.1614 -0.8326  1.6170
 8662TIP3    H250182   1.151   6.133  12.348 -1.8930 -0.7994  0.7826
 8663TIP3   OH250183   2.881   1.174  11.441 -0.2859  0.3084 -0.7450
 8663TIP3    H150184   2.878   1.117  11.364  1.6008  0.5809 -1.0689
 8663TIP3    H250185   2.847   1.120  11.512 -0.9488 -0.3351 -1.5185
 8664TIP3   OH250186   3.545   6.377  12.475 -0.8202 -0.0695  0.3612
 8664TIP3    H150187   3.594   6.392  12.555 -0.3137 -1.0125  0.2431
 8664TIP3    H250188   3.547   6.282  12.463 -2.0732 -0.0676 -0.0321
 8665TIP3   OH250189   1.630   2.074  10.232 -0.1134 -0.2920 -0.0706
 8665TIP3    H150190   1.566   2.127  10.279 -1.1996 -1.8417  0.2794
 8665TIP3    H250191   1.715   2.113  10.254 -0.7160  0.0534  1.8161
 8666TIP3   OH250192   5.562   2.506  12.020  0.1433 -0.2884  0.2714
 8666TIP3    H150193   5.577   2.558  11.941 -0.6732 -0.0235  0.2848
 8666TIP3    H250194   5.603   2.422  12.001  3.5614  1.0305  1.1333
 8667TIP3   OH250195   5.507   0.715  11.180  0.5686  0.2366  0.2945
 8667TIP3    H150196   5.413   0.698  11.173 -0.0841  3.5619 -0.5458
 8667TIP3    H250197   5.526   0.700  11.273 -1.2254  1.2054  0.8749
 8668TIP3   OH250198   2.588   6.603  12.693 -0.3634 -0.0853 -0.6153
 8668TIP3    H150199   2.522   6.669  12.714  0.0445  0.0817  0.1779
 8668TIP3    H250200   2.668   6.653  12.677  0.0460 -0.3985  0.3934
 8669TIP3   OH250201   2.662   3.121  11.099 -0.0658  0.2250 -0.2438
 8669TIP3    H150202   2.591   3.176  11.068  0.9919  1.2571 -0.9083
 8669TIP3    H250203   2.700   3.083  11.020  1.2492  1.1333 -0.0862
 8670TIP3   OH250204   6.827   3.891  10.949  0.2566 -0.8130 -0.2117
 8670TIP3    H150205   6.911   3.934  10.937  0.1524 -0.7171 -0.6130
 8670TIP3    H250206   6.847   3.797  10.944  0.4037 -0.8004  0.1343
 8671TIP3   OH250207   0.077   3.297  11.732  0.6136  0.3247  0.3876
 8671TIP3    H150208   0.100   3.333  11.647 -3.0709  0.7001 -0.6217
 8671TIP3    H250209   0.027   3.367  11.775 -1.0969 -1.2350  1.1103
 8672TIP3   OH250210   0.426   3.301  12.718  0.0718 -0.7214  0.4631
 8672TIP3    H150211   0.459   3.211  12.730 -0.0277 -0.8535 -0.2244
 8672TIP3    H250212   0.483   3.338  12.651 -0.1037 -0.3801  0.5044
 8673TIP3   OH250213   5.720   4.386  10.061 -0.1500 -0.0403  0.0145
 8673TIP3    H150214   5.778   4.343   9.998  0.6381 -1.0768  1.3853
 8673TIP3    H250215   5.778   4.414  10.132 -1.2715 -0.9841  1.3670
 8674TIP3   OH250216   1.358   5.634  11.806  0.3169 -0.6137  0.3689
 8674TIP3    H150217   1.398   5.609  11.889 -0.3361  0.8347  1.1666
 8674TIP3    H250218   1.277   5.679  11.832 -0.4119 -1.0301 -1.0956
 8675TIP3   OH250219   4.626   7.515  10.739 -0.3151  0.1001 -0.2699
 8675TIP3    H150220   4.603   7.589  10.683  1.2811  1.1174  0.3217
 8675TIP3    H250221   4.593   7.539  10.826 -0.2353 -0.1102 -0.1799
 8676TIP3   OH250222   2.178   2.523  11.282  0.3039 -0.0583  0.2246
 8676TIP3    H150223   2.253   2.552  11.334  0.2978  0.4961 -0.0753
 8676TIP3    H250224   2.151   2.441  11.323  1.4637 -0.5992 -0.0250
 8677TIP3   OH250225   5.530   2.014  10.677  0.4164  0.1716 -0.2246
 8677TIP3    H150226   5.518   2.051  10.765 -0.2074  1.4368 -0.8031
 8677TIP3    H250227   5.550   1.922  10.691 -1.8192 -0.1606  1.1879
 8678TIP3   OH250228   7.100   1.004  11.169 -0.4996 -0.4508 -0.0924
 8678TIP3    H150229   7.049   0.924  11.156  0.9374 -1.4351  0.1216
 8678TIP3    H250230   7.146   0.990  11.251 -0.5890  0.8188  0.1913
 8679TIP3   OH250231   2.837   4.668  10.358 -0.6108  0.0047  0.2728
 8679TIP3    H150232   2.859   4.639  10.447 -0.6522  1.6750  0.8733
 8679TIP3    H250233   2.760   4.724  10.370 -0.2279  0.7688 -0.7346
 8680TIP3   OH250234   6.510   0.236  12.376  1.1416 -0.2150 -0.2461
 8680TIP3    H150235   6.537   0.145  12.385 -1.0345 -0.9818 -0.9126
 8680TIP3    H250236   6.518   0.272  12.464 -0.0195 -1.6987  0.5124
 8681TIP3   OH250237   6.766   5.064  11.365  0.4857  0.1664  0.1284
 8681TIP3    H150238   6.677   5.046  11.337  0.4377  0.6863 -0.0580
 8681TIP3    H250239   6.790   4.988  11.418  1.0492 -1.5281 -2.3675
 8682TIP3   OH250240   3.131   6.566  10.940 -0.7628  0.4984  0.2676
 8682TIP3    H150241   3.161   6.594  10.854 -2.3233  1.0518 -0.1329
 8682TIP3    H250242   3.048   6.522  10.923 -0.2495 -0.9647  1.3213
 8683TIP3   OH250243   0.028   6.111  12.284 -0.0407 -0.3187 -0.8315
 8683TIP3    H150244  -0.047   6.056  12.307  1.0094 -1.4238  0.1154
 8683TIP3    H250245   0.046   6.161  12.364  0.6958 -0.6446 -0.7840
 8684TIP3   OH250246   6.663   3.320  12.467  0.0293 -0.2667  0.0583
 8684TIP3    H150247   6.598   3.291  12.403  1.3817 -0.4907 -1.2559
 8684TIP3    H250248   6.676   3.244  12.524 -0.0036 -0.6013 -0.3792
 8685TIP3   OH250249   7.123   3.654  12.160 -0.2276  0.2054  0.7592
 8685TIP3    H150250   7.047   3.674  12.106  0.9775 -0.2357 -1.2010
 8685TIP3    H250251   7.150   3.739  12.196  0.1925  0.9072 -1.0987
 8686TIP3   OH250252   1.005   1.241  12.947 -0.5574 -0.6604 -0.0216
 8686TIP3    H150253   1.037   1.241  13.038  0.8263 -1.4794 -0.4795
 8686TIP3    H250254   0.921   1.286  12.952 -0.3853 -0.4353  1.6265
 8687TIP3   OH250255   3.349   6.027  11.361  0.0960  0.2340 -0.2983
 8687TIP3    H150256   3.336   5.933  11.351  0.0979  0.3195 -1.0985
 8687TIP3    H250257   3.282   6.053  11.425  1.4486 -0.6535  1.5773
 8688TIP3   OH250258   1.933   1.867  11.203 -0.2358 -0.6523 -0.2063
 8688TIP3    H150259   1.894   1.891  11.288 -0.7819  0.5486 -0.7706
 8688TIP3    H250260   1.989   1.792  11.223  0.1180 -0.0331  1.3423
 8689TIP3   OH250261   4.306   7.627  13.022 -0.0711  0.0837  0.0483
 8689TIP3    H150262   4.339   7.543  12.992  0.6153  0.6532 -0.8351
 8689TIP3    H250263   4.373   7.658  13.084  0.5593  0.7536 -0.9398
 8690TIP3   OH250264   3.270   0.526  10.622  0.0142  0.0516 -0.0045
 8690TIP3    H150265   3.355   0.562  10.596 -0.4122  1.4593  0.4884
 8690TIP3    H250266   3.208   0.559  10.557 -0.6422  1.5528  1.3323
 8691TIP3   OH250267   1.988   6.511  12.351  0.4954 -0.2535  0.0814
 8691TIP3    H150268   2.061   6.489  12.294  0.5534 -0.5577  0.2695
 8691TIP3    H250269   1.993   6.606  12.363 -0.0141 -0.0639 -1.0982
 8692TIP3   OH250270   1.819   6.853  10.257 -0.3626 -0.0198  0.1649
 8692TIP3    H150271   1.824   6.944  10.284 -0.8502  0.2370 -0.5993
 8692TIP3    H250272   1.736   6.845  10.211  1.0144 -0.0954 -2.4507
 8693TIP3   OH250273   7.022   4.320  11.457  0.4810 -0.1508  0.4026
 8693TIP3    H150274   6.948   4.267  11.427  0.3476  0.2836 -0.0546
 8693TIP3    H250275   6.989   4.410  11.456  0.5779 -0.0804  1.5500
 8694TIP3   OH250276   0.708   1.768  11.108  0.0579  0.1552 -0.1055
 8694TIP3    H150277   0.762   1.694  11.137  0.0742 -0.2237 -1.0620
 8694TIP3    H250278   0.643   1.729  11.049 -0.8809  0.6982  0.5589
 8695TIP3   OH250279   6.175   7.387  11.219 -0.1008  0.4792 -0.3633
 8695TIP3    H150280   6.107   7.394  11.286 -0.5953 -0.6413 -0.7182
 8695TIP3    H250281   6.148   7.313  11.165  1.6258 -0.3185 -0.2426
 8696TIP3   OH250282   4.973   5.941  11.670 -0.1213  0.2158 -0.1803
 8696TIP3    H150283   5.014   5.857  11.650 -0.7623 -0.6533  1.9256
 8696TIP3    H250284   4.881   5.929  11.648  0.0875  1.0687 -1.7189
 8697TIP3   OH250285   5.063   1.498  10.635 -0.1407  0.8957 -0.1492
 8697TIP3    H150286   5.150   1.507  10.675 -0.3671  0.5309  0.4343
 8697TIP3    H250287   5.044   1.585  10.599  1.9133  0.2242 -3.3377
 8698TIP3   OH250288   5.513   0.875  12.289  0.4149 -0.7748  0.9501
 8698TIP3    H150289   5.534   0.827  12.370  3.1299  1.6029  1.8346
 8698TIP3    H250290   5.450   0.942  12.317  0.1187 -0.9610  0.7294
 8699TIP3   OH250291   0.426   2.486  10.658  0.1795  0.0572  0.4197
 8699TIP3    H150292   0.439   2.498  10.752 -1.6010  0.3245  0.6691
 8699TIP3    H250293   0.480   2.554  10.617 -0.9169  1.5580  1.3711
 8700TIP3   OH250294   1.144   7.656  11.514 -0.2181  0.4184 -0.6456
 8700TIP3    H150295   1.129   7.683  11.423 -0.4241  2.0709 -0.1594
 8700TIP3    H250296   1.062   7.678  11.559  0.0142 -0.0439  0.0121
 8701TIP3   OH250297   2.510   0.063  11.535 -0.7070  0.0985 -0.0729
 8701TIP3    H150298   2.604   0.047  11.533 -0.4606  1.1146  1.8032
 8701TIP3    H250299   2.477   0.023  11.454  1.3774  0.1108 -0.9814
 8702TIP3   OH250300   5.009   1.040  11.750  0.0260 -0.5370 -0.2853
 8702TIP3    H150301   5.041   0.983  11.820  1.8906  0.0717 -0.5934
 8702TIP3    H250302   4.920   1.062  11.777  0.4376 -0.8837  1.5526
 8703TIP3   OH250303   2.435   5.551  10.514  0.2107  0.0770 -0.2001
 8703TIP3    H150304   2.527   5.568  10.494  0.1475 -0.3211 -0.8492
 8703TIP3    H250305   2.409   5.623  10.572 -0.2413  2.6855 -3.3718
 8704TIP3   OH250306   3.000   1.856  10.255 -0.0538 -0.4207 -0.2783
 8704TIP3    H150307   3.053   1.812  10.322 -0.2030 -0.4751 -0.1959
 8704TIP3    H250308   2.912   1.821  10.267  0.1283 -1.2515 -1.1963
 8705TIP3   OH250309   2.895   6.380  12.030 -0.7276  0.0472  0.1569
 8705TIP3    H150310   2.855   6.392  11.944 -0.6147 -2.4312 -0.3304
 8705TIP3    H250311   2.900   6.468  12.067 -1.8991  1.0378 -1.8573
 8706TIP3   OH250312   1.276   7.201  12.601 -0.2741 -0.0693 -0.1338
 8706TIP3    H150313   1.222   7.167  12.529  1.8935 -2.8334 -0.6087
 8706TIP3    H250314   1.358   7.226  12.560  0.4784 -0.2986  1.1889
 8707TIP3   OH250315   7.319   2.969  11.369 -0.6855  0.6596  0.5291
 8707TIP3    H150316   7.294   2.986  11.460 -2.1476 -0.4809  0.3804
 8707TIP3    H250317   7.411   2.943  11.374  0.0089  3.0122  1.3638
 8708TIP3   OH250318   2.009   7.666  10.328 -0.0123  0.1944 -0.1711
 8708TIP3    H150319   2.102   7.646  10.324 -0.2167 -0.5763 -1.8148
 8708TIP3    H250320   2.002   7.738  10.390  1.5624 -0.3524  0.6872
 8709TIP3   OH250321   6.330   1.079  11.604 -0.4300  0.0639 -0.3390
 8709TIP3    H150322   6.247   1.033  11.619 -0.2113 -0.2567 -0.1108
 8709TIP3    H250323   6.328   1.153  11.665 -0.9606  0.6034 -0.9846
 8710TIP3   OH250324   3.123   2.220  10.959 -0.2454  0.1749 -0.2049
 8710TIP3    H150325   3.104   2.287  11.025 -0.3991  0.0296 -0.1009
 8710TIP3    H250326   3.218   2.209  10.963 -0.1823  0.5910 -0.4224
 8711TIP3   OH250327   0.047   3.870  11.236 -0.0091 -0.3911  0.4041
 8711TIP3    H150328   0.102   3.875  11.158  1.1018 -1.2804  1.1040
 8711TIP3    H250329   0.028   3.961  11.258  1.2874 -0.0576  0.2113
 8712TIP3   OH250330   5.847   5.808  12.110 -0.3136 -0.3277 -0.1271
 8712TIP3    H150331   5.756   5.792  12.133 -0.4518 -0.6328 -0.8513
 8712TIP3    H250332   5.847   5.811  12.014  0.4025 -0.1200 -0.1266
 8713TIP3   OH250333   1.044   0.282  11.808  0.3863  0.0482 -0.1595
 8713TIP3    H150334   0.961   0.300  11.764  0.4352 -1.9232 -1.2012
 8713TIP3    H250335   1.076   0.367  11.837 -1.1600  1.0490 -1.2751
 8714TIP3   OH250336   5.991   0.145  11.410  0.3108 -0.1603  0.2447
 8714TIP3    H150337   6.074   0.098  11.398  1.0594  1.4467 -1.3426
 8714TIP3    H250338   5.961   0.163  11.322  0.7413  3.3837  0.6742
 8715TIP3   OH250339   2.225   5.580  10.983 -0.0406  0.1975  0.2235
 8715TIP3    H150340   2.269   5.506  11.024  2.4804  1.8516  0.7373
 8715TIP3    H250341   2.265   5.586  10.896  0.2316  1.2964  0.4144
 8716TIP3   OH250342   4.377   6.744  11.120 -0.3145  0.2963  0.3780
 8716TIP3    H150343   4.464   6.704  11.126  0.0459  1.0448  0.3405
 8716TIP3    H250344   4.392   6.824  11.070 -1.5634 -1.0500 -2.3352
 8717TIP3   OH250345   6.028   2.908  12.822  0.3980  0.3953 -0.0255
 8717TIP3    H150346   6.072   2.908  12.737 -1.4957  1.1489 -1.0702
 8717TIP3    H250347   5.936   2.887  12.801  0.1425 -0.7669  2.0020
 8718TIP3   OH250348   0.518   0.594  11.795  0.0766  0.1071 -0.2523
 8718TIP3    H150349   0.514   0.683  11.831  2.9740  0.3964 -0.4056
 8718TIP3    H250350   0.471   0.599  11.713 -1.5685  0.9468  0.6912
 8719TIP3   OH250351   7.351   6.238  11.397  0.4020 -0.0122  0.4181
 8719TIP3    H150352   7.279   6.218  11.457 -0.2082 -1.4460 -0.7170
 8719TIP3    H250353   7.383   6.152  11.369  1.2806  0.6175 -0.5727
 8720TIP3   OH250354   5.062   2.446  10.761  0.5357  0.0456  0.3019
 8720TIP3    H150355   5.035   2.511  10.826 -0.2165  1.0631 -0.9659
 8720TIP3    H250356   5.052   2.362  10.805  2.0163  0.7653  2.1743
 8721TIP3   OH250357   6.110   5.510  10.647  0.1865  0.0777 -0.3298
 8721TIP3    H150358   6.163   5.590  10.648  2.3898 -1.2926 -1.2193
 8721TIP3    H250359   6.045   5.524  10.716  2.5214  1.3279  1.7710
 8722TIP3   OH250360   4.723   1.953  12.390 -0.0313 -0.3648  0.5319
 8722TIP3    H150361   4.750   1.984  12.476  0.5259  1.6945 -0.3191
 8722TIP3    H250362   4.648   2.009  12.366  0.4660 -0.1861 -0.7210
 8723TIP3   OH250363   3.837   0.849  12.456  0.3065 -0.0551 -0.3348
 8723TIP3    H150364   3.848   0.897  12.374  0.2944 -0.2586 -0.4544
 8723TIP3    H250365   3.867   0.760  12.437 -0.3703 -0.2929 -0.3192
 8724TIP3   OH250366   4.161   2.173  11.497 -0.3024 -0.3333  0.6437
 8724TIP3    H150367   4.163   2.089  11.450  0.6668 -0.9974  1.7987
 8724TIP3    H250368   4.078   2.213  11.471  0.5241 -0.2949 -2.2013
 8725TIP3   OH250369   1.607   4.594  12.526  0.1222 -0.1206  0.3995
 8725TIP3    H150370   1.573   4.506  12.542 -0.4964 -0.2746 -1.4847
 8725TIP3    H250371   1.663   4.613  12.601  0.2989 -2.1351  0.8152
 8726TIP3   OH250372   3.700   7.471  12.814 -0.3071 -0.0284  0.5294
 8726TIP3    H150373   3.759   7.524  12.867 -1.0328  0.7356  0.6093
 8726TIP3    H250374   3.648   7.422  12.878 -0.6433  0.2976  0.5144
 8727TIP3   OH250375   2.868   0.027  13.051  0.7456 -0.7050 -0.1094
 8727TIP3    H150376   2.796   0.068  13.099  0.4872 -0.6706 -0.5197
 8727TIP3    H250377   2.903  -0.038  13.112  0.5827 -0.4945  0.2154
 8728TIP3   OH250378   2.429   5.218  10.957 -0.1064  0.1093 -0.5749
 8728TIP3    H150379   2.399   5.271  11.031  0.1635  0.3712 -0.6514
 8728TIP3    H250380   2.451   5.134  10.996  0.5485  0.4191 -0.2656
 8729TIP3   OH250381   5.715   6.798  12.586  0.5962 -0.2064  0.0950
 8729TIP3    H150382   5.747   6.731  12.525  1.7002 -0.9498  1.4297
 8729TIP3    H250383   5.647   6.753  12.637  2.0960 -0.7452  1.7465
 8730TIP3   OH250384   6.084   0.609  11.929  0.0209 -0.0837 -0.1404
 8730TIP3    H150385   6.013   0.673  11.927  0.9009  0.9743  1.0581
 8730TIP3    H250386   6.052   0.541  11.988 -0.8920 -0.7610 -1.3658
 8731TIP3   OH250387   4.821   5.101  11.027  0.6087 -0.1807  0.5117
 8731TIP3    H150388   4.900   5.138  11.068  1.5012 -0.1278 -1.1517
 8731TIP3    H250389   4.811   5.015  11.068 -0.1437  0.8751  2.7528
 8732TIP3   OH250390   5.930   6.771  11.506 -0.6143  0.1063 -0.1988
 8732TIP3    H150391   5.956   6.807  11.590  0.9753 -0.9306 -0.1942
 8732TIP3    H250392   5.986   6.816  11.442 -0.3839 -0.5297 -0.4567
 8733TIP3   OH250393   3.365   2.153  11.195 -0.1541 -0.5351 -0.2290
 8733TIP3    H150394   3.404   2.214  11.132  2.6281 -1.3594  0.5372
 8733TIP3    H250395   3.433   2.087  11.210 -1.5302 -1.5758  2.0212
 8734TIP3   OH250396   4.159   6.047  12.987 -0.7174  0.0412  0.1155
 8734TIP3    H150397   4.133   6.069  12.898  0.8835  0.9775 -0.1690
 8734TIP3    H250398   4.138   5.954  12.997 -0.2125 -0.2695 -1.5031
 8735TIP3   OH250399   5.190   6.705  13.072  0.5713 -0.3294  0.1604
 8735TIP3    H150400   5.154   6.717  13.160  1.3593 -0.8364  0.5625
 8735TIP3    H250401   5.114   6.685  13.018  0.0681  0.0804  0.7039
 8736TIP3   OH250402   6.465   5.215  12.113 -0.1223  0.1558 -0.6632
 8736TIP3    H150403   6.525   5.218  12.039  0.4838 -1.3280 -0.2740
 8736TIP3    H250404   6.426   5.128  12.109 -1.5737  0.7572 -0.3618
 8737TIP3   OH250405   3.231   7.479  10.609 -0.9125  0.2600 -0.2546
 8737TIP3    H150406   3.309   7.435  10.574 -0.7441  0.0976  0.3202
 8737TIP3    H250407   3.263   7.529  10.684 -1.4305 -0.1632  0.2571
 8738TIP3   OH250408   7.455   1.127  12.202  0.3821  0.4192 -0.4143
 8738TIP3    H150409   7.530   1.085  12.245 -0.3223 -0.4179  0.0220
 8738TIP3    H250410   7.471   1.220  12.212  1.2766  0.2534 -0.1745
 8739TIP3   OH250411   5.706   5.364  11.603  0.0399 -0.3992 -0.1143
 8739TIP3    H150412   5.619   5.332  11.577  0.3943 -0.7167 -0.9454
 8739TIP3    H250413   5.690   5.450  11.641 -0.6780 -0.5924  0.0298
 8740TIP3   OH250414   7.131   1.239  11.046 -0.2638  0.2662 -1.3793
 8740TIP3    H150415   7.148   1.147  11.067 -0.6483  0.6087  0.6607
 8740TIP3    H250416   7.183   1.288  11.110  0.8224  1.5197 -3.1396
 8741TIP3   OH250417   6.446   1.294  12.427  0.2115  0.2787 -0.2538
 8741TIP3    H150418   6.460   1.385  12.454  1.4358  0.3163 -0.9176
 8741TIP3    H250419   6.528   1.270  12.383  0.2202 -1.4089  0.6290
 8742TIP3   OH250420   4.659   0.536  11.720 -0.0849  0.3705  0.6176
 8742TIP3    H150421   4.670   0.442  11.706 -2.0466 -0.0026  1.2880
 8742TIP3    H250422   4.629   0.570  11.635 -0.9253  0.0958  0.7965
 8743TIP3   OH250423   1.691   7.341  11.090  0.4243 -0.2229  0.1846
 8743TIP3    H150424   1.753   7.414  11.089  0.0593  0.0889 -0.3889
 8743TIP3    H250425   1.655   7.340  11.001 -2.8671  1.6970  1.3499
 8744TIP3   OH250426   2.144   4.481  11.320  0.5253  0.1410 -0.2250
 8744TIP3    H150427   2.218   4.496  11.378  1.3755 -0.6048 -1.0925
 8744TIP3    H250428   2.116   4.568  11.292  0.4091  0.4841  0.8878
 8745TIP3   OH250429   5.527   6.713  10.849 -0.1680  0.1376  0.3205
 8745TIP3    H150430   5.494   6.785  10.796 -0.2622 -0.1780 -0.0518
 8745TIP3    H250431   5.451   6.680  10.897  0.0338  0.8247  1.1387
 8746TIP3   OH250432   3.565   7.460  12.577  0.3167 -0.5886 -0.2940
 8746TIP3    H150433   3.633   7.485  12.640 -1.4949 -0.5216  1.7171
 8746TIP3    H250434   3.488   7.441  12.630 -1.6196  0.4352 -2.5400
 8747TIP3   OH250435   0.139   2.030  12.244  0.3676  0.0219  0.1318
 8747TIP3    H150436   0.164   1.940  12.227  1.4585  0.1646  0.8512
 8747TIP3    H250437   0.195   2.082  12.186  0.1203  0.2546  0.0998
 8748TIP3   OH250438   3.613   3.613  10.847 -0.4229 -0.2867 -0.6828
 8748TIP3    H150439   3.685   3.651  10.796  0.2326 -0.9274 -0.2631
 8748TIP3    H250440   3.596   3.676  10.916 -0.2105 -0.1661 -0.7420
 8749TIP3   OH250441   0.471   7.364  11.519  0.0299  0.0701  0.2402
 8749TIP3    H150442   0.454   7.449  11.478 -0.5626 -0.2637 -0.2274
 8749TIP3    H250443   0.393   7.312  11.498  1.1881 -1.1937 -1.0980
 8750TIP3   OH250444   7.447   5.990  11.350  0.2359 -0.5368 -0.1857
 8750TIP3    H150445   7.530   6.012  11.307 -0.0662 -1.3796 -1.2516
 8750TIP3    H250446   7.466   5.911  11.400  0.5524  0.3695  1.1956
 8751TIP3   OH250447   0.095   1.617  11.827 -0.3976 -0.2270 -0.2933
 8751TIP3    H150448   0.059   1.706  11.832  0.5597  0.0924  1.5112
 8751TIP3    H250449   0.022   1.561  11.852  0.0596  0.3728  2.7136
 8752TIP3   OH250450   3.911   6.295  12.153  0.5930 -0.0633  0.0068
 8752TIP3    H150451   3.891   6.271  12.243 -0.3787 -0.1773 -0.2182
 8752TIP3    H250452   3.934   6.388  12.157 -3.0592  1.0249 -0.0225
 8753TIP3   OH250453   2.186   0.439  12.899  0.0042 -0.3207 -0.1325
 8753TIP3    H150454   2.108   0.417  12.949  0.5188 -0.9247  0.4297
 8753TIP3    H250455   2.208   0.358  12.852 -0.4398  0.2186 -1.3129
 8754TIP3   OH250456   5.462   7.582  11.813  0.0296  0.3303  0.4201
 8754TIP3    H150457   5.463   7.531  11.732  1.1857 -0.4156  0.8925
 8754TIP3    H250458   5.528   7.650  11.800 -0.4457  0.8008  0.3884
 8755TIP3   OH250459   5.683   2.098  12.824  0.5305  0.1393  0.1550
 8755TIP3    H150460   5.747   2.167  12.842 -1.4111  1.6167  1.9255
 8755TIP3    H250461   5.685   2.042  12.902  0.3548 -0.3695 -0.2002
 8756TIP3   OH250462   6.112   4.985  12.132  0.4259  0.4189  0.2765
 8756TIP3    H150463   6.063   5.066  12.118  0.5076  0.5406  0.6953
 8756TIP3    H250464   6.095   4.961  12.223  2.3952  1.3328  0.9558
 8757TIP3   OH250465   2.260   1.944  12.655 -0.3380 -0.4415  0.1762
 8757TIP3    H150466   2.293   1.955  12.566  0.3066 -1.4093  0.2825
 8757TIP3    H250467   2.310   1.871  12.691 -0.2434  0.2300  1.5027
 8758TIP3   OH250468   3.569   5.365  10.718 -0.0511  0.7540 -0.0485
 8758TIP3    H150469   3.572   5.398  10.628  0.0683  1.4277  0.1929
 8758TIP3    H250470   3.649   5.401  10.758 -0.0264  0.3286  0.2806
 8759TIP3   OH250471   7.332   2.706  11.199 -0.2410  0.0597 -0.2382
 8759TIP3    H150472   7.386   2.775  11.159 -1.1037  0.9549  0.1293
 8759TIP3    H250473   7.313   2.647  11.126  0.0715  0.4783 -0.6719
 8760TIP3   OH250474   1.100   7.399  11.376 -0.2428 -0.1368  0.2919
 8760TIP3    H150475   1.104   7.494  11.388 -0.9825 -0.1407  0.6088
 8760TIP3    H250476   1.178   7.378  11.325  0.7077  0.4463  1.4883
 8761TIP3   OH250477   3.352   0.010  13.311 -0.6815  0.8300 -0.0762
 8761TIP3    H150478   3.442  -0.001  13.343 -1.1188  0.5479  1.1046
 8761TIP3    H250479   3.305  -0.066  13.345 -1.9221  2.1793  1.4181
 8762TIP3   OH250480   0.935   6.468  12.685 -1.5928  0.9358  0.2637
 8762TIP3    H150481   0.965   6.428  12.766  0.0005  0.3376 -0.5799
 8762TIP3    H250482   0.930   6.396  12.622  1.6859  1.9313 -1.3864
 8763TIP3   OH250483   2.578   6.351  11.862  0.2881  0.0847 -0.3970
 8763TIP3    H150484   2.537   6.424  11.816 -0.7632  0.4722  1.1032
 8763TIP3    H250485   2.514   6.280  11.857  0.7523 -0.3230 -0.6947
 8764TIP3   OH250486   7.643   2.674  18.175 -0.1533 -0.0270  0.3657
 8764TIP3    H150487   7.730   2.685  18.138  0.9348 -1.0667  2.4590
 8764TIP3    H250488   7.653   2.607  18.243 -1.8678  2.0566  2.8741
 8765TIP3   OH250489   0.629   0.421  13.251  0.0373 -0.5637  0.5078
 8765TIP3    H150490   0.705   0.427  13.193  0.9911  0.5822  1.7876
 8765TIP3    H250491   0.573   0.494  13.226 -0.2397 -0.9105  0.1114
 8766TIP3   OH250492   5.889   5.121  11.605  0.3331 -0.2923 -0.0672
 8766TIP3    H150493   5.833   5.056  11.562  0.3914  0.5194 -1.4078
 8766TIP3    H250494   5.834   5.199  11.612  1.2167  0.4547 -1.2248
 8767TIP3   OH250495   4.011   2.997  11.950 -0.1952  0.2643  0.1326
 8767TIP3    H150496   3.995   2.946  11.870 -1.0233  0.3693  0.2209
 8767TIP3    H250497   3.932   2.983  12.003  0.1892  0.4988  0.7686
 8768TIP3   OH250498   4.890   2.636  10.857 -0.6739 -0.2655 -0.1372
 8768TIP3    H150499   4.833   2.559  10.866  0.8903 -1.3540  0.8966
 8768TIP3    H250500   4.842   2.705  10.902 -1.2894 -1.1071  0.5474
 8769TIP3   OH250501   0.050   6.405  12.667  0.3796 -0.0772  0.2550
 8769TIP3    H150502   0.115   6.466  12.703  1.9012 -1.9628  0.8141
 8769TIP3    H250503   0.101   6.337  12.625 -1.2810 -1.0145 -0.3335
 8770TIP3   OH250504   2.317   6.470  11.956  0.2035 -0.1767  0.1373
 8770TIP3    H150505   2.393   6.496  12.007  0.0072 -1.1308  0.9420
 8770TIP3    H250506   2.332   6.509  11.869  1.8546 -0.7843  0.1162
 8771TIP3   OH250507   6.700   4.592  12.956 -0.4201  0.0095  0.2928
 8771TIP3    H150508   6.659   4.679  12.960  1.2461  0.8291  0.1844
 8771TIP3    H250509   6.633   4.533  12.990 -1.3237  1.4316  1.0930
 8772TIP3   OH250510   2.852   6.644  12.158 -0.1051  0.0259  0.0397
 8772TIP3    H150511   2.838   6.716  12.097 -0.0362  0.3455  0.3919
 8772TIP3    H250512   2.856   6.686  12.244  0.0447 -0.3861  0.2402
 8773TIP3   OH250513   6.765   4.536  12.440 -0.0393  0.6793 -0.3844
 8773TIP3    H150514   6.723   4.527  12.526 -1.2518 -1.1521 -1.0922
 8773TIP3    H250515   6.858   4.521  12.456 -0.1932  0.8093  0.6704
 8774TIP3   OH250516   1.652   3.573  11.042 -0.2659 -0.1256  0.0848
 8774TIP3    H150517   1.702   3.649  11.073  0.4429  0.7357 -2.8115
 8774TIP3    H250518   1.717   3.504  11.031 -0.1086  0.1860 -1.1805
 8775TIP3   OH250519   7.434   3.712  12.600  0.6221 -0.2192  0.1955
 8775TIP3    H150520   7.501   3.746  12.660  0.5005  1.1346 -0.4063
 8775TIP3    H250521   7.402   3.633  12.643  0.5560  0.6893  1.9257
 8776TIP3   OH250522   2.707   1.441  19.325 -0.6687  0.1827 -0.1512
 8776TIP3    H150523   2.644   1.379  19.290  0.1916 -1.4242  1.0271
 8776TIP3    H250524   2.792   1.402  19.307 -0.0972  1.1013  0.4710
 8777TIP3   OH250525   0.055   4.213  11.577  0.2359 -0.3508  0.0192
 8777TIP3    H150526   0.081   4.141  11.634 -0.5595 -0.9092 -0.3006
 8777TIP3    H250527   0.032   4.171  11.494  1.1302  0.4200 -0.6375
 8778TIP3   OH250528   1.834   6.834  12.045  0.2536  0.0220  0.5151
 8778TIP3    H150529   1.769   6.884  12.094  1.2115  2.0824 -0.2005
 8778TIP3    H250530   1.913   6.840  12.099  0.8598  0.8619 -0.4473
 8779TIP3   OH250531   3.327   7.177  11.783 -0.1443 -0.2249 -0.3921
 8779TIP3    H150532   3.336   7.271  11.766  0.5876 -0.4496 -1.2948
 8779TIP3    H250533   3.234   7.166  11.802 -0.1543  0.7534  0.2334
 8780TIP3   OH250534   4.745   7.348  11.465  0.0507 -0.3599 -0.1382
 8780TIP3    H150535   4.672   7.384  11.414  1.5148 -0.2755 -2.3456
 8780TIP3    H250536   4.768   7.418  11.526 -0.0715  0.6828 -1.2350
 8781TIP3   OH250537   5.046   6.649  12.121 -0.3210 -0.2190  0.2042
 8781TIP3    H150538   5.092   6.663  12.204 -0.1895 -0.2969  0.1453
 8781TIP3    H250539   4.959   6.688  12.134 -0.0053  0.5294  0.0794
 8782TIP3   OH250540   0.242   1.371  12.403 -0.0433 -0.3152 -0.1283
 8782TIP3    H150541   0.303   1.299  12.420 -0.8659 -1.4596 -1.7305
 8782TIP3    H250542   0.299   1.447  12.391  1.2279 -1.4872 -2.3792
 8783TIP3   OH250543   1.562   0.934  12.981  0.3869 -0.4883 -0.4387
 8783TIP3    H150544   1.544   0.843  13.004  1.5809 -0.6380 -0.0129
 8783TIP3    H250545   1.645   0.931  12.933  0.6974  0.4248  0.0055
 8784TIP3   OH250546   1.746   3.671  12.702  0.5572 -0.5825  0.0383
 8784TIP3    H150547   1.668   3.617  12.713 -0.3469  0.7643  0.5639
 8784TIP3    H250548   1.794   3.659  12.784 -0.7392  1.0293  1.1100
 8785TIP3   OH250549   2.490   6.672  10.998 -0.4616 -0.4000 -0.3583
 8785TIP3    H150550   2.457   6.752  10.956 -0.0643 -0.4659 -0.8049
 8785TIP3    H250551   2.524   6.702  11.083  0.7708  0.1188 -1.0099
 8786TIP3   OH250552   6.170   3.987  10.863 -0.5128  0.1248 -0.1385
 8786TIP3    H150553   6.223   3.928  10.810 -2.5075 -0.6533 -1.3599
 8786TIP3    H250554   6.123   4.040  10.799  0.0705  2.0266  0.9321
 8787TIP3   OH250555   6.440   1.418  10.744  0.5069 -0.1480  0.6251
 8787TIP3    H150556   6.523   1.456  10.716  0.1716  1.4487  1.6606
 8787TIP3    H250557   6.408   1.477  10.812 -1.4939 -0.6996  0.2450
 8788TIP3   OH250558   4.449   6.093  11.976 -0.3114 -0.2639  0.3614
 8788TIP3    H150559   4.392   6.122  11.904 -0.7372  0.7125  1.0635
 8788TIP3    H250560   4.523   6.153  11.973  0.1969 -0.8871  0.1009
 8789TIP3   OH250561   2.780   2.445  10.770  0.2044  0.2143 -0.0935
 8789TIP3    H150562   2.828   2.362  10.774 -1.5131 -0.7959  1.8299
 8789TIP3    H250563   2.729   2.447  10.851 -0.1529  2.9743 -0.2941
 8790TIP3   OH250564   1.321   6.764  13.206 -0.5436  0.3570 -0.1457
 8790TIP3    H150565   1.269   6.844  13.202  1.0964  1.4730  0.0226
 8790TIP3    H250566   1.395   6.785  13.263  0.8689 -0.6974 -1.4845
 8791TIP3   OH250567   0.291   4.456  10.752 -0.0583 -0.0300 -0.5464
 8791TIP3    H150568   0.196   4.462  10.736  0.1460  0.4795 -1.7395
 8791TIP3    H250569   0.313   4.538  10.795 -0.5840 -1.3387  2.4816
 8792TIP3   OH250570   2.775   1.426  10.385  0.2593  0.4070 -0.1568
 8792TIP3    H150571   2.698   1.369  10.385  0.6327 -0.1330 -1.5289
 8792TIP3    H250572   2.740   1.515  10.380 -0.2835  0.1233 -1.8477
 8793TIP3   OH250573   5.363   5.003  11.470  0.0192  0.1813 -0.1190
 8793TIP3    H150574   5.293   4.985  11.532  0.9990 -2.1972  0.4020
 8793TIP3    H250575   5.321   4.998  11.384 -0.5353 -0.8613  0.2034
 8794TIP3   OH250576   5.825   2.996  11.235  0.6286 -0.1536 -0.2480
 8794TIP3    H150577   5.909   3.027  11.269 -0.1683  0.5328  1.1969
 8794TIP3    H250578   5.793   3.069  11.181 -0.4897  1.0198  1.8389
 8795TIP3   OH250579   4.164   6.682  10.807 -0.3631  0.0451  0.3016
 8795TIP3    H150580   4.146   6.722  10.892 -0.5552  1.4051 -0.3358
 8795TIP3    H250581   4.238   6.624  10.822 -0.8781 -0.3069  1.5411
 8796TIP3   OH250582   2.031   4.111  12.586 -0.2019  0.0689 -0.1750
 8796TIP3    H150583   2.040   4.025  12.629  0.2143 -0.5154 -1.3791
 8796TIP3    H250584   2.121   4.136  12.564 -0.5041 -0.3227 -1.9569
 8797TIP3   OH250585   2.107   4.246  11.912  0.3305  0.4044  0.2210
 8797TIP3    H150586   2.076   4.323  11.865  2.7586  2.1445  1.2538
 8797TIP3    H250587   2.144   4.189  11.845 -0.0784  0.8455 -0.3850
 8798TIP3   OH250588   4.293   3.645  10.661 -0.2036  0.0836  0.2154
 8798TIP3    H150589   4.313   3.569  10.606  0.7024 -1.3014  2.3458
 8798TIP3    H250590   4.205   3.672  10.635 -0.2420 -1.2150 -1.0887
 8799TIP3   OH250591   0.994   5.207  10.624  0.4074 -0.0415 -0.7834
 8799TIP3    H150592   1.005   5.278  10.561  1.0318  0.5410 -0.0291
 8799TIP3    H250593   0.899   5.198  10.633  0.3084 -0.3429 -2.0300
 8800TIP3   OH250594   3.856   1.112  11.450  0.4964  0.5089  0.2733
 8800TIP3    H150595   3.863   1.173  11.524  0.8712  0.4061  0.3268
 8800TIP3    H250596   3.789   1.050  11.477  0.9274  0.2242  0.7119
 8801TIP3   OH250597   3.895   4.516  10.683  0.3931 -0.0400  0.1893
 8801TIP3    H150598   3.953   4.546  10.753 -0.5880  3.7004 -0.3761
 8801TIP3    H250599   3.948   4.523  10.603 -0.4670  2.8254 -0.2503
 8802TIP3   OH250600   7.398   4.625  11.604  0.1797 -0.1018 -0.5551
 8802TIP3    H150601   7.489   4.655  11.597 -0.5187  2.2228 -0.3949
 8802TIP3    H250602   7.368   4.617  11.514  0.2644  0.0253 -0.5944
 8803TIP3   OH250603   4.154   0.389  12.722 -0.0346 -1.2371 -0.3622
 8803TIP3    H150604   4.220   0.374  12.789 -0.9845 -0.8148  0.7121
 8803TIP3    H250605   4.101   0.309  12.723 -0.2371 -1.1044 -0.3792
 8804TIP3   OH250606   5.085   5.689  11.619 -0.2102 -0.0094  0.2796
 8804TIP3    H150607   5.158   5.671  11.678  0.1405  0.0255 -0.1313
 8804TIP3    H250608   5.063   5.604  11.581  0.8309  0.2386 -0.9616
 8805TIP3   OH250609   1.552   5.691  12.395  0.6514  0.0798 -1.1668
 8805TIP3    H150610   1.613   5.664  12.463  1.7784 -0.3462 -2.2919
 8805TIP3    H250611   1.579   5.780  12.371 -0.5937  0.7547 -0.1531
 8806TIP3   OH250612   5.621   3.682  12.753 -0.3022  0.3396 -0.7084
 8806TIP3    H150613   5.619   3.671  12.848  0.5879 -0.4974 -0.7765
 8806TIP3    H250614   5.530   3.702  12.730 -0.6165  0.1153  0.2705
 8807TIP3   OH250615   1.798   6.673  11.373  0.1355 -0.3032  0.2181
 8807TIP3    H150616   1.720   6.727  11.357  0.9233  0.6691 -0.4141
 8807TIP3    H250617   1.821   6.638  11.287  2.1082  1.8128 -0.1862
 8808TIP3   OH250618   3.427   4.109  11.610  0.3839  0.4131 -0.3864
 8808TIP3    H150619   3.497   4.071  11.663  0.5766  0.0764 -0.8744
 8808TIP3    H250620   3.472   4.141  11.531  0.4118  2.6578  0.4688
 8809TIP3   OH250621   0.319   1.424  12.949  0.5694 -0.2988  0.0903
 8809TIP3    H150622   0.258   1.417  12.876  0.7521 -1.2343  0.0181
 8809TIP3    H250623   0.316   1.516  12.973  0.8590  0.1321 -1.4017
 8810TIP3   OH250624   2.793   7.542  10.433  0.2583  0.0110  0.4087
 8810TIP3    H150625   2.879   7.563  10.468  0.7754 -0.1332 -0.7515
 8810TIP3    H250626   2.781   7.601  10.359 -0.5995 -0.0454  0.4863
 8811TIP3   OH250627   5.896   7.321  12.027  0.0973 -0.6606  0.4680
 8811TIP3    H150628   5.887   7.381  11.953 -0.6841  0.2201  1.2324
 8811TIP3    H250629   5.847   7.364  12.098  0.6147 -1.5883  1.4202
 8812TIP3   OH250630   6.009   0.658  11.112 -0.4273 -0.0715 -0.3238
 8812TIP3    H150631   5.993   0.751  11.130  2.0087  0.1325  1.2791
 8812TIP3    H250632   6.001   0.615  11.197 -1.8717 -1.4398 -1.0997
 8813TIP3   OH250633   0.346   1.077  10.500  0.0734  0.7689 -0.1210
 8813TIP3    H150634   0.292   1.150  10.530 -1.4910  0.1103 -1.1952
 8813TIP3    H250635   0.412   1.117  10.444 -1.2469  1.3418 -1.3371
 8814TIP3   OH250636   3.165   0.454  10.866 -0.1544  0.2044 -0.0086
 8814TIP3    H150637   3.180   0.497  10.781 -0.1286  0.8510  0.3177
 8814TIP3    H250638   3.073   0.470  10.884  0.0679  0.9298  0.5455
 8815TIP3   OH250639   2.246   2.174  10.465  0.6818  0.2578  0.1345
 8815TIP3    H150640   2.170   2.118  10.483  0.0516  1.3341  0.9398
 8815TIP3    H250641   2.321   2.116  10.476  0.0154 -0.6094  0.2417
 8816TIP3   OH250642   4.593   4.727  12.131 -0.1263 -0.0478 -0.0973
 8816TIP3    H150643   4.660   4.721  12.200 -0.7705 -1.8926  0.4206
 8816TIP3    H250644   4.520   4.773  12.173 -0.1545 -0.3174  0.1547
 8817TIP3   OH250645   6.390   0.993  12.762 -0.0286  0.4028  0.0240
 8817TIP3    H150646   6.315   0.955  12.807 -0.5120  0.1799 -0.9347
 8817TIP3    H250647   6.353   1.032  12.682  1.0501 -1.1406 -1.3009
 8818TIP3   OH250648   1.299   4.928  12.767  0.1406  0.5398  0.0263
 8818TIP3    H150649   1.255   4.885  12.840  1.3322  0.4902  0.7372
 8818TIP3    H250650   1.228   4.964  12.714 -0.7262  0.8628  1.3756
 8819TIP3   OH250651   1.470   4.304  11.036  0.2371  0.9440 -0.5406
 8819TIP3    H150652   1.424   4.338  10.959  0.4764  2.0270 -0.2200
 8819TIP3    H250653   1.406   4.309  11.107  0.0287 -0.0171 -0.6425
 8820TIP3   OH250654   1.068   2.824  11.161  0.4808 -0.1162 -0.2463
 8820TIP3    H150655   1.019   2.823  11.244  0.9761  0.7535  0.0603
 8820TIP3    H250656   1.038   2.745  11.116  0.7454 -1.0071  1.0718
 8821TIP3   OH250657   3.709   3.752  11.692  0.2625 -0.4190 -0.8782
 8821TIP3    H150658   3.805   3.746  11.692  0.4525  1.4050  0.7518
 8821TIP3    H250659   3.679   3.663  11.711  1.5923 -1.1005 -1.8099
 8822TIP3   OH250660   0.964   6.094  12.108 -0.3259 -0.2364  0.1976
 8822TIP3    H150661   0.997   6.163  12.165  0.8852 -1.3422  0.9103
 8822TIP3    H250662   0.951   6.136  12.023 -0.5773  1.0738  0.8695
 8823TIP3   OH250663   7.571   4.171  12.563 -0.2800  0.0335 -0.0997
 8823TIP3    H150664   7.578   4.249  12.509 -2.3209  0.2005 -0.1968
 8823TIP3    H250665   7.525   4.108  12.509  0.6446 -0.9870  0.2651
 8824TIP3   OH250666   4.864   4.981  10.343  0.2766  0.1766  0.1381
 8824TIP3    H150667   4.921   5.048  10.306  0.4077 -0.3653 -0.6687
 8824TIP3    H250668   4.919   4.902  10.346  0.3953  0.2904  1.8702
 8825TIP3   OH250669   1.766   0.492  12.707 -0.4810 -0.1124  0.5521
 8825TIP3    H150670   1.835   0.557  12.719 -1.0091  0.4447  0.6628
 8825TIP3    H250671   1.760   0.446  12.791  0.0308 -0.4469  0.4080
 8826TIP3   OH250672   1.003   0.894  11.147 -0.2282  0.3404 -0.2626
 8826TIP3    H150673   1.041   0.807  11.140  0.8677  0.6932  0.8964
 8826TIP3    H250674   0.923   0.890  11.094 -0.8038 -1.6890  0.6531
 8827TIP3   OH250675   7.024   6.291  10.844 -0.2432  0.0442 -0.1296
 8827TIP3    H150676   7.076   6.212  10.858  0.8897  0.8257  0.2165
 8827TIP3    H250677   7.011   6.295  10.750  0.9272  0.1852 -0.2990
 8828TIP3   OH250678   7.513   1.825  12.414  0.0130  0.2998  0.0599
 8828TIP3    H150679   7.562   1.812  12.333  0.5361 -1.7978  0.6450
 8828TIP3    H250680   7.579   1.819  12.483 -1.0165 -4.1205  0.9875
 8829TIP3   OH250681   3.821   4.399  11.223 -0.2288 -0.2876 -0.7054
 8829TIP3    H150682   3.734   4.365  11.205 -1.3058  1.4458  0.8342
 8829TIP3    H250683   3.844   4.361  11.308 -0.0173  0.2170 -0.5355
 8830TIP3   OH250684   1.387   3.496  11.099  0.0287 -0.0361 -0.3219
 8830TIP3    H150685   1.414   3.406  11.114  0.5367  0.2395  0.4956
 8830TIP3    H250686   1.469   3.543  11.080  0.1390  0.7041  1.6578
 8831TIP3   OH250687   0.400   5.241  11.578 -0.2689  0.4455  0.1447
 8831TIP3    H150688   0.382   5.165  11.522 -0.5293 -0.0133  0.8447
 8831TIP3    H250689   0.495   5.252  11.574 -0.1069 -0.5447  0.8391
 8832TIP3   OH250690   1.684   7.178  12.717 -0.2357 -0.7137  0.3390
 8832TIP3    H150691   1.626   7.207  12.787 -1.6818 -0.8870 -0.7598
 8832TIP3    H250692   1.711   7.089  12.743 -0.1837 -0.5126  1.0016
 8833TIP3   OH250693   1.897   3.212  11.426 -0.0688  0.2126 -0.0217
 8833TIP3    H150694   1.811   3.253  11.415 -0.1116  1.0773  2.6849
 8833TIP3    H250695   1.956   3.285  11.445  1.4032 -0.3299 -2.1429
 8834TIP3   OH250696   3.428   2.431  13.675  0.1944 -0.2809 -0.5300
 8834TIP3    H150697   3.450   2.474  13.592  1.2333  0.0838 -0.0786
 8834TIP3    H250698   3.436   2.337  13.657 -0.2993 -0.2319 -1.0299
 8835TIP3   OH250699   4.736   2.404  11.469 -0.3382  0.1290 -0.2632
 8835TIP3    H150700   4.795   2.474  11.442  1.7776 -1.1173  0.8835
 8835TIP3    H250701   4.717   2.423  11.561 -1.8110  0.5233 -0.6185
 8836TIP3   OH250702   0.948   4.933  13.037  0.0590  0.2203  0.3386
 8836TIP3    H150703   0.894   4.853  13.042 -0.1921  0.3467 -0.1759
 8836TIP3    H250704   1.038   4.901  13.029  0.0233 -0.0006  0.7969
 8837TIP3   OH250705   6.998   6.300  11.287 -0.7517 -0.6672  0.0152
 8837TIP3    H150706   6.983   6.394  11.277 -0.6152 -0.7717 -1.3503
 8837TIP3    H250707   6.943   6.260  11.219 -3.1031 -1.8031  2.3874
 8838TIP3   OH250708   1.078   5.728  10.793  0.4210 -0.1392  0.2615
 8838TIP3    H150709   1.011   5.755  10.856  0.2622  0.9274 -0.3353
 8838TIP3    H250710   1.088   5.804  10.735  2.3401 -0.1601  0.4903
 8839TIP3   OH250711   2.078   1.918  13.117  0.2615  0.2508 -0.1464
 8839TIP3    H150712   2.073   1.855  13.046 -0.9148 -1.1152  1.0952
 8839TIP3    H250713   2.172   1.937  13.126  0.5597 -0.7051 -1.0577
 8840TIP3   OH250714   5.158   5.307  10.757  0.2944 -0.2625  0.1545
 8840TIP3    H150715   5.230   5.298  10.695 -0.2179  2.6356 -1.0149
 8840TIP3    H250716   5.079   5.298  10.703 -0.1987 -0.5965  0.9182
 8841TIP3   OH250717   0.297   1.446  12.020  0.8231  0.3661 -0.0410
 8841TIP3    H150718   0.246   1.499  11.959  1.7182  0.2050 -0.9636
 8841TIP3    H250719   0.269   1.475  12.106 -1.4111 -0.2681 -0.4757
 8842TIP3   OH250720   5.604   6.520  12.896  0.4137  0.4453  0.0299
 8842TIP3    H150721   5.556   6.502  12.815  0.5755 -1.0344  0.2379
 8842TIP3    H250722   5.538   6.510  12.965  1.0139 -1.9017  0.3420
 8843TIP3   OH250723   5.694   6.907  11.923 -0.1910 -0.0857  0.3426
 8843TIP3    H150724   5.697   6.927  12.016 -1.7245 -0.5573  0.5247
 8843TIP3    H250725   5.773   6.946  11.887  1.0491 -0.9332  2.0292
 8844TIP3   OH250726   1.352   1.924  13.296 -0.3472 -0.0106 -0.4889
 8844TIP3    H150727   1.447   1.928  13.282 -0.4008  2.3019 -0.6530
 8844TIP3    H250728   1.329   2.012  13.329 -2.2729 -0.8883  0.6880
 8845TIP3   OH250729   3.231   4.088  10.141  0.1854 -0.0787 -0.3370
 8845TIP3    H150730   3.189   4.085  10.055  0.0947 -0.8373 -0.2759
 8845TIP3    H250731   3.318   4.123  10.125  0.2705 -0.4906 -0.7819
 8846TIP3   OH250732   2.566   7.087  12.298  0.4676  0.4333  0.2508
 8846TIP3    H150733   2.480   7.088  12.255  0.3197  0.9742  0.5549
 8846TIP3    H250734   2.546   7.084  12.391  0.7700  1.1508  0.3477
 8847TIP3   OH250735   3.459   3.227  12.826 -0.0291 -0.0264  0.0115
 8847TIP3    H150736   3.461   3.314  12.865 -0.2725 -0.5786  1.2930
 8847TIP3    H250737   3.550   3.198  12.828 -0.1326 -0.3196  0.8133
 8848TIP3   OH250738   4.124   7.139  10.683  0.6024 -0.2334 -0.0684
 8848TIP3    H150739   4.095   7.104  10.767  0.9925  1.1223  0.6558
 8848TIP3    H250740   4.077   7.222  10.675  1.5637  0.2673 -0.5760
 8849TIP3   OH250741   6.233   6.171  11.194 -0.3258  0.2007 -0.5832
 8849TIP3    H150742   6.248   6.080  11.218 -0.7487  0.2672 -0.0424
 8849TIP3    H250743   6.160   6.199  11.250  0.5789  1.2242  0.1203
 8850TIP3   OH250744   6.779   6.954  11.001  0.4173  0.4746 -0.3094
 8850TIP3    H150745   6.796   6.869  11.042 -2.6967  0.4001  1.0594
 8850TIP3    H250746   6.751   6.932  10.912  1.3320  0.2247 -0.5482
 8851TIP3   OH250747   0.062   1.508  12.233  0.2854  0.2244  0.1649
 8851TIP3    H150748   0.117   1.449  12.284 -0.8010 -1.0204 -0.0478
 8851TIP3    H250749   0.058   1.588  12.286 -1.4049 -1.2527  2.5165
 8852TIP3   OH250750   6.055   3.230  12.820 -0.3626  0.0154 -0.2718
 8852TIP3    H150751   6.076   3.149  12.867  1.6485  0.5189 -0.2090
 8852TIP3    H250752   6.035   3.201  12.731  2.1671 -0.4892 -0.7641
 8853TIP3   OH250753   6.905   4.942  11.839  0.0379 -0.2594 -0.2657
 8853TIP3    H150754   6.993   4.951  11.876  0.2854  0.5075 -1.0102
 8853TIP3    H250755   6.900   5.010  11.772 -1.2678 -0.0417  0.0322
 8854TIP3   OH250756   0.957   2.011  11.308  0.0744  0.1964 -0.0337
 8854TIP3    H150757   0.994   1.941  11.361 -0.8198  0.3582  0.8116
 8854TIP3    H250758   0.867   1.984  11.291 -0.1739  0.9814  0.0119
 8855TIP3   OH250759   2.555   3.908  12.857  0.3307  0.4470  0.6955
 8855TIP3    H150760   2.639   3.863  12.853 -0.3162 -1.1111  2.9284
 8855TIP3    H250761   2.564   3.972  12.927 -0.2793  0.3793  0.8460
 8856TIP3   OH250762   0.784   6.196  12.757  0.0114 -0.4504  0.1143
 8856TIP3    H150763   0.832   6.143  12.693  1.6560  0.0582  0.8809
 8856TIP3    H250764   0.841   6.199  12.834 -1.1929  0.3207  1.0111
 8857TIP3   OH250765   6.286   5.194  12.317 -0.4893  0.5430 -0.3500
 8857TIP3    H150766   6.352   5.199  12.248 -0.6859  0.5344 -0.5393
 8857TIP3    H250767   6.218   5.256  12.290 -0.9625 -0.0743 -0.5839
 8858TIP3   OH250768   4.902   1.472  12.452 -0.0293 -0.1729  0.0128
 8858TIP3    H150769   4.838   1.537  12.481 -1.4019 -2.5196  2.7107
 8858TIP3    H250770   4.978   1.486  12.509 -0.3012 -0.8291  0.5535
 8859TIP3   OH250771   2.693   2.834  11.158 -0.4078 -0.2512 -0.0163
 8859TIP3    H150772   2.624   2.771  11.133 -0.5969 -0.2010  0.3708
 8859TIP3    H250773   2.669   2.914  11.112 -0.0532 -0.5134 -0.6774
 8860TIP3   OH250774   2.373   4.573  11.448  0.1831 -0.1831 -0.3141
 8860TIP3    H150775   2.422   4.616  11.518 -0.6204 -2.0938  1.5567
 8860TIP3    H250776   2.418   4.598  11.368  2.3564  0.5618  1.0459
 8861TIP3   OH250777   3.541   5.654  12.503 -0.2570  0.0644 -0.1288
 8861TIP3    H150778   3.493   5.576  12.473  1.3389 -0.8489 -0.4239
 8861TIP3    H250779   3.604   5.672  12.433  0.2799  0.8307  0.5295
 8862TIP3   OH250780   1.863   7.538  11.160 -0.1046 -0.3110  0.5889
 8862TIP3    H150781   1.924   7.592  11.109 -2.1939  2.3516  0.6740
 8862TIP3    H250782   1.908   7.524  11.243  0.8422  0.6364  0.2667
 8863TIP3   OH250783   7.223   5.968  11.192 -0.3429  0.0570  0.2104
 8863TIP3    H150784   7.256   5.982  11.280 -0.1708  0.3052  0.1081
 8863TIP3    H250785   7.297   5.930  11.144 -0.9997 -1.8535  0.6545
 8864TIP3   OH250786   6.188   2.533  11.774 -1.1209  0.3674  0.6594
 8864TIP3    H150787   6.243   2.507  11.848  0.3724 -0.0916 -0.5702
 8864TIP3    H250788   6.211   2.472  11.704 -2.2823  0.9793 -0.2975
 8865TIP3   OH250789   0.582   6.036  11.575  0.2377  0.2765  0.2096
 8865TIP3    H150790   0.544   6.085  11.648  0.1545 -0.8949  0.9897
 8865TIP3    H250791   0.583   5.945  11.606  2.3279  0.0571 -0.3393
 8866TIP3   OH250792   0.967   6.985  11.513 -0.0792 -0.0486  0.9232
 8866TIP3    H150793   1.035   6.988  11.581  0.3997 -1.2979  0.5321
 8866TIP3    H250794   0.968   7.072  11.474 -0.0379  0.5434  2.1920
 8867TIP3   OH250795   7.590   6.907  11.700  0.2090 -0.2483 -0.2714
 8867TIP3    H150796   7.637   6.875  11.777 -0.9508 -0.1917  0.4745
 8867TIP3    H250797   7.514   6.851  11.693 -0.9094  1.1742 -0.0083
 8868TIP3   OH250798   1.112   5.381  11.361 -0.6690 -0.2034  0.2802
 8868TIP3    H150799   1.064   5.320  11.306 -1.0746  0.9581 -0.7240
 8868TIP3    H250800   1.202   5.347  11.363  0.1147  1.1705 -3.5780
 8869TIP3   OH250801   3.246   4.936  11.097  0.0569  0.0781  0.4379
 8869TIP3    H150802   3.194   4.865  11.133  0.8150  0.0584  1.5514
 8869TIP3    H250803   3.323   4.894  11.059  0.5306  0.2890  1.1416
 8870TIP3   OH250804   6.246   4.931  11.047  0.2050  0.2114 -1.1243
 8870TIP3    H150805   6.282   5.014  11.080  1.5346  0.1613 -2.3500
 8870TIP3    H250806   6.171   4.957  10.994  0.6235  0.6469 -1.5143
 8871TIP3   OH250807   3.117   7.254  12.120 -0.2987  0.3790 -0.5406
 8871TIP3    H150808   3.194   7.202  12.098 -0.0238  0.7934 -0.5747
 8871TIP3    H250809   3.124   7.271  12.213 -0.4348  0.2890 -0.5118
 8872TIP3   OH250810   7.292   3.001  12.226 -0.3888 -0.2434  0.2470
 8872TIP3    H150811   7.316   3.078  12.174 -1.5546  0.7530  1.1210
 8872TIP3    H250812   7.229   3.035  12.290 -0.1986 -1.7531  1.2619
 8873TIP3   OH250813   2.820   6.814  11.935 -1.1211  0.2834  0.0635
 8873TIP3    H150814   2.762   6.886  11.910 -2.3289 -1.2465 -1.7958
 8873TIP3    H250815   2.796   6.742  11.877  0.9130 -1.2463  0.9838
 8874TIP3   OH250816   1.049   3.625  12.404  0.1944 -0.0316 -0.4539
 8874TIP3    H150817   1.080   3.673  12.328 -1.0524  2.7881  0.6737
 8874TIP3    H250818   1.126   3.615  12.460  0.4843  0.7385 -0.7033
 8875TIP3   OH250819   1.786   3.898  12.010 -0.2150  0.0104 -0.7716
 8875TIP3    H150820   1.760   3.902  12.102  1.5222 -0.5207 -0.2208
 8875TIP3    H250821   1.721   3.840  11.970 -3.0382  2.8155 -0.7001
 8876TIP3   OH250822   7.499   1.374  12.296 -0.6087  0.2312  0.4539
 8876TIP3    H150823   7.582   1.420  12.289  0.9696 -2.2870  1.2245
 8876TIP3    H250824   7.437   1.440  12.326  0.7288  2.5367 -1.5170
 8877TIP3   OH250825   1.685   0.619  10.976  0.1706 -1.0234 -0.1007
 8877TIP3    H150826   1.780   0.627  10.975  0.0255  1.8354 -2.1783
 8877TIP3    H250827   1.656   0.665  10.897 -2.9653 -1.6347  0.5647
 8878TIP3   OH250828   4.492   2.447  12.137  0.4277  0.2261 -0.3106
 8878TIP3    H150829   4.539   2.372  12.174 -0.0935  0.1499  0.2208
 8878TIP3    H250830   4.482   2.426  12.044  1.4164  0.2338 -0.4326
 8879TIP3   OH250831   1.563   0.128  13.114 -0.1299  0.5992  0.0459
 8879TIP3    H150832   1.507   0.078  13.174 -2.2704  2.1008 -0.6273
 8879TIP3    H250833   1.523   0.118  13.028  0.9263  1.3175 -0.5632
 8880TIP3   OH250834   4.019   4.195  12.416  0.0768  0.3692 -0.0439
 8880TIP3    H150835   4.082   4.146  12.468  0.3612 -0.0188 -0.7362
 8880TIP3    H250836   4.068   4.222  12.338 -1.0501 -1.5805 -1.5480
 8881TIP3   OH250837   4.812   4.146  11.398 -0.0686  0.0685 -0.2720
 8881TIP3    H150838   4.869   4.101  11.461  0.7884  0.8613 -0.4577
 8881TIP3    H250839   4.733   4.093  11.395 -0.9016  0.9283  2.8098
 8882TIP3   OH250840   2.242   5.245  11.738 -0.6085  0.0523 -0.0159
 8882TIP3    H150841   2.210   5.334  11.743  0.3282  0.4967 -1.3917
 8882TIP3    H250842   2.207   5.202  11.816 -1.4206  1.4933  0.4357
 8883TIP3   OH250843   2.813   2.940  12.741 -0.5128  0.0772 -0.2598
 8883TIP3    H150844   2.763   2.917  12.820 -0.5036 -1.6259 -0.7152
 8883TIP3    H250845   2.798   3.034  12.730 -1.6100  0.0792  1.0111
 8884TIP3   OH250846   5.730   1.794  11.858  0.1327  0.2064  0.1128
 8884TIP3    H150847   5.707   1.743  11.780 -0.4129 -0.8593  0.9527
 8884TIP3    H250848   5.661   1.860  11.864 -0.5067 -0.4729  0.3673
 8885TIP3   OH250849   6.825   7.614  11.661 -0.1017 -0.0425 -0.2757
 8885TIP3    H150850   6.759   7.545  11.655 -0.1275 -0.1056  0.6386
 8885TIP3    H250851   6.793   7.682  11.601 -0.4947 -0.4765 -0.5658
 8886TIP3   OH250852   3.401   6.631  12.485  0.5113  0.1525 -0.2952
 8886TIP3    H150853   3.451   6.550  12.478  0.5799  0.2233 -0.6941
 8886TIP3    H250854   3.467   6.700  12.481  0.4788  0.2203  0.3667
 8887TIP3   OH250855   5.868   7.315  13.005 -0.0820  0.1840 -0.0188
 8887TIP3    H150856   5.878   7.400  12.963 -1.0495  0.2063 -0.2212
 8887TIP3    H250857   5.951   7.301  13.051  0.2750  1.0006 -0.3987
 8888TIP3   OH250858   6.685   1.256  12.634  0.2232 -0.3943 -0.0107
 8888TIP3    H150859   6.657   1.217  12.717  1.3683  1.8946  1.5741
 8888TIP3    H250860   6.666   1.349  12.644  0.2463 -0.0643 -2.4322
 8889TIP3   OH250861   3.383   5.112  10.174 -0.3330 -0.2630 -0.9950
 8889TIP3    H150862   3.323   5.110  10.100 -0.5049  1.5428 -0.9495
 8889TIP3    H250863   3.332   5.150  10.246  0.7547  1.1335 -0.9014
 8890TIP3   OH250864   1.511   2.981  11.676 -0.1958  0.2152 -0.1455
 8890TIP3    H150865   1.558   2.961  11.757  1.2952  2.7488 -0.2836
 8890TIP3    H250866   1.576   3.021  11.619 -1.2999 -1.1526 -2.5142
 8891TIP3   OH250867   1.716   0.141  10.853  0.1957  0.1502 -0.3855
 8891TIP3    H150868   1.672   0.120  10.936  2.9487 -0.5820  1.0227
 8891TIP3    H250869   1.763   0.222  10.872 -0.0605  0.6116 -1.6479
 8892TIP3   OH250870   0.094   0.480  12.768  0.1117  0.1210  0.1755
 8892TIP3    H150871   0.020   0.514  12.819  0.1204  2.0733 -1.0269
 8892TIP3    H250872   0.170   0.496  12.824 -0.3110 -2.0092  1.4718
 8893TIP3   OH250873   5.626   3.683  13.275  0.3183  0.8004  0.1510
 8893TIP3    H150874   5.687   3.712  13.343 -0.5200  0.4618  1.0587
 8893TIP3    H250875   5.574   3.615  13.316  0.5954 -0.2833 -1.2035
 8894TIP3   OH250876   6.302   1.733  11.592 -0.4254 -0.3131 -0.1993
 8894TIP3    H150877   6.287   1.702  11.503  1.1489  0.5380 -0.8077
 8894TIP3    H250878   6.254   1.672  11.648 -0.6095 -1.4564 -1.5652
 8895TIP3   OH250879   5.980   3.833  11.331  0.1747 -0.6483  0.0075
 8895TIP3    H150880   6.048   3.887  11.291 -1.3827  0.8376 -0.7740
 8895TIP3    H250881   5.964   3.763  11.267 -1.7607  1.2758 -1.7542
 8896TIP3   OH250882   2.386   0.649  12.649 -0.2912 -0.5792 -0.2919
 8896TIP3    H150883   2.435   0.571  12.676 -1.0615 -0.6789  0.9266
 8896TIP3    H250884   2.433   0.722  12.690 -0.5845 -0.5834  0.0597
 8897TIP3   OH250885   2.886   7.324  12.787 -0.1744  0.1091 -0.1139
 8897TIP3    H150886   2.974   7.360  12.781  0.3370 -1.4113 -3.0913
 8897TIP3    H250887   2.829   7.396  12.761  0.5597 -0.0269 -2.2954
 8898TIP3   OH250888   7.138   3.898  12.993  0.7606 -0.0875  0.4563
 8898TIP3    H150889   7.224   3.858  13.005  0.7218 -0.5141 -0.6070
 8898TIP3    H250890   7.079   3.845  13.048  0.7272 -1.4680 -0.8570
 8899TIP3   OH250891   4.002   0.214  10.464 -0.2421  0.1958  0.1187
 8899TIP3    H150892   3.938   0.162  10.513  0.3016 -1.1713 -0.5784
 8899TIP3    H250893   3.949   0.275  10.414 -1.0426 -0.9735 -0.5150
 8900TIP3   OH250894   2.296   0.732  11.634  0.1601 -0.5959 -0.3950
 8900TIP3    H150895   2.305   0.826  11.649  0.3629 -0.1799 -2.7086
 8900TIP3    H250896   2.210   0.710  11.671  0.6014  0.2185  1.2079
 8901TIP3   OH250897   3.682   5.287  12.100 -0.3168 -0.3115 -0.1990
 8901TIP3    H150898   3.760   5.332  12.067 -0.2158 -0.1498  0.2510
 8901TIP3    H250899   3.624   5.280  12.024  0.6041 -1.4656 -0.8120
 8902TIP3   OH250900   6.705   5.226  12.985 -0.0142  0.2224  0.2861
 8902TIP3    H150901   6.645   5.256  12.917  1.6520  0.5932 -1.0955
 8902TIP3    H250902   6.772   5.295  12.990  1.2312 -0.9512  0.5372
 8903TIP3   OH250903   6.464   1.571  11.828  0.0908 -0.0381 -0.3383
 8903TIP3    H150904   6.538   1.605  11.879 -0.1926  1.4572 -0.8774
 8903TIP3    H250905   6.430   1.647  11.782 -2.3398 -0.5241  0.5513
 8904TIP3   OH250906   0.626   7.049  11.596  0.1921  0.0174 -0.1379
 8904TIP3    H150907   0.531   7.057  11.604  0.0954 -1.1904  0.1592
 8904TIP3    H250908   0.643   7.061  11.502 -0.2186  0.5170 -0.1532
 8905TIP3   OH250909   3.363   5.452  10.313  0.2120  0.1960  0.1419
 8905TIP3    H150910   3.378   5.460  10.218 -3.1860  0.8257 -0.4684
 8905TIP3    H250911   3.334   5.361  10.325  0.5922  0.1302  0.5819
 8906TIP3   OH250912   2.244   7.217  10.700  0.4142  0.5080 -0.5781
 8906TIP3    H150913   2.248   7.236  10.793  0.8793 -0.3896 -0.4017
 8906TIP3    H250914   2.154   7.190  10.684  0.4536  0.1852 -0.2790
 8907TIP3   OH250915   7.257   2.905  12.588 -1.0507  0.7746  0.0209
 8907TIP3    H150916   7.234   2.984  12.539 -1.6141  1.5177  1.4229
 8907TIP3    H250917   7.351   2.894  12.572 -1.2303  0.9485 -1.2528
 8908TIP3   OH250918   2.409   1.543  12.378 -0.3022 -0.5673 -0.8633
 8908TIP3    H150919   2.358   1.591  12.313  0.7124  0.0603 -1.2206
 8908TIP3    H250920   2.344   1.492  12.427 -1.4408  1.2913 -0.3659
 8909TIP3   OH250921   1.131   0.401  12.124  0.0572  0.1603 -0.5637
 8909TIP3    H150922   1.218   0.431  12.100 -0.4610  0.6900 -1.9010
 8909TIP3    H250923   1.076   0.479  12.119 -0.5472 -0.2139  0.0046
 8910TIP3   OH250924   4.962   6.072  11.070 -0.4233  0.0332  0.3207
 8910TIP3    H150925   4.867   6.070  11.075 -0.3657  0.1488  1.5639
 8910TIP3    H250926   4.986   6.159  11.103  0.0892  0.2538 -0.5894
 8911TIP3   OH250927   7.400   6.318  12.845 -0.3110  0.1356 -0.1571
 8911TIP3    H150928   7.472   6.297  12.905 -1.2797  1.3620  1.5430
 8911TIP3    H250929   7.425   6.277  12.762  1.8135 -0.3762  0.6601
 8912TIP3   OH250930   5.503   3.609  11.386  0.3307  1.0281 -0.1322
 8912TIP3    H150931   5.574   3.666  11.358  0.5268 -0.1589 -2.2097
 8912TIP3    H250932   5.429   3.633  11.331 -0.1776  0.6195  0.3527
 8913TIP3   OH250933   7.154   4.849  12.416 -0.0662 -0.3655 -0.1953
 8913TIP3    H150934   7.093   4.802  12.472  0.1032 -1.1600 -0.6647
 8913TIP3    H250935   7.110   4.854  12.331 -0.5892  1.3703  0.1399
 8914TIP3   OH250936   4.773   6.334  10.911  0.6249 -0.5868  0.2254
 8914TIP3    H150937   4.751   6.247  10.945  0.2697 -0.3244  0.6780
 8914TIP3    H250938   4.833   6.369  10.977  0.0011 -0.1070  0.5451
 8915TIP3   OH250939   6.036   5.226  11.068 -0.0857 -0.4923 -0.0436
 8915TIP3    H150940   6.088   5.220  11.148  0.7178 -1.3618 -0.6191
 8915TIP3    H250941   6.095   5.267  11.005 -0.3412 -0.8380 -0.5074
 8916TIP3   OH250942   5.463   7.294  11.665 -0.0425 -0.4869 -0.0191
 8916TIP3    H150943   5.499   7.205  11.664 -1.7381 -1.2327 -0.8650
 8916TIP3    H250944   5.402   7.294  11.739  2.3018  1.0788  2.0494
 8917TIP3   OH250945   0.686   4.680  11.229 -0.3569 -0.3823  0.0203
 8917TIP3    H150946   0.651   4.668  11.141 -1.0704 -0.5054  0.3196
 8917TIP3    H250947   0.755   4.614  11.236  0.7677  0.6131 -0.9810
 8918TIP3   OH250948   3.227   0.628  12.271  0.2152  0.6555 -0.2864
 8918TIP3    H150949   3.148   0.587  12.307 -0.3090  1.8595 -0.0028
 8918TIP3    H250950   3.294   0.561  12.278 -0.2732  0.2876  1.4300
 8919TIP3   OH250951   1.932   1.878  12.232 -0.4786 -0.2510  0.3340
 8919TIP3    H150952   1.928   1.786  12.258  1.0730 -0.8169 -1.2131
 8919TIP3    H250953   1.867   1.886  12.162  0.0310 -0.4263 -0.1688
 8920TIP3   OH250954   3.960   0.253  11.807  0.0622 -0.1511  0.3938
 8920TIP3    H150955   3.923   0.236  11.720 -2.6119  0.2761  1.3578
 8920TIP3    H250956   3.916   0.191  11.864 -0.5535  1.5907  1.9156
 8921TIP3   OH250957   0.764   5.589  10.575  0.0830  0.2420  0.3127
 8921TIP3    H150958   0.685   5.536  10.575 -0.2525  0.6976 -0.9110
 8921TIP3    H250959   0.833   5.529  10.603 -0.2634 -0.9235 -1.1819
 8922TIP3   OH250960   1.604   2.144  11.835  0.4286  0.0755 -0.5976
 8922TIP3    H150961   1.556   2.066  11.808 -0.2703  0.0398  0.6687
 8922TIP3    H250962   1.625   2.129  11.927  1.1416  0.9616 -0.5923
 8923TIP3   OH250963   0.138   1.707  11.453  0.0054  0.4795  0.1553
 8923TIP3    H150964   0.177   1.778  11.505  0.7864  0.8401 -0.8765
 8923TIP3    H250965   0.066   1.748  11.406 -1.2738 -0.0462  1.5784
 8924TIP3   OH250966   3.424   4.964  10.660  0.2184  0.4826  0.1437
 8924TIP3    H150967   3.345   4.964  10.606 -0.2628  0.8065  0.8389
 8924TIP3    H250968   3.453   4.872  10.661  1.2035  0.7153 -2.0397
 8925TIP3   OH250969   0.293   7.589  12.045  0.3176  0.1732 -0.3243
 8925TIP3    H150970   0.302   7.566  12.138 -0.6874  1.1426  0.0308
 8925TIP3    H250971   0.366   7.543  12.002  0.0593 -1.3171  0.7431
 8926TIP3   OH250972   4.284   5.169  10.898 -0.0882 -0.9724  0.0865
 8926TIP3    H150973   4.362   5.114  10.898  0.2600 -0.6050  2.5731
 8926TIP3    H250974   4.247   5.158  10.986 -1.5711  0.6319 -0.2748
 8927TIP3   OH250975   2.681   6.025  10.685 -0.0533  0.0629  0.2594
 8927TIP3    H150976   2.752   5.976  10.642  0.5585 -0.5432  1.8881
 8927TIP3    H250977   2.705   6.116  10.673 -0.2968 -0.0547 -1.3184
 8928TIP3   OH250978   2.571   2.342  10.514 -0.0702 -0.1921  0.1135
 8928TIP3    H150979   2.661   2.372  10.499  0.8803 -1.0090  3.3623
 8928TIP3    H250980   2.554   2.279  10.443  1.2003  1.2714 -1.5730
 8929TIP3   OH250981   2.567   2.184  11.738 -0.1444 -0.3072 -0.2883
 8929TIP3    H150982   2.622   2.262  11.741 -1.4012  0.5946  0.0923
 8929TIP3    H250983   2.611   2.126  11.675  1.2712  0.3291  0.0797
 8930TIP3   OH250984   3.612   1.948  10.716  0.1711  0.0361 -0.9786
 8930TIP3    H150985   3.651   2.028  10.751  0.1061 -0.2681 -0.1864
 8930TIP3    H250986   3.640   1.879  10.776  0.4526 -0.5884 -1.8070
 8931TIP3   OH250987   0.173   4.761  13.166  0.2429  0.2669 -0.4365
 8931TIP3    H150988   0.208   4.706  13.096 -0.0708 -0.6874  0.1458
 8931TIP3    H250989   0.090   4.720  13.190  1.1246 -0.4000  1.6333
 8932TIP3   OH250990   6.659   3.181  11.005 -0.1007  0.1143 -0.1455
 8932TIP3    H150991   6.739   3.169  11.056  0.9276  0.9524 -1.4791
 8932TIP3    H250992   6.655   3.276  10.989 -0.3658 -0.1109 -1.5994
 8933TIP3   OH250993   0.980   7.319  11.016 -0.4830 -0.9222 -0.1657
 8933TIP3    H150994   1.076   7.324  11.020 -0.5060  0.2324 -0.7850
 8933TIP3    H250995   0.958   7.344  10.927 -1.4310  0.1435  0.3438
 8934TIP3   OH250996   5.700   0.547  10.748 -0.5554  0.7194 -0.4382
 8934TIP3    H150997   5.716   0.594  10.829  2.6880  0.5425 -0.8398
 8934TIP3    H250998   5.658   0.611  10.690 -0.0837  1.7962  0.3880
 8935TIP3   OH250999   6.624   0.889  12.661  0.5909  0.2886  0.0503
 8935TIP3    H151000   6.546   0.930  12.699 -1.1781 -2.2997 -0.4650
 8935TIP3    H251001   6.621   0.799  12.694  2.2523 -0.4283 -1.5864
 8936TIP3   OH251002   0.724   0.482  12.219 -0.7636 -0.1551  0.6314
 8936TIP3    H151003   0.718   0.575  12.197  0.0657 -0.1648  0.3217
 8936TIP3    H251004   0.652   0.441  12.170  0.1388  0.0379 -0.9317
 8937TIP3   OH251005   3.345   5.736  11.356  0.5554  0.1689 -0.6278
 8937TIP3    H151006   3.392   5.693  11.285 -0.5701 -0.8978 -0.7686
 8937TIP3    H251007   3.355   5.676  11.431  1.5427  1.1724  0.0735
 8938TIP3   OH251008   2.161   5.829  11.732 -0.2819  0.2571 -0.7264
 8938TIP3    H151009   2.147   5.856  11.642 -0.6146  0.9571 -0.4765
 8938TIP3    H251010   2.253   5.801  11.735 -0.5289 -0.6715 -1.4874
 8939TIP3   OH251011   1.890   5.606  11.937  0.1255  0.5435  0.2078
 8939TIP3    H151012   1.946   5.668  11.984  1.3936 -0.4980  0.1173
 8939TIP3    H251013   1.843   5.660  11.873 -0.2734  1.6951  1.4399
 8940TIP3   OH251014   3.828   1.882  12.278 -0.5651 -0.1823  0.4901
 8940TIP3    H151015   3.760   1.948  12.267 -0.4243 -0.2748 -1.2257
 8940TIP3    H251016   3.909   1.931  12.282 -0.6862 -0.0673  2.6092
 8941TIP3   OH251017   4.993   0.955  12.278  0.1216 -0.3739 -0.2395
 8941TIP3    H151018   4.902   0.933  12.297  0.0622 -1.0538 -1.2592
 8941TIP3    H251019   5.044   0.892  12.329  0.0641  0.6357  1.1201
 8942TIP3   OH251020   5.220   4.148  12.611  0.4020  0.3147 -0.2250
 8942TIP3    H151021   5.185   4.093  12.541 -1.2474  2.0833 -0.8789
 8942TIP3    H251022   5.154   4.146  12.680  1.1625  0.0615  0.5150
 8943TIP3   OH251023   2.046   0.532  10.750 -0.2799  0.1138  0.4129
 8943TIP3    H151024   2.015   0.555  10.837  1.4261  0.8038  0.8693
 8943TIP3    H251025   2.131   0.575  10.742 -0.4202  0.1184 -1.6245
 8944TIP3   OH251026   3.075   5.931  10.760  0.2870 -0.2785 -0.2005
 8944TIP3    H151027   3.003   5.923  10.698  1.4896 -2.6526 -1.4455
 8944TIP3    H251028   3.033   5.948  10.844 -1.7299 -1.4760 -0.9021
 8945TIP3   OH251029   2.238   1.379  11.390  0.1746  0.1941 -0.0222
 8945TIP3    H151030   2.273   1.425  11.466  1.7647  0.4949 -0.8715
 8945TIP3    H251031   2.307   1.388  11.323 -1.9031  1.6150 -2.1493
 8946TIP3   OH251032   3.826   4.340  10.889 -0.2069 -0.3747  0.3116
 8946TIP3    H151033   3.832   4.374  10.799  0.0218 -0.0747  0.4407
 8946TIP3    H251034   3.858   4.411  10.944 -1.4726 -0.1185  0.7325
 8947TIP3   OH251035   6.946   3.576  11.208  0.0811 -0.0174  0.1951
 8947TIP3    H151036   6.922   3.659  11.249 -3.4683 -0.8400  0.0836
 8947TIP3    H251037   6.941   3.592  11.114 -1.0135 -0.4218  0.1741
 8948TIP3   OH251038   2.328   7.191  12.803 -0.0582  0.4532  0.2754
 8948TIP3    H151039   2.408   7.232  12.834 -0.6692  2.2769 -0.3921
 8948TIP3    H251040   2.350   7.098  12.793  1.6846  0.7633  0.9445
 8949TIP3   OH251041   3.191   2.655  10.275 -0.2365  0.2576 -0.5881
 8949TIP3    H151042   3.176   2.652  10.369 -3.6773  0.5693 -0.9837
 8949TIP3    H251043   3.242   2.577  10.255  0.0645 -0.1043  1.4620
 8950TIP3   OH251044   2.764   2.956  10.397 -0.3129  0.4138 -0.0194
 8950TIP3    H151045   2.834   2.893  10.377 -1.2396 -0.1607 -1.6280
 8950TIP3    H251046   2.758   3.010  10.318 -1.9522  0.1802 -0.0803
 8951TIP3   OH251047   2.222   5.035  12.704 -0.0358 -0.9561 -0.3973
 8951TIP3    H151048   2.263   5.008  12.786 -2.3805 -1.0038  0.8538
 8951TIP3    H251049   2.293   5.032  12.639  1.6268 -2.0591  1.3596
 8952TIP3   OH251050   6.010   1.895  12.280 -0.1161 -0.2172  0.4959
 8952TIP3    H151051   5.966   1.967  12.326 -1.6688 -0.4945 -0.4725
 8952TIP3    H251052   6.081   1.870  12.338 -0.0270  1.5672  1.2256
 8953TIP3   OH251053   2.010   3.919  10.758  0.2395  0.3942 -0.8042
 8953TIP3    H151054   2.004   4.001  10.708 -1.2621  1.0279  0.3384
 8953TIP3    H251055   2.025   3.852  10.691  2.1922  1.6366 -1.7098
 8954TIP3   OH251056   3.160   3.042  13.136 -0.5382 -0.8317  0.0508
 8954TIP3    H151057   3.214   2.965  13.121  1.3272  0.0132  1.8058
 8954TIP3    H251058   3.222   3.109  13.166 -2.5851  0.0405  2.8374
 8955TIP3   OH251059   5.960   1.709  11.488 -0.2848  0.4169 -0.5228
 8955TIP3    H151060   5.865   1.722  11.479 -0.2932  0.1278 -0.8709
 8955TIP3    H251061   5.969   1.620  11.522 -0.1735  0.8413  0.5922
 8956TIP3   OH251062   0.896   1.224  10.917  0.2104 -0.1115  0.2780
 8956TIP3    H151063   0.906   1.210  10.823  2.1228 -2.1324  0.6884
 8956TIP3    H251064   0.982   1.202  10.954 -0.4528  0.7363  2.4952
 8957TIP3   OH251065   3.229   4.108  11.103  1.0336  0.5336  0.4055
 8957TIP3    H151066   3.301   4.153  11.148  0.6789 -0.3645  1.9387
 8957TIP3    H251067   3.273   4.044  11.046  1.4951  1.8523 -0.7668
 8958TIP3   OH251068   2.195   1.185  10.273 -0.1051 -0.1454  0.4783
 8958TIP3    H151069   2.102   1.165  10.284 -0.2724  1.2379  1.8631
 8958TIP3    H251070   2.198   1.277  10.247  0.9206  0.1999  1.7238
 8959TIP3   OH251071   4.049   4.911  10.857  0.0149  0.0566 -0.1271
 8959TIP3    H151072   4.027   4.943  10.944  0.6528  2.0624 -0.6337
 8959TIP3    H251073   4.143   4.895  10.861 -0.1775 -1.1353 -0.0933
 8960TIP3   OH251074   2.014   5.657  13.116 -0.5167  0.1702  0.1365
 8960TIP3    H151075   1.989   5.564  13.117  1.2909 -0.3710 -0.5271
 8960TIP3    H251076   2.109   5.656  13.132 -0.3441  1.8522 -0.5973
 8961TIP3   OH251077   0.300   3.425  12.318 -0.1715  0.4040  0.4336
 8961TIP3    H151078   0.289   3.514  12.284 -2.5020 -0.4421 -1.3129
 8961TIP3    H251079   0.213   3.402  12.352  0.4753 -1.1001  1.1355
 8962TIP3   OH251080   6.295   0.051  11.613  0.2018  0.7133  0.1242
 8962TIP3    H151081   6.257   0.030  11.527 -1.1072 -0.6490  0.9771
 8962TIP3    H251082   6.369  -0.009  11.620 -0.5409 -0.1915  0.4957
 8963TIP3   OH251083   3.127   6.425  13.001 -0.0424  0.3864  0.1965
 8963TIP3    H151084   3.100   6.512  12.969  1.3418  0.6373 -0.3350
 8963TIP3    H251085   3.178   6.388  12.929  0.2395 -0.4479  0.8194
 8964TIP3   OH251086   1.567   1.330  13.209  0.8904  0.2869 -0.0831
 8964TIP3    H151087   1.520   1.248  13.219  1.3802 -0.0942 -0.7801
 8964TIP3    H251088   1.633   1.329  13.278 -0.5824  1.1922  1.4210
 8965TIP3   OH251089   1.051   7.599  12.823 -0.6616 -0.0635  0.5929
 8965TIP3    H151090   0.966   7.565  12.849 -0.6969 -0.2047  0.2909
 8965TIP3    H251091   1.089   7.634  12.904 -2.2303  2.7469  0.2344
 8966TIP3   OH251092   6.832   1.614  12.302  0.1811 -0.5655  0.2997
 8966TIP3    H151093   6.805   1.585  12.389  0.2215 -1.7443 -0.0689
 8966TIP3    H251094   6.868   1.536  12.261 -0.5733 -0.2288 -1.0678
 8967TIP3   OH251095   4.804   1.360  10.657 -0.0856 -0.0847 -0.2604
 8967TIP3    H151096   4.778   1.383  10.746  1.3017 -1.3623  0.5154
 8967TIP3    H251097   4.886   1.406  10.643 -0.1045 -0.1902 -0.7325
 8968TIP3   OH251098   6.475   5.735  12.763  0.0347  0.2218 -0.2004
 8968TIP3    H151099   6.411   5.672  12.729 -0.1968  0.2109  0.2539
 8968TIP3    H251100   6.554   5.682  12.778  0.1242  0.2162 -0.6630
 8969TIP3   OH251101   4.105   4.682  11.925  0.1005 -0.2577  0.4226
 8969TIP3    H151102   4.172   4.734  11.969 -0.4373  1.7023 -0.9422
 8969TIP3    H251103   4.053   4.644  11.995  0.7071  0.8113  1.4712
 8970TIP3   OH251104   7.143   3.188  12.776  0.7361  0.0547  0.1122
 8970TIP3    H151105   7.210   3.181  12.708 -0.3761  0.7590 -1.1014
 8970TIP3    H251106   7.188   3.227  12.850  1.1596  2.8381 -1.4910
 8971TIP3   OH251107   4.181   2.280  11.112  0.1315 -0.8482 -0.4293
 8971TIP3    H151108   4.209   2.320  11.029  0.2282  1.4408  0.6280
 8971TIP3    H251109   4.262   2.260  11.157  0.2290  1.7977  0.7981
 8972TIP3   OH251110   2.611   1.909  12.684 -0.3838 -0.1377  0.1401
 8972TIP3    H151111   2.603   1.827  12.732 -1.0690  0.4733  1.0978
 8972TIP3    H251112   2.611   1.977  12.752 -1.7908  0.7752 -0.7332
 8973TIP3   OH251113   0.963   0.654  10.565  0.2280 -0.7719  0.3438
 8973TIP3    H151114   0.987   0.731  10.617 -2.3053  0.3136  0.0823
 8973TIP3    H251115   1.035   0.642  10.504  1.3488  0.5073  1.3677
 8974TIP3   OH251116   0.363   2.500  12.039  0.1576  0.1453 -0.7683
 8974TIP3    H151117   0.389   2.553  11.964 -0.2869 -1.4783 -2.1299
 8974TIP3    H251118   0.343   2.414  12.002  0.3455 -0.8381  1.2830
 8975TIP3   OH251119   1.540   2.272  10.901  0.4507 -0.0271 -0.5073
 8975TIP3    H151120   1.463   2.310  10.859  0.2776  0.9851  0.6735
 8975TIP3    H251121   1.608   2.338  10.892  0.5806 -0.0465  0.2695
 8976TIP3   OH251122   5.790   2.882  12.506  0.4376  0.6220 -0.1835
 8976TIP3    H151123   5.827   2.801  12.470 -2.2834 -0.8364  0.0626
 8976TIP3    H251124   5.806   2.876  12.600  3.1355  2.0679 -0.4278
 8977TIP3   OH251125   1.106   3.305  10.136  0.1710 -0.3107 -0.1031
 8977TIP3    H151126   1.067   3.383  10.176 -2.8127 -1.8170  0.2431
 8977TIP3    H251127   1.072   3.305  10.046  0.0564 -1.2146 -0.0709
 8978TIP3   OH251128   0.117   0.959  11.707  0.0580  0.2684  0.4524
 8978TIP3    H151129   0.111   0.865  11.690  1.5330  0.2226  0.0546
 8978TIP3    H251130   0.041   0.997  11.663  0.9312 -0.4402 -1.7847
 8979TIP3   OH251131   1.653   0.726  11.488  0.3452 -0.2873 -0.2161
 8979TIP3    H151132   1.733   0.774  11.511 -0.2627  0.0531  1.3128
 8979TIP3    H251133   1.626   0.685  11.570 -1.8278  0.7476 -0.3631
 8980TIP3   OH251134   0.667   2.778  11.676 -0.3344  0.0287 -0.2641
 8980TIP3    H151135   0.703   2.813  11.758 -1.3697  1.6421 -0.4575
 8980TIP3    H251136   0.635   2.854  11.629 -0.5089 -0.9606 -1.8335
 8981TIP3   OH251137   0.171   2.112  11.201  0.1508  0.3120 -0.1937
 8981TIP3    H151138   0.150   2.080  11.289 -1.1678  0.0038 -0.5973
 8981TIP3    H251139   0.156   2.206  11.205 -0.6901  0.1873 -0.2929
 8982TIP3   OH251140   6.594   5.002  10.634 -0.1660 -0.0720 -0.2037
 8982TIP3    H151141   6.550   4.988  10.718 -2.1187 -1.1928 -1.3449
 8982TIP3    H251142   6.603   5.097  10.628  1.6197 -0.0409  2.0122
 8983TIP3   OH251143   5.770   7.561  11.116 -0.3710  0.6459  0.4400
 8983TIP3    H151144   5.684   7.603  11.108  0.2610  2.1307  1.0113
 8983TIP3    H251145   5.763   7.482  11.062 -1.9284  0.9835  0.0827
 8984TIP3   OH251146   4.223   1.931  11.396 -0.1083  0.5146  0.4697
 8984TIP3    H151147   4.174   1.906  11.317 -0.5963 -0.0192  0.9293
 8984TIP3    H251148   4.315   1.915  11.374 -0.3577 -1.1350  0.5344
 8985TIP3   OH251149   7.573   5.444  12.713 -0.2600  0.4300 -0.0820
 8985TIP3    H151150   7.652   5.392  12.695  0.2601  1.7544 -1.8864
 8985TIP3    H251151   7.535   5.402  12.790  2.1507 -0.3220  0.8182
 8986TIP3   OH251152   0.412   7.381  12.226 -0.2008  0.2510 -0.0811
 8986TIP3    H151153   0.494   7.339  12.254  0.1363 -0.7263 -2.3751
 8986TIP3    H251154   0.351   7.309  12.212 -1.4124  0.9493  1.2735
 8987TIP3   OH251155   2.928   0.663  10.674  0.6358 -0.0715 -0.4834
 8987TIP3    H151156   2.967   0.735  10.723  1.1002 -0.8536  0.3460
 8987TIP3    H251157   2.998   0.632  10.617 -0.0943  1.2345 -2.1329
 8988TIP3   OH251158   6.225   5.385  11.522  0.1366 -0.3880  0.2602
 8988TIP3    H151159   6.236   5.313  11.583  0.5249 -0.6438 -0.1068
 8988TIP3    H251160   6.313   5.420  11.509  0.2545 -1.1019 -1.0780
 8989TIP3   OH251161   7.277   4.957  10.673  0.9083  0.3157  0.3603
 8989TIP3    H151162   7.227   4.903  10.612  0.7030  0.7966  0.1058
 8989TIP3    H251163   7.267   4.912  10.757 -0.1521  0.5285  0.3627
 8990TIP3   OH251164   1.527   4.316  12.605  0.4365  0.1288  0.1050
 8990TIP3    H151165   1.466   4.274  12.544  0.3137  0.4963 -0.0261
 8990TIP3    H251166   1.516   4.267  12.687  0.2391 -0.0454 -0.0245
 8991TIP3   OH251167   4.546   2.079  11.337 -0.2487 -0.6228  0.0484
 8991TIP3    H151168   4.584   2.094  11.424 -0.5227 -1.3208  0.2927
 8991TIP3    H251169   4.478   2.145  11.329  0.6536  0.3163 -0.1848
 8992TIP3   OH251170   4.631   6.232  10.614  0.0534  0.1392  0.2450
 8992TIP3    H151171   4.551   6.214  10.664 -0.0882  0.7882  0.2528
 8992TIP3    H251172   4.601   6.281  10.537  0.0598 -2.1314 -1.3096
 8993TIP3   OH251173   6.408   5.065  11.729  0.1923 -0.1880  0.2568
 8993TIP3    H151174   6.316   5.067  11.704  0.3927 -1.9228 -0.8323
 8993TIP3    H251175   6.416   4.988  11.786  0.8478  0.3603  0.9301
 8994TIP3   OH251176   0.737   6.922  12.046  0.1475  0.0229 -0.0858
 8994TIP3    H151177   0.647   6.952  12.057  0.2886  1.0445 -1.4482
 8994TIP3    H251178   0.774   6.980  11.979  1.6880 -0.6552  0.1267
 8995TIP3   OH251179   2.735   0.424  12.566  0.9400 -0.0771  0.2495
 8995TIP3    H151180   2.653   0.426  12.615  0.0171 -1.3241 -1.1741
 8995TIP3    H251181   2.757   0.516  12.553  0.1441  0.2707  1.2541
 8996TIP3   OH251182   6.896   3.086  12.720  0.2217  0.7570 -0.1273
 8996TIP3    H151183   6.882   3.076  12.814 -0.1366 -0.0797 -0.2610
 8996TIP3    H251184   6.980   3.132  12.713  0.7429 -0.0486  0.5931
 8997TIP3   OH251185   3.939   7.007  10.359 -0.2398  0.3425  0.4574
 8997TIP3    H151186   4.030   7.035  10.372  0.7864 -2.3612 -0.1595
 8997TIP3    H251187   3.931   6.929  10.415 -1.1079 -1.3606 -1.9047
 8998TIP3   OH251188   6.137   0.825  10.791  0.5640 -0.4359  0.3683
 8998TIP3    H151189   6.187   0.905  10.810  0.6443  0.1827 -2.0202
 8998TIP3    H251190   6.057   0.857  10.748  0.2719 -1.5990  0.0221
 8999TIP3   OH251191   0.674   7.314  11.842 -0.7261 -0.2372  0.2750
 8999TIP3    H151192   0.687   7.324  11.747  1.0046 -0.1847  0.4902
 8999TIP3    H251193   0.636   7.227  11.852  0.7173 -0.9724 -0.3697
 9000TIP3   OH251194   6.598   1.424  11.103  0.1301 -0.2749  0.1268
 9000TIP3    H151195   6.607   1.385  11.190 -0.9343 -0.2984  0.2473
 9000TIP3    H251196   6.611   1.517  11.117 -2.0298  0.0021  0.7135
 9001TIP3   OH251197   4.132   6.766  11.476  0.1747  0.2245  0.5034
 9001TIP3    H151198   4.053   6.796  11.432 -0.3721 -0.7567  0.8130
 9001TIP3    H251199   4.156   6.839  11.533 -0.4351  0.5765  0.3183
 9002TIP3   OH251200   6.985   0.923  12.964  0.6402  0.0856 -0.1102
 9002TIP3    H151201   6.951   0.979  13.034 -1.7629  0.1151 -1.1867
 9002TIP3    H251202   6.986   0.835  13.001  1.1542  0.3455  0.5128
 9003TIP3   OH251203   0.316   1.758  11.910 -0.1160 -0.2166 -0.0759
 9003TIP3    H151204   0.240   1.715  11.870 -0.4403 -0.6868  1.0164
 9003TIP3    H251205   0.320   1.844  11.867 -0.9934 -0.3628 -0.4700
 9004TIP3   OH251206   2.117   0.342  12.042  0.7079 -0.1737 -0.1951
 9004TIP3    H151207   2.146   0.400  11.971  1.9869  0.6653  0.9769
 9004TIP3    H251208   2.164   0.260  12.027  2.4320  0.6087  0.7010
 9005TIP3   OH251209   2.564   1.368  11.771  0.1559  0.0850 -0.8405
 9005TIP3    H151210   2.504   1.442  11.773  0.0988  0.0474 -1.1636
 9005TIP3    H251211   2.633   1.391  11.834 -0.2972  0.0395 -0.3196
 9006TIP3   OH251212   4.222   5.147  11.762  0.8262  0.5443 -0.4910
 9006TIP3    H151213   4.240   5.207  11.834  1.3988  0.4419 -0.5498
 9006TIP3    H251214   4.127   5.155  11.748  0.6527  0.3264  0.4784
 9007TIP3   OH251215   7.582   3.856  10.957 -0.0474 -0.6216 -0.3736
 9007TIP3    H151216   7.532   3.826  11.032 -1.2742  0.1529 -0.8511
 9007TIP3    H251217   7.616   3.942  10.982 -1.0370 -0.0493 -0.9240
 9008TIP3   OH251218   5.703   6.982  12.188  0.6922 -0.1799 -0.6428
 9008TIP3    H151219   5.752   6.906  12.220  1.8421 -1.2821 -4.4794
 9008TIP3    H251220   5.770   7.051  12.178  0.2845  0.2718 -0.2975
 9009TIP3   OH251221   2.583   5.625  11.630  0.0779 -0.3479 -0.5904
 9009TIP3    H151222   2.526   5.573  11.573 -1.1911  0.8147 -0.4379
 9009TIP3    H251223   2.635   5.560  11.678 -3.6590 -1.7202  1.9949
 9010TIP3   OH251224   7.248   5.867  12.340 -0.0261  0.0561  0.4384
 9010TIP3    H151225   7.229   5.960  12.350  0.0616  0.5181 -2.6445
 9010TIP3    H251226   7.162   5.826  12.328  0.0530  0.4593 -2.2626
 9011TIP3   OH251227   0.186   3.612  12.554  0.4741  0.7856 -0.4815
 9011TIP3    H151228   0.201   3.694  12.602 -0.6513  0.8413 -0.1957
 9011TIP3    H251229   0.155   3.640  12.468  2.0507  0.6737 -1.1271
 9012TIP3   OH251230   5.882   1.642  11.012 -0.0559  0.4396 -0.4484
 9012TIP3    H151231   5.805   1.695  10.988 -0.2257  0.9228  1.0694
 9012TIP3    H251232   5.866   1.617  11.103  1.1886 -0.1927 -0.3938
 9013TIP3   OH251233   1.172   1.981  12.155 -0.2702  0.2707  0.0546
 9013TIP3    H151234   1.199   1.901  12.110  0.6881  1.2998 -1.2917
 9013TIP3    H251235   1.117   2.026  12.091  0.9542  1.6734 -0.0590
 9014TIP3   OH251236   5.305   1.537  10.747  0.0692 -0.1054 -0.0716
 9014TIP3    H151237   5.360   1.462  10.726  2.3109  1.4768 -0.2463
 9014TIP3    H251238   5.293   1.533  10.842 -0.8684 -1.2990 -0.2178
 9015TIP3   OH251239   1.461   1.869  12.000 -0.7835 -0.0804  0.3637
 9015TIP3    H151240   1.477   1.779  11.970 -0.0056  0.1128  0.1782
 9015TIP3    H251241   1.421   1.913  11.925  0.6962  0.2654 -0.2492
 9016TIP3   OH251242   4.906   5.453  10.339 -0.0287  0.2196 -0.3313
 9016TIP3    H151243   4.908   5.541  10.302 -0.0510  0.1996 -0.3794
 9016TIP3    H251244   4.886   5.466  10.432 -1.4154  0.1821 -0.6108
 9017TIP3   OH251245   0.867   6.018  12.529  0.1198  0.7295  0.9722
 9017TIP3    H151246   0.779   5.993  12.503  0.5008  0.0870  0.2495
 9017TIP3    H251247   0.883   6.100  12.483  0.4044  0.1299 -0.0293
 9018TIP3   OH251248   7.036   0.968  10.558 -0.3423  0.1483 -0.4818
 9018TIP3    H151249   7.068   1.021  10.485 -1.6108 -0.2810 -1.3896
 9018TIP3    H251250   7.109   0.967  10.621  0.9940  0.1258 -1.9495
 9019TIP3   OH251251   6.559   6.645  11.906 -0.2341 -0.3398  0.6161
 9019TIP3    H151252   6.476   6.693  11.903  0.4052  0.7244 -1.0924
 9019TIP3    H251253   6.582   6.643  11.999 -0.2768  2.6950  0.7642
 9020TIP3   OH251254   2.906   3.203  11.199  0.4023 -0.3715 -0.5747
 9020TIP3    H151255   2.883   3.275  11.258 -0.4078 -0.7120 -0.4525
 9020TIP3    H251256   2.822   3.174  11.163  0.8266 -0.5694 -1.4353
 9021TIP3   OH251257   7.259   3.317  10.759  0.2456  0.3763  0.4846
 9021TIP3    H151258   7.250   3.371  10.837  1.3859  0.5583  0.4999
 9021TIP3    H251259   7.192   3.350  10.699 -0.7390  0.1429  1.4159
 9022TIP3   OH251260   3.062   1.568  10.721  0.2658  0.8862 -0.5352
 9022TIP3    H151261   3.020   1.506  10.662 -0.1464  1.7898 -1.2067
 9022TIP3    H251262   3.109   1.513  10.784 -0.7880 -0.1211 -0.5972
 9023TIP3   OH251263   5.183   3.789  13.086 -0.4055  0.1889  0.1346
 9023TIP3    H151264   5.097   3.777  13.048 -0.1891  0.5504 -0.4775
 9023TIP3    H251265   5.231   3.709  13.063 -0.4155  0.2131  0.0290
 9024TIP3   OH251266   0.139   5.395  11.348  0.3662 -0.7424 -0.2460
 9024TIP3    H151267   0.092   5.353  11.276  1.6104  0.9009 -2.0813
 9024TIP3    H251268   0.231   5.387  11.326  0.8695 -1.2873  1.8201
 9025TIP3   OH251269   6.196   5.418  11.199 -0.6211  0.3494  0.2342
 9025TIP3    H151270   6.233   5.476  11.132 -1.3931  0.4946 -0.0876
 9025TIP3    H251271   6.136   5.474  11.249  0.8973  0.5613  1.9035
 9026TIP3   OH251272   2.969   5.561  11.826 -0.1198 -1.3160  0.2927
 9026TIP3    H151273   2.950   5.652  11.802  1.3515 -0.8397  0.8284
 9026TIP3    H251274   2.905   5.509  11.777  0.3042 -0.1345 -1.6028
 9027TIP3   OH251275   3.813   3.239  11.163 -0.5694 -0.2869 -0.1951
 9027TIP3    H151276   3.829   3.167  11.102 -1.4737 -0.3196 -0.4129
 9027TIP3    H251277   3.718   3.245  11.168 -0.5194 -0.5145  1.4947
 9028TIP3   OH251278   6.299   0.937  11.086 -0.1664  0.1291 -0.5624
 9028TIP3    H151279   6.393   0.921  11.078 -0.0155 -0.3966  1.6730
 9028TIP3    H251280   6.292   1.003  11.156 -1.5473 -2.3381  1.8102
 9029TIP3   OH251281   5.221   0.976  10.715 -1.1615  0.0138 -0.1507
 9029TIP3    H151282   5.166   1.055  10.720  0.1549  1.1037 -1.8639
 9029TIP3    H251283   5.277   0.981  10.793 -1.2216  0.6724 -0.1414
 9030TIP3   OH251284   3.921   5.507  12.546 -0.6414  0.1287 -0.0410
 9030TIP3    H151285   3.867   5.553  12.482 -2.5475 -0.5560  0.9898
 9030TIP3    H251286   3.876   5.520  12.629  1.4043  0.4365  1.0919
 9031TIP3   OH251287   5.331   2.229  12.097  0.0370 -0.7694 -0.1445
 9031TIP3    H151288   5.292   2.179  12.025 -2.3924 -0.9043  1.1757
 9031TIP3    H251289   5.378   2.163  12.148 -0.9346 -1.2540  0.1400
 9032TIP3   OH251290   0.984   6.740  11.848 -0.0010 -0.0102 -0.6045
 9032TIP3    H151291   0.981   6.645  11.857 -0.4554  0.0283 -0.3366
 9032TIP3    H251292   0.896   6.765  11.822 -0.1576  0.4364  0.3155
 9033TIP3   OH251293   1.058   4.635  11.168 -0.1387 -0.5832 -0.3059
 9033TIP3    H151294   1.001   4.570  11.209  0.8501 -1.9109 -0.9828
 9033TIP3    H251295   1.143   4.593  11.161  0.6351  0.9159 -0.4576
 9034TIP3   OH251296   2.272   3.899  12.821  0.2251 -0.0178 -0.6682
 9034TIP3    H151297   2.368   3.905  12.819  0.1235  2.2555 -1.9486
 9034TIP3    H251298   2.246   3.969  12.882 -0.6261 -1.1600  0.3226
 9035TIP3   OH251299   4.713   5.183  12.047  0.1528  0.6764 -0.2230
 9035TIP3    H151300   4.730   5.166  12.140 -0.6284  1.5302  0.0966
 9035TIP3    H251301   4.790   5.230  12.016  1.2878 -1.2866 -0.5281
 9036TIP3   OH251302   2.909   3.249  10.912 -0.1197 -0.1590 -0.5900
 9036TIP3    H151303   2.921   3.206  10.997  1.1452  2.7348  0.8457
 9036TIP3    H251304   2.823   3.290  10.918  1.1088  2.4836  0.6225
 9037TIP3   OH251305   5.074   2.980  10.850  0.4176  0.8369 -0.1572
 9037TIP3    H151306   5.138   3.039  10.891 -0.2132  0.6647  1.1440
 9037TIP3    H251307   5.075   2.902  10.905 -0.7110  0.7247 -0.2681
 9038TIP3   OH251308   4.159   2.492  10.468  0.3708  0.3296  0.2987
 9038TIP3    H151309   4.198   2.579  10.455 -0.0626  0.2280 -2.1472
 9038TIP3    H251310   4.226   2.431  10.439 -0.1334 -0.0199 -0.1544
 9039TIP3   OH251311   6.138   5.409  12.260  0.1495 -0.2406 -0.1294
 9039TIP3    H151312   6.139   5.446  12.172  0.2651  1.5473  0.5793
 9039TIP3    H251313   6.049   5.425  12.292  0.5156  0.4348  0.5841
 9040TIP3   OH251314   3.114   0.831  10.802  0.1872 -0.6704 -0.0543
 9040TIP3    H151315   3.202   0.820  10.765  0.0511 -0.1114 -0.5511
 9040TIP3    H251316   3.089   0.920  10.780 -1.8016 -1.7542 -2.7338
 9041TIP3   OH251317   2.230   1.532  12.619  0.5158  0.2709 -0.6153
 9041TIP3    H151318   2.182   1.493  12.546  0.2635 -2.5195  0.8969
 9041TIP3    H251319   2.171   1.521  12.694  1.9956  0.2013  0.5774
 9042TIP3   OH251320   2.937   5.463  10.579  0.5608 -0.3073 -0.2138
 9042TIP3    H151321   2.951   5.556  10.559  1.0163 -0.1631  0.7371
 9042TIP3    H251322   3.016   5.436  10.625 -0.1240 -0.8323  0.6850
 9043TIP3   OH251323   4.038   4.212  11.636 -0.1733 -0.2604  1.1196
 9043TIP3    H151324   4.015   4.208  11.543  2.3426 -1.9566  0.4577
 9043TIP3    H251325   3.994   4.137  11.675 -1.4622  0.6136  1.4127
 9044TIP3   OH251326   1.716   6.578  12.113  0.3570  0.5813 -0.1547
 9044TIP3    H151327   1.759   6.635  12.050  3.0762  0.6177  1.5647
 9044TIP3    H251328   1.630   6.618  12.128 -0.7012  0.2018 -4.1772
 9045TIP3   OH251329   3.422   7.296  10.530 -0.1364  0.0525  0.0486
 9045TIP3    H151330   3.513   7.273  10.513 -0.2164 -1.4262  1.3937
 9045TIP3    H251331   3.373   7.254  10.459  0.2789  1.8177 -1.3465
 9046TIP3   OH251332   0.664   3.657  10.964 -0.0874  0.2704 -0.0659
 9046TIP3    H151333   0.724   3.600  11.011 -0.4051  0.0719  0.1008
 9046TIP3    H251334   0.585   3.604  10.950 -0.1770  0.4841 -0.3978
 9047TIP3   OH251335   7.126   1.767  10.607  0.0866  1.0906  0.0934
 9047TIP3    H151336   7.063   1.767  10.534 -0.8628 -1.0501  0.8368
 9047TIP3    H251337   7.081   1.812  10.678 -0.0022  0.9404  0.1339
 9048TIP3   OH251338   3.012   1.051  13.049  0.5608  0.7549  0.0018
 9048TIP3    H151339   2.973   1.136  13.072  1.8011  1.1576  0.7312
 9048TIP3    H251340   2.976   0.990  13.113  1.2253  1.1560  0.7782
 9049TIP3   OH251341   4.972   7.646  12.381 -0.7097  0.3461 -0.2779
 9049TIP3    H151342   4.961   7.684  12.294 -0.3375 -1.2480 -1.0680
 9049TIP3    H251343   5.010   7.560  12.365 -0.8986 -0.1080  1.4530
 9050TIP3   OH251344   6.519   0.320  11.627 -0.0411 -0.0206 -0.0099
 9050TIP3    H151345   6.444   0.349  11.678 -1.8930 -1.9389 -1.4484
 9050TIP3    H251346   6.561   0.254  11.682 -0.5702 -0.3284  0.0287
 9051TIP3   OH251347   2.025   3.799  12.756 -0.6481  0.5781  0.4012
 9051TIP3    H151348   2.110   3.829  12.786 -0.1748  2.1649 -2.1619
 9051TIP3    H251349   2.035   3.704  12.745  0.7143  0.7025  0.3929
 9052TIP3   OH251350   3.474   4.367  12.530 -0.2474  0.1643  0.7383
 9052TIP3    H151351   3.534   4.426  12.485  1.3400 -2.6156 -1.0826
 9052TIP3    H251352   3.455   4.410  12.613  1.4821  2.7705 -0.1216
 9053TIP3   OH251353   3.092   5.288  12.700  0.5183 -0.0413  0.5016
 9053TIP3    H151354   3.023   5.305  12.764 -0.2162  0.7176 -0.4562
 9053TIP3    H251355   3.052   5.309  12.615  2.3559  1.9652  0.0297
 9054TIP3   OH251356   0.573   3.807  11.274  0.5694 -0.3052 -0.2733
 9054TIP3    H151357   0.656   3.851  11.256 -0.3662  1.0307 -1.5011
 9054TIP3    H251358   0.567   3.805  11.369  0.2642  3.0846 -0.1100
 9055TIP3   OH251359   7.371   7.321  11.277  0.7701  0.0250  0.4446
 9055TIP3    H151360   7.381   7.381  11.350  0.2632  0.8069 -0.1066
 9055TIP3    H251361   7.327   7.373  11.209  1.5798 -0.5638 -0.5526
 9056TIP3   OH251362   0.004   2.072  10.902  0.2566  0.3499 -0.5548
 9056TIP3    H151363  -0.086   2.087  10.875 -0.4639 -0.8784  0.9837
 9056TIP3    H251364  -0.001   2.059  10.996  2.0226  0.1055 -0.4619
 9057TIP3   OH251365   2.419   2.270  11.956 -0.2826  0.3649  0.4719
 9057TIP3    H151366   2.457   2.249  11.871 -1.8174  2.9023 -0.9952
 9057TIP3    H251367   2.467   2.217  12.019  2.1325 -0.2822 -1.7783
 9058TIP3   OH251368   4.536   0.540  10.305  0.0058  0.2203 -0.5628
 9058TIP3    H151369   4.469   0.580  10.250 -0.3928  1.2477  0.6345
 9058TIP3    H251370   4.526   0.446  10.290 -0.1080  0.4618 -2.1957
 9059TIP3   OH251371   6.007   3.711  11.580  0.1457  0.1777 -0.0867
 9059TIP3    H151372   6.101   3.692  11.588  0.4138  1.2193 -0.5161
 9059TIP3    H251373   5.999   3.754  11.495 -0.6936  0.2921  0.0431
 9060TIP3   OH251374   3.010   0.282  11.194 -0.3789 -0.1310 -0.2768
 9060TIP3    H151375   3.073   0.241  11.253  0.4364 -0.5476 -1.4149
 9060TIP3    H251376   3.030   0.375  11.198  1.7612 -0.4385 -2.2306
 9061TIP3   OH251377   1.008   3.672  10.466  0.1368 -0.0325  0.2380
 9061TIP3    H151378   0.963   3.750  10.432 -0.1585 -1.1784 -2.1565
 9061TIP3    H251379   0.996   3.678  10.561 -1.4011  1.9137 -0.0079
 9062TIP3   OH251380   4.731   0.619  12.203  0.1833 -1.1284 -0.2469
 9062TIP3    H151381   4.671   0.646  12.133 -0.2255 -0.3406  0.3783
 9062TIP3    H251382   4.811   0.594  12.158 -0.2887 -1.2514 -1.0390
 9063TIP3   OH251383   0.443   7.542  10.731  0.3174  0.3950  0.3434
 9063TIP3    H151384   0.447   7.548  10.827 -0.2599 -1.4854  0.5299
 9063TIP3    H251385   0.370   7.483  10.714  1.1716 -0.2745 -1.2087
 9064TIP3   OH251386   1.680   6.530  12.655 -0.2000  0.3297 -0.1208
 9064TIP3    H151387   1.637   6.446  12.673 -0.7203  0.3969 -0.9793
 9064TIP3    H251388   1.673   6.579  12.737 -0.6790 -0.1283  0.1179
 9065TIP3   OH251389   0.291   3.112  11.733 -0.4058 -0.2719 -0.0851
 9065TIP3    H151390   0.234   3.188  11.749  0.8099  0.5931  0.3038
 9065TIP3    H251391   0.238   3.037  11.759 -0.7913  0.6316  1.9333
 9066TIP3   OH251392   0.183   2.650  10.269 -0.1275 -0.6323  0.6557
 9066TIP3    H151393   0.126   2.594  10.216  0.5095 -0.6032 -0.0692
 9066TIP3    H251394   0.129   2.675  10.344 -0.2986 -2.5613  1.2219
 9067TIP3   OH251395   6.780   4.404  11.627 -0.4794 -0.2926  0.1734
 9067TIP3    H151396   6.815   4.493  11.632 -0.4719 -0.3093  0.4063
 9067TIP3    H251397   6.714   4.401  11.696 -2.7810  0.5496 -1.8678
 9068TIP3   OH251398   0.813   7.120  12.268  0.3774  0.7093 -0.3435
 9068TIP3    H151399   0.796   7.208  12.235 -2.4509  0.8813  1.2780
 9068TIP3    H251400   0.727   7.084  12.287  1.5306 -1.8476  0.5016
 9069TIP3   OH251401   1.131   1.715  10.891 -0.5154 -1.0393 -0.5938
 9069TIP3    H151402   1.208   1.708  10.834 -0.2499  0.9037 -0.5445
 9069TIP3    H251403   1.067   1.763  10.839 -1.8034 -2.7609 -0.6878
 9070TIP3   OH251404   6.635   6.142  10.821 -0.4777 -0.4770  0.8226
 9070TIP3    H151405   6.621   6.228  10.859 -1.4195 -1.0981  1.9371
 9070TIP3    H251406   6.614   6.153  10.728  1.7354  1.0317  0.4124
 9071TIP3   OH251407   0.612   7.146  11.332 -0.5939  0.2443  0.2529
 9071TIP3    H151408   0.526   7.175  11.362 -0.4044  0.6977  0.3668
 9071TIP3    H251409   0.634   7.206  11.260  0.0787  0.7920  0.9061
 9072TIP3   OH251410   6.637   1.974  11.273  0.1580 -0.5125 -0.2072
 9072TIP3    H151411   6.614   2.042  11.211 -1.0533 -0.7585 -0.0368
 9072TIP3    H251412   6.568   1.909  11.265  2.6206 -3.1435 -2.3766
 9073TIP3   OH251413   0.018   5.688  10.523  0.3139  0.4938  0.1560
 9073TIP3    H151414  -0.023   5.677  10.609  0.0218  1.2078  0.1132
 9073TIP3    H251415  -0.024   5.765  10.485 -0.1017 -0.2427 -0.9518
 9074TIP3   OH251416   6.300   6.515  11.348  0.2128 -0.2495  0.2665
 9074TIP3    H151417   6.300   6.499  11.253 -0.0270 -0.1686  0.2518
 9074TIP3    H251418   6.342   6.438  11.385  0.0873 -0.3943  0.1119
 9075TIP3   OH251419   2.159   2.481  12.331  1.1923 -0.0891  0.0173
 9075TIP3    H151420   2.207   2.418  12.384 -0.1813 -1.3767 -0.2116
 9075TIP3    H251421   2.140   2.435  12.249  1.6189  1.2055 -0.8380
 9076TIP3   OH251422   5.575   2.804  10.718  0.4540 -0.1536 -0.5142
 9076TIP3    H151423   5.624   2.825  10.798 -1.2555 -0.9193  0.8239
 9076TIP3    H251424   5.594   2.712  10.701 -0.8116 -0.6025  0.3075
 9077TIP3   OH251425   0.003   2.923  10.087  0.3991  0.4457  0.3278
 9077TIP3    H151426  -0.013   3.003  10.038 -1.7541 -1.2378 -1.9878
 9077TIP3    H251427  -0.080   2.906  10.133  1.2424  0.1656  1.7968
 9078TIP3   OH251428   6.376   4.968  12.044  0.3604 -0.0096  0.1635
 9078TIP3    H151429   6.289   4.964  12.085  0.2971 -0.5631 -0.0122
 9078TIP3    H251430   6.381   4.889  11.990  1.8765 -1.2497  1.9829
 9079TIP3   OH251431   6.480   6.260  11.092 -0.4650  0.0428  0.1803
 9079TIP3    H151432   6.398   6.233  11.133 -0.9285  0.2725 -0.5866
 9079TIP3    H251433   6.491   6.351  11.117 -0.8791  0.2578 -0.4042
 9080TIP3   OH251434   0.670   1.639  10.743 -0.5175  0.5150  0.3716
 9080TIP3    H151435   0.579   1.627  10.768 -0.0808  0.5421  2.0741
 9080TIP3    H251436   0.720   1.591  10.809  0.7358  1.2512 -0.0023
 9081TIP3   OH251437   1.466   1.079  13.196 -0.1153  0.1914  0.0008
 9081TIP3    H151438   1.378   1.049  13.216  0.3369 -0.0032  1.8440
 9081TIP3    H251439   1.496   1.022  13.125 -1.9854  1.2523 -1.7640
 9082TIP3   OH251440   7.438   5.602  11.764 -0.5051 -0.5360 -0.7030
 9082TIP3    H151441   7.533   5.592  11.766 -0.3611  0.4840 -1.5301
 9082TIP3    H251442   7.413   5.607  11.856  0.2162 -0.9919 -0.4718
 9083TIP3   OH251443   5.221   6.985  12.298  0.0034 -0.2871  0.0547
 9083TIP3    H151444   5.259   6.897  12.304 -0.9601 -0.7173  0.0649
 9083TIP3    H251445   5.202   6.996  12.205  0.7483  0.1987 -0.0526
 9084TIP3   OH251446   3.557   1.574  11.795  0.3508  0.3241  0.6664
 9084TIP3    H151447   3.513   1.558  11.879 -0.7172  1.7120  0.4068
 9084TIP3    H251448   3.498   1.536  11.730 -1.4362  3.6291  0.1727
 9085TIP3   OH251449   0.359   1.349  11.026 -0.1672 -0.6257 -0.1817
 9085TIP3    H151450   0.281   1.402  11.043  0.4312  0.6343 -1.1788
 9085TIP3    H251451   0.426   1.385  11.083 -0.7732 -3.1048  2.3181
 9086TIP3   OH251452   4.478   4.611  10.985  0.3659 -0.2455 -0.5405
 9086TIP3    H151453   4.487   4.638  10.894 -0.5455 -0.4522 -0.7004
 9086TIP3    H251454   4.448   4.520  10.981  0.7130 -0.3916 -0.0257
 9087TIP3   OH251455   3.487   2.339  12.661  0.5581  0.3717  1.0314
 9087TIP3    H151456   3.490   2.284  12.739 -2.7115 -1.7455 -0.1276
 9087TIP3    H251457   3.496   2.277  12.588  1.2119  1.9961 -0.3406
 9088TIP3   OH251458   7.089   6.638  10.756  0.5903 -0.1867 -0.6216
 9088TIP3    H151459   7.175   6.624  10.716  2.3632  3.0594  1.6487
 9088TIP3    H251460   7.099   6.604  10.845  0.3630  2.1658  0.3632
 9089TIP3   OH251461   4.945   2.756  12.830 -0.0015  0.2937 -0.0851
 9089TIP3    H151462   4.850   2.754  12.844  0.2169  0.7381  1.7194
 9089TIP3    H251463   4.980   2.691  12.890  0.8827  0.4294 -0.4300
 9090TIP3   OH251464   2.369   4.325  11.960 -0.1088 -0.0258  0.1632
 9090TIP3    H151465   2.374   4.297  11.868  1.0476  0.7699 -0.0426
 9090TIP3    H251466   2.278   4.312  11.984 -0.4920 -0.0040 -1.1837
 9091TIP3   OH251467   3.866   0.011  11.943 -0.4238  0.4530 -0.4737
 9091TIP3    H151468   3.866  -0.067  11.887  0.6158  0.6206 -0.7248
 9091TIP3    H251469   3.895  -0.020  12.028 -3.1292 -0.0239  0.3449
 9092TIP3   OH251470   3.485   0.498  11.385  0.0175 -0.2611  0.2917
 9092TIP3    H151471   3.508   0.456  11.302 -1.5439 -0.2437 -0.1847
 9092TIP3    H251472   3.544   0.458  11.448 -1.7125 -3.7590 -0.0059
 9093TIP3   OH251473   0.676   5.794  12.527 -0.4552  0.1207 -0.0564
 9093TIP3    H151474   0.629   5.819  12.606 -1.9523  0.7674 -1.1146
 9093TIP3    H251475   0.760   5.762  12.559 -1.3364 -0.4544  1.8610
 9094TIP3   OH251476   6.655   6.175  11.320  0.5121  0.1521  0.5690
 9094TIP3    H151477   6.670   6.132  11.236  0.3874 -0.0139  0.6301
 9094TIP3    H251478   6.653   6.268  11.300  0.9596  0.1403  0.4618
 9095TIP3   OH251479   5.275   7.652  12.314 -0.6962 -0.0866  0.0174
 9095TIP3    H151480   5.285   7.594  12.389 -0.8334  0.8490  0.7885
 9095TIP3    H251481   5.348   7.630  12.257 -1.3583 -1.7550 -0.2428
 9096TIP3   OH251482   1.534   7.501  11.324  0.0326  0.4611  0.0958
 9096TIP3    H151483   1.599   7.444  11.283  0.7195  0.2092  1.4735
 9096TIP3    H251484   1.461   7.443  11.347  1.9264 -0.6860  4.2311
 9097TIP3   OH251485   2.335   1.863  13.215  0.6752 -0.3662  0.0304
 9097TIP3    H151486   2.360   1.834  13.127  0.5580 -0.3929  0.0063
 9097TIP3    H251487   2.331   1.783  13.267 -0.4692 -0.4920 -0.2330
 9098TIP3   OH251488   0.255   0.930  10.733 -0.0313  0.1072  0.3256
 9098TIP3    H151489   0.295   0.862  10.787 -1.4206 -1.5614 -0.6762
 9098TIP3    H251490   0.327   0.959  10.676  0.5532 -0.5617  0.6985
 9099TIP3   OH251491   0.270   3.619  10.327 -0.1512 -0.4272 -0.2471
 9099TIP3    H151492   0.261   3.708  10.295  0.6522 -0.2427  0.0106
 9099TIP3    H251493   0.223   3.619  10.411  1.1822  0.2011  0.5300
 9100TIP3   OH251494   0.968   4.798  11.703 -0.4109  0.3192  0.1646
 9100TIP3    H151495   1.040   4.802  11.641 -0.4089 -1.1785  0.0179
 9100TIP3    H251496   0.969   4.707  11.735 -1.7085  0.4915  0.7712
 9101TIP3   OH251497   0.074   7.034  12.157 -0.5016  0.4895 -0.0994
 9101TIP3    H151498   0.024   6.953  12.161  0.8125 -0.3651 -0.5881
 9101TIP3    H251499   0.011   7.099  12.125 -2.1301  0.1669  2.1612
 9102TIP3   OH251500   0.698   7.104  10.876 -0.2118 -0.5765  0.6634
 9102TIP3    H151501   0.771   7.072  10.929 -0.7505 -1.2581  0.9992
 9102TIP3    H251502   0.636   7.032  10.874 -0.2112 -0.5491 -0.8916
 9103TIP3   OH251503   3.438   1.500  10.710  0.2406  0.5731 -0.4163
 9103TIP3    H151504   3.389   1.513  10.629 -1.3869 -0.5856  0.3409
 9103TIP3    H251505   3.379   1.529  10.779  0.8172 -0.3675  0.4944
 9104TIP3   OH251506   3.269   0.230  13.212  0.4428 -0.0281 -0.5821
 9104TIP3    H151507   3.280   0.149  13.262 -0.3881  0.6762  0.8246
 9104TIP3    H251508   3.297   0.299  13.272 -2.4170  1.0138 -0.2948
 9105TIP3   OH251509   6.108   3.870  11.952  0.3366  0.2980 -0.2436
 9105TIP3    H151510   6.160   3.829  12.021  0.2920  0.6214 -0.0203
 9105TIP3    H251511   6.047   3.801  11.924  0.7931 -0.0415 -0.4149
 9106TIP3   OH251512   3.186   3.505  11.653  0.3791  0.9721 -0.3261
 9106TIP3    H151513   3.212   3.436  11.593  1.4922  1.4985 -0.4701
 9106TIP3    H251514   3.119   3.555  11.606 -1.1833 -0.5711  0.1580
 9107TIP3   OH251515   3.875   3.255  10.867 -0.7105 -0.2030  0.1493
 9107TIP3    H151516   3.938   3.211  10.810 -2.6459 -1.3171 -1.2394
 9107TIP3    H251517   3.887   3.348  10.848 -1.1337 -0.5244 -1.9576
 9108TIP3   OH251518   3.420   6.474  10.499  0.1240  0.0529 -0.0182
 9108TIP3    H151519   3.499   6.498  10.449 -0.2680  0.0302 -0.6596
 9108TIP3    H251520   3.404   6.383  10.474 -0.6026  0.3248 -0.5685
 9109TIP3   OH251521   6.946   5.247  12.214 -0.1467  0.5411  0.3017
 9109TIP3    H151522   6.922   5.155  12.204 -1.0407  0.9385 -1.8226
 9109TIP3    H251523   7.032   5.254  12.173  0.2360  0.5267  1.0958
 9110TIP3   OH251524   5.280   4.540  11.302 -0.3217 -0.5010 -0.1558
 9110TIP3    H151525   5.326   4.495  11.231  0.3852  0.0190 -0.0389
 9110TIP3    H251526   5.340   4.609  11.330 -1.1754  0.1950  0.0143
 9111TIP3   OH251527   3.952   1.911  10.592  0.0629  0.0715  0.6481
 9111TIP3    H151528   3.951   2.006  10.578  1.4621  0.1446  0.9230
 9111TIP3    H251529   3.900   1.876  10.520  0.4429  0.9763 -0.0836
 9112TIP3   OH251530   0.865   7.424  12.466 -0.4014  0.3867  1.0786
 9112TIP3    H151531   0.800   7.471  12.413  0.6756  3.4276  2.1930
 9112TIP3    H251532   0.948   7.467  12.446  0.8310 -1.5652  1.7266
 9113TIP3   OH251533   3.849   0.802  11.717  0.1241  0.0425 -0.0839
 9113TIP3    H151534   3.913   0.731  11.711 -0.5778 -0.6020  0.0390
 9113TIP3    H251535   3.833   0.827  11.626 -2.7354 -2.7894 -0.5458
 9114TIP3   OH251536   4.952   0.573  12.979 -0.0773 -0.0383 -0.1910
 9114TIP3    H151537   4.904   0.541  13.055 -1.4147  1.8031 -0.2026
 9114TIP3    H251538   4.897   0.642  12.942  2.6251  2.4060 -0.0815
 9115TIP3   OH251539   0.893   3.155  10.970 -0.2232 -0.2657  0.2571
 9115TIP3    H151540   0.899   3.061  10.951  0.9166 -0.6709  2.3521
 9115TIP3    H251541   0.984   3.183  10.982 -0.6203  0.8886  0.6992
 9116TIP3   OH251542   7.054   2.773  12.716  0.0899 -0.1300  0.0952
 9116TIP3    H151543   7.137   2.818  12.703  0.5224 -0.7578  0.6264
 9116TIP3    H251544   7.044   2.768  12.812  0.6781 -2.2461  0.0960
 9117TIP3   OH251545   2.674   1.792  11.153 -0.4110  0.4330  0.4231
 9117TIP3    H151546   2.609   1.843  11.105  0.7745  0.3322 -1.3915
 9117TIP3    H251547   2.749   1.851  11.162  0.1605 -0.2519  0.2591
 9118TIP3   OH251548   3.613   4.518  12.728 -0.1645 -0.3187  0.3570
 9118TIP3    H151549   3.529   4.512  12.774 -0.6065  1.4080 -0.1561
 9118TIP3    H251550   3.667   4.575  12.784  0.3789 -0.7250  0.2557
 9119TIP3   OH251551   6.302   4.529  12.486 -0.1081  0.2896  0.0539
 9119TIP3    H151552   6.239   4.467  12.448 -0.7489  2.2106 -2.2537
 9119TIP3    H251553   6.362   4.474  12.536 -0.7208 -2.1897 -1.7296
 9120TIP3   OH251554   0.226   6.094  11.486  0.6845 -0.0748 -0.5281
 9120TIP3    H151555   0.143   6.129  11.519 -0.3931 -1.9883 -1.0742
 9120TIP3    H251556   0.249   6.024  11.546  1.9106  0.3858 -0.4234
 9121TIP3   OH251557   5.306   1.486  10.996  0.0219 -0.1726 -0.9911
 9121TIP3    H151558   5.384   1.439  11.027 -0.5161  0.0705  0.7942
 9121TIP3    H251559   5.279   1.540  11.069 -2.1524 -0.6429 -1.3754
 9122TIP3   OH251560   1.254   0.058  10.487  0.2741  0.3737 -0.2396
 9122TIP3    H151561   1.182   0.089  10.542 -0.5852 -1.8819  0.0235
 9122TIP3    H251562   1.212   0.009  10.417  1.5155  0.0803 -0.8046
 9123TIP3   OH251563   6.376   1.521  12.107  0.3135  0.6040  0.2170
 9123TIP3    H151564   6.366   1.535  12.013  2.3223 -0.0738 -0.1340
 9123TIP3    H251565   6.290   1.490  12.136 -0.1537  0.2075 -1.4958
 9124TIP3   OH251566   5.584   5.614  11.580 -0.4616 -0.5415 -0.0580
 9124TIP3    H151567   5.490   5.614  11.558 -0.6717  0.0963  0.7710
 9124TIP3    H251568   5.626   5.652  11.503 -0.9349 -0.3702 -0.2393
 9125TIP3   OH251569   6.128   0.343  10.757  0.0673 -0.0747 -0.0023
 9125TIP3    H151570   6.141   0.375  10.668  1.5773  2.6950  1.1010
 9125TIP3    H251571   6.075   0.411  10.800  0.3208 -0.7832  1.5059
 9126TIP3   OH251572   1.357   4.031  12.133 -0.5083 -0.1690  0.3891
 9126TIP3    H151573   1.301   4.013  12.057 -1.2524  1.9196  0.3578
 9126TIP3    H251574   1.409   4.107  12.107  0.3352 -0.3670  1.4241
 9127TIP3   OH251575   3.098   6.830  11.956 -0.4507 -0.0091 -0.4168
 9127TIP3    H151576   3.016   6.851  12.001 -0.0935 -0.5025  0.4958
 9127TIP3    H251577   3.088   6.740  11.928  0.6073 -0.8792  1.7261
 9128TIP3   OH251578   0.528   6.547  11.915  0.2077 -0.4338 -0.1522
 9128TIP3    H151579   0.482   6.474  11.955 -1.4118  0.3564 -0.4950
 9128TIP3    H251580   0.573   6.508  11.840 -0.0609 -1.1945  0.0717
 9129TIP3   OH251581   1.829   4.563  11.366  0.0829  0.3215  0.0018
 9129TIP3    H151582   1.754   4.560  11.425 -1.4050 -1.5680 -1.8299
 9129TIP3    H251583   1.855   4.472  11.355  1.5885  0.8032 -0.7114
 9130TIP3   OH251584   1.011   2.099  12.901  0.3034 -0.4234 -0.1845
 9130TIP3    H151585   1.000   2.144  12.984 -1.2238  0.8875 -1.0361
 9130TIP3    H251586   1.054   2.016  12.923  1.8463  0.7931  1.6068
 9131TIP3   OH251587   2.306   2.675  10.263 -0.1325  0.1226  0.1009
 9131TIP3    H151588   2.337   2.590  10.294 -1.8821  0.1058  2.0499
 9131TIP3    H251589   2.217   2.657  10.231  0.6306  0.6703 -2.5393
 9132TIP3   OH251590   6.767   4.838  11.534  0.0919  0.0314  0.0997
 9132TIP3    H151591   6.766   4.757  11.483 -0.7172  0.0123  0.1266
 9132TIP3    H251592   6.771   4.808  11.625  1.0431  0.0539  0.0692
 9133TIP3   OH251593   1.186   0.124  12.153 -0.1642  0.6680  0.0725
 9133TIP3    H151594   1.150   0.211  12.138 -0.7882  0.6443  1.2623
 9133TIP3    H251595   1.272   0.141  12.192 -0.3945  0.7746  0.5532
 9134TIP3   OH251596   3.141   2.203  12.612  0.1714 -0.4324 -0.2336
 9134TIP3    H151597   3.186   2.189  12.695 -0.2613  3.2230  0.7605
 9134TIP3    H251598   3.082   2.128  12.605  0.6032 -1.1436  2.4703
 9135TIP3   OH251599   1.841   0.935  10.696  0.0755  0.3929 -0.5524
 9135TIP3    H151600   1.828   0.842  10.675  1.7149 -0.7399  2.8238
 9135TIP3    H251601   1.752   0.972  10.696 -1.0229 -2.0032  1.1947
 9136TIP3   OH251602   0.536   1.122  11.104  0.2075 -0.1734  0.3600
 9136TIP3    H151603   0.450   1.079  11.107 -0.9738  1.8685 -1.0278
 9136TIP3    H251604   0.522   1.198  11.046  2.2596  1.7637  2.2277
 9137TIP3   OH251605   2.464   1.402  11.229  0.1842 -0.2502 -0.2265
 9137TIP3    H151606   2.535   1.404  11.293  1.2883 -1.1411 -1.3827
 9137TIP3    H251607   2.492   1.462  11.160 -0.3979 -0.2816 -0.5028
 9138TIP3   OH251608   4.921   2.594  13.203 -0.8932 -0.7594  0.7556
 9138TIP3    H151609   4.868   2.617  13.280 -2.5633 -3.3829  0.4794
 9138TIP3    H251610   4.867   2.534  13.153  0.5733  0.0500 -2.0122
 9139TIP3   OH251611   6.089   4.544  11.790  0.0578  0.1050 -0.1379
 9139TIP3    H151612   6.051   4.630  11.808  1.4197  0.7162 -0.0831
 9139TIP3    H251613   6.166   4.539  11.847 -0.2157 -1.3189  0.1500
 9140TIP3   OH251614   5.177   3.748  12.331 -0.5119 -0.1133 -0.0858
 9140TIP3    H151615   5.211   3.683  12.269 -1.4334 -0.6274 -0.0735
 9140TIP3    H251616   5.090   3.715  12.354 -1.0536  1.1952 -0.1808
 9141TIP3   OH251617   5.451   3.709  12.424 -0.0637 -0.3947  0.4392
 9141TIP3    H151618   5.470   3.621  12.455 -0.8405 -1.2075 -1.3176
 9141TIP3    H251619   5.356   3.717  12.428 -0.2264 -0.6002 -1.7730
 9142TIP3   OH251620   2.860   5.050  12.223  0.3124  0.0721  0.2319
 9142TIP3    H151621   2.845   5.010  12.137 -0.3509  0.5522  0.1203
 9142TIP3    H251622   2.813   4.993  12.284  1.5522 -0.8032  0.4092
 9143TIP3   OH251623   7.171   5.460  12.449  1.1309  0.2897 -0.0138
 9143TIP3    H151624   7.085   5.428  12.421  1.4728  0.9547 -1.9729
 9143TIP3    H251625   7.151   5.523  12.518  0.3788 -2.9198  2.9382
 9144TIP3   OH251626   1.178   7.075  11.970 -1.0725 -0.1210 -0.2476
 9144TIP3    H151627   1.131   7.018  12.032 -1.5814 -0.0745 -0.5840
 9144TIP3    H251628   1.191   7.157  12.018 -0.1492 -0.5786  0.3146
 9145TIP3   OH251629   2.089   5.988  11.196 -0.3384 -0.2722 -0.4611
 9145TIP3    H151630   2.148   5.923  11.158 -1.4121 -0.7312 -1.3774
 9145TIP3    H251631   2.065   6.045  11.123 -1.1163 -0.1529 -0.1213
 9146TIP3   OH251632   3.402   0.260  10.751 -0.1496 -0.1921  0.4858
 9146TIP3    H151633   3.387   0.350  10.721  0.1847 -0.8323 -1.7352
 9146TIP3    H251634   3.497   0.253  10.759 -0.1097 -0.6241 -0.3031
 9147TIP3   OH251635   1.349   0.756  11.861 -0.2039  0.6965  0.0586
 9147TIP3    H151636   1.328   0.843  11.897  1.2164  1.4612 -0.8428
 9147TIP3    H251637   1.316   0.759  11.772 -0.8931 -0.0177  0.2859
 9148TIP3   OH251638   0.684   0.659  10.666 -0.2245  0.6764  0.3279
 9148TIP3    H151639   0.622   0.680  10.596  0.2006 -1.5496 -0.8179
 9148TIP3    H251640   0.767   0.647  10.621 -0.5361 -4.1338  0.4712
 9149TIP3   OH251641   7.600   3.845  11.524 -0.4360 -0.4442 -0.1510
 9149TIP3    H151642   7.515   3.890  11.524 -0.5725 -0.6371  1.2252
 9149TIP3    H251643   7.625   3.841  11.432 -1.8023 -0.1464 -0.5692
 9150TIP3   OH251644   6.765   7.305  11.378 -0.1875  0.5715 -0.0351
 9150TIP3    H151645   6.831   7.368  11.408  0.9111  0.6170 -2.3076
 9150TIP3    H251646   6.814   7.242  11.326 -1.7781 -0.1179 -0.7731
 9151TIP3   OH251647   1.089   0.685  12.068 -0.0995  0.3538  0.2531
 9151TIP3    H151648   1.012   0.686  12.011 -0.4156 -3.1162  0.4356
 9151TIP3    H251649   1.163   0.685  12.007 -0.3930 -1.0253 -0.1499
 9152TIP3   OH251650   1.194   2.954  12.126 -0.5991  0.0930 -0.0645
 9152TIP3    H151651   1.201   2.991  12.214 -1.5579  1.7389 -0.6432
 9152TIP3    H251652   1.100   2.947  12.111 -0.4411 -1.3484 -0.5152
 9153TIP3   OH251653   6.970   2.563  11.292 -0.1752  0.2426  0.8121
 9153TIP3    H151654   6.970   2.659  11.288 -0.5200  0.2191 -0.0047
 9153TIP3    H251655   6.878   2.539  11.290 -0.0739 -0.1304 -0.1286
 9154TIP3   OH251656   2.175   6.775  12.619  0.2478 -0.3091 -0.2628
 9154TIP3    H151657   2.192   6.688  12.657 -1.6424 -0.3824  0.5611
 9154TIP3    H251658   2.154   6.830  12.695 -1.3424  0.1254 -0.9742
 9155TIP3   OH251659   0.563   2.572  13.287 -0.1805 -0.2798  0.7223
 9155TIP3    H151660   0.584   2.479  13.284  1.4835  0.0706  0.4866
 9155TIP3    H251661   0.543   2.596  13.197 -2.5519 -0.7879  1.0670
 9156TIP3   OH251662   1.230   0.968  13.158  0.1946 -0.1640  0.0021
 9156TIP3    H151663   1.206   0.964  13.065 -0.0171  2.5531 -0.1411
 9156TIP3    H251664   1.255   0.878  13.180 -1.0619 -1.1779 -2.3111
 9157TIP3   OH251665   7.323   3.908  11.511 -0.2422  0.2348  0.0297
 9157TIP3    H151666   7.287   3.820  11.500 -2.6967  0.9836  1.3957
 9157TIP3    H251667   7.256   3.967  11.477  1.3116  1.6438 -0.7855
 9158TIP3   OH251668   4.615   3.978  12.314 -0.0187 -0.3017  0.4715
 9158TIP3    H151669   4.527   3.956  12.284  0.2448 -1.9892  0.8451
 9158TIP3    H251670   4.657   4.019  12.237  0.9451 -5.3072 -2.1039
 9159TIP3   OH251671   6.074   0.147  12.017  0.0267 -0.7578  0.3313
 9159TIP3    H151672   5.992   0.188  11.988  0.7551  0.2717 -0.3835
 9159TIP3    H251673   6.053   0.106  12.100 -1.4478 -1.3256 -0.2938
 9160TIP3   OH251674   1.907   1.052  12.580  0.0976 -0.2232 -0.6251
 9160TIP3    H151675   1.935   1.016  12.664 -0.0653 -1.5720 -1.1172
 9160TIP3    H251676   1.870   0.977  12.533  1.8424  0.0849 -2.6279
 9161TIP3   OH251677   6.644   3.816  10.674  0.2975  0.1585 -0.4404
 9161TIP3    H151678   6.705   3.835  10.745 -3.1218 -0.1564  2.9357
 9161TIP3    H251679   6.615   3.902  10.645 -0.0262  0.3179  0.3108
 9162TIP3   OH251680   0.553   2.244  10.708  0.5836 -0.0161  0.2342
 9162TIP3    H151681   0.511   2.325  10.681  1.2390  0.2725  0.0745
 9162TIP3    H251682   0.637   2.271  10.744 -0.1728 -0.3787  2.4948
 9163TIP3   OH251683   7.209   1.264  12.364  0.1541  0.3013  0.0731
 9163TIP3    H151684   7.258   1.286  12.285  1.2063 -0.4400  0.5013
 9163TIP3    H251685   7.229   1.171  12.380 -0.1650  0.3954  1.1126
 9164TIP3   OH251686   2.353   1.290  11.994 -0.2558 -0.0318  0.0005
 9164TIP3    H151687   2.404   1.274  12.074 -1.1481 -0.8311  0.4175
 9164TIP3    H251688   2.415   1.274  11.923 -0.0643 -1.6032  0.4886
 9165TIP3   OH251689   2.188   0.170  12.317 -0.6860  0.1067  0.4657
 9165TIP3    H151690   2.276   0.190  12.285 -1.2004  0.8658 -0.5336
 9165TIP3    H251691   2.184   0.208  12.405  0.1207 -0.3382  0.7064
 9166TIP3   OH251692   6.239   0.469  11.624 -0.5663  0.2768  0.2692
 9166TIP3    H151693   6.204   0.388  11.661  1.2915 -1.2137 -1.0227
 9166TIP3    H251694   6.179   0.491  11.553 -1.8841  0.8774  1.5383
 9167TIP3   OH251695   6.551   5.065  13.160  0.0630  0.1585  0.9728
 9167TIP3    H151696   6.469   5.103  13.130 -0.9787 -1.4119  1.6599
 9167TIP3    H251697   6.618   5.102  13.102 -1.4855 -0.6628 -1.5313
 9168TIP3   OH251698   0.369   0.735  12.139 -0.0166  0.0547 -0.3447
 9168TIP3    H151699   0.300   0.690  12.188 -0.4609  0.0301 -0.9782
 9168TIP3    H251700   0.325   0.810  12.099  0.1887 -0.2963 -1.2426
 9169TIP3   OH251701   4.441   6.530  12.520  0.0063 -0.0565 -0.6320
 9169TIP3    H151702   4.410   6.481  12.596  1.3300 -1.2221 -0.8143
 9169TIP3    H251703   4.440   6.466  12.449  1.5365  0.2336 -0.9309
 9170TIP3   OH251704   6.466   4.579  12.028  0.4535  0.0215  0.1734
 9170TIP3    H151705   6.540   4.534  11.988  0.4429  0.7649 -0.6966
 9170TIP3    H251706   6.394   4.515  12.023  1.1431 -0.9389  1.5713
 9171TIP3   OH251707   2.591   7.234  10.856 -0.5572  0.7523  0.2197
 9171TIP3    H151708   2.595   7.139  10.855 -2.1991  0.6008  2.0935
 9171TIP3    H251709   2.673   7.262  10.815 -0.7786 -1.4153 -1.9045
 9172TIP3   OH251710   7.352   7.490  11.536 -0.2604 -0.1745 -0.0253
 9172TIP3    H151711   7.270   7.529  11.568 -0.7950 -0.8300 -0.5553
 9172TIP3    H251712   7.412   7.498  11.610 -0.6239  0.8285  0.1838
 9173TIP3   OH251713   1.407   0.070  10.727 -0.2610 -0.1006  0.6375
 9173TIP3    H151714   1.371   0.039  10.644  0.9550  0.9082 -0.3057
 9173TIP3    H251715   1.462  -0.002  10.757 -0.2909 -0.2729  0.2920
 9174TIP3   OH251716   1.667   6.606  11.111 -0.0583 -0.0562  0.2051
 9174TIP3    H151717   1.671   6.687  11.060 -1.8181  0.8661  1.4012
 9174TIP3    H251718   1.576   6.578  11.102  1.1280 -3.7688 -2.8042
 9175TIP3   OH251719   2.599   5.788  12.050  0.0711 -0.0566  0.3543
 9175TIP3    H151720   2.579   5.876  12.081 -1.7952  0.0373 -0.9786
 9175TIP3    H251721   2.691   5.776  12.071  0.3523  2.1812  0.6450
 9176TIP3   OH251722   1.010   6.145  10.768  0.0051  0.4832 -0.2329
 9176TIP3    H151723   0.941   6.193  10.813 -1.7411 -1.1005 -1.0997
 9176TIP3    H251724   1.022   6.065  10.819 -0.0898 -0.0865 -1.0856
 9177TIP3   OH251725   4.837   4.131  12.529 -0.1490 -0.0877 -0.3371
 9177TIP3    H151726   4.849   4.039  12.555 -0.6077 -0.3740 -1.0956
 9177TIP3    H251727   4.882   4.138  12.445  2.3622  1.1291  1.0222
 9178TIP3   OH251728   3.425   1.516  10.220  0.3266 -0.0975  0.2685
 9178TIP3    H151729   3.378   1.435  10.203 -0.6675  0.9761 -2.6825
 9178TIP3    H251730   3.356   1.579  10.244  1.0912 -0.0787  2.6595
 9179TIP3   OH251731   4.650   0.048  12.203 -0.6265 -0.2453 -0.1129
 9179TIP3    H151732   4.602   0.124  12.170 -0.3994 -0.3062 -0.5950
 9179TIP3    H251733   4.742   0.068  12.183 -0.4776 -0.2769  0.5029
 9180TIP3   OH251734   2.796   2.181  11.309 -0.2672 -0.0993 -0.1479
 9180TIP3    H151735   2.760   2.168  11.221 -0.8794  1.3585 -0.1324
 9180TIP3    H251736   2.890   2.165  11.300 -0.5279 -1.5005 -0.7138
 9181TIP3   OH251737   6.779   5.963  11.647  0.1993 -0.6675 -0.2123
 9181TIP3    H151738   6.820   6.042  11.681 -1.4361 -0.7613  2.2105
 9181TIP3    H251739   6.807   5.959  11.555 -0.5200  3.3468 -0.7949
 9182TIP3   OH251740   7.429   2.021  10.536  0.2033 -0.0116  0.2318
 9182TIP3    H151741   7.439   2.056  10.624 -1.7423 -0.7493  0.7827
 9182TIP3    H251742   7.338   2.039  10.512  0.8941  0.9484 -2.0025
 9183TIP3   OH251743   3.869   0.976  11.943 -0.1460  0.7063  0.4198
 9183TIP3    H151744   3.811   0.954  12.016 -1.5561  2.9899  0.0726
 9183TIP3    H251745   3.841   0.917  11.872  0.4538 -0.7189  1.3257
 9184TIP3   OH251746   6.958   6.517  10.974  0.9523 -0.2282 -0.1465
 9184TIP3    H151747   7.045   6.544  11.006  1.4065 -0.3629 -1.2354
 9184TIP3    H251748   6.973   6.433  10.932  0.4252  0.0531 -0.9191
 9185TIP3   OH251749   3.280   3.949  12.269 -0.6763 -0.3098 -0.2591
 9185TIP3    H151750   3.275   3.900  12.351  0.4151 -1.2796 -0.7477
 9185TIP3    H251751   3.316   4.034  12.294  1.3456 -1.1959  0.0796
 9186TIP3   OH251752   2.334   1.904  10.762  0.0614  0.3186  0.1734
 9186TIP3    H151753   2.277   1.852  10.706 -0.9606 -1.3496  2.6239
 9186TIP3    H251754   2.275   1.960  10.813  0.5674 -0.9607  2.2853
 9187TIP3   OH251755   6.482   1.742  12.779  0.3590 -0.1124 -0.3728
 9187TIP3    H151756   6.567   1.781  12.798  1.1192 -1.6494 -0.5597
 9187TIP3    H251757   6.420   1.793  12.832  1.0836  2.2611 -1.6213
 9188TIP3   OH251758   1.701   5.433  11.765  0.1163 -0.7037  0.3051
 9188TIP3    H151759   1.731   5.485  11.839 -0.1695  1.6585 -1.1366
 9188TIP3    H251760   1.672   5.497  11.700 -1.9857 -2.7183 -0.9148
 9189TIP3   OH251761   4.636   0.417  11.084 -0.2086  0.2118  0.5826
 9189TIP3    H151762   4.559   0.450  11.038  0.2461  0.0985 -0.2778
 9189TIP3    H251763   4.638   0.324  11.065  0.5066  0.3301  0.0600
 9190TIP3   OH251764   6.800   3.589  11.528 -0.2800 -0.0299  0.1057
 9190TIP3    H151765   6.810   3.624  11.617  0.9414  1.2472 -0.4823
 9190TIP3    H251766   6.721   3.536  11.531 -0.6269  0.5276  1.7878
 9191TIP3   OH251767   0.461   6.310  12.059 -0.3648 -0.2452 -0.0863
 9191TIP3    H151768   0.384   6.348  12.101 -1.1656 -1.2948 -0.5498
 9191TIP3    H251769   0.462   6.219  12.090  2.3191  0.4314  2.1475
 9192TIP3   OH251770   0.059   6.408  12.350 -0.2430 -0.3897 -0.4018
 9192TIP3    H151771   0.087   6.332  12.401  0.3598  0.9253  1.3178
 9192TIP3    H251772  -0.029   6.385  12.319 -0.3044 -1.5394  0.5710
 9193TIP3   OH251773   7.655   5.177  12.237  0.4274  0.2668  0.1718
 9193TIP3    H151774   7.728   5.237  12.234  0.8191 -0.2071  0.0685
 9193TIP3    H251775   7.604   5.205  12.314 -0.6396  2.1188 -1.1346
 9194TIP3   OH251776   2.598   4.762  10.443 -0.5097  0.2208  0.0174
 9194TIP3    H151777   2.538   4.708  10.391  1.5621 -0.7122 -1.5677
 9194TIP3    H251778   2.563   4.850  10.436 -1.2296 -0.1498 -1.6190
 9195TIP3   OH251779   2.069   1.149  11.357  0.2561 -0.5192  0.0004
 9195TIP3    H151780   2.090   1.239  11.382 -0.5812  0.0948 -1.4067
 9195TIP3    H251781   1.986   1.130  11.403 -1.0146  0.4300 -1.7837
 9196TIP3   OH251782   7.532   5.096  10.331  0.7879  0.4518  0.0525
 9196TIP3    H151783   7.623   5.128  10.336  1.2796 -0.6400 -1.2973
 9196TIP3    H251784   7.520   5.073  10.239 -0.8572  0.5169  0.2250
 9197TIP3   OH251785   0.753   5.668  10.958 -0.1832  0.0525 -0.6059
 9197TIP3    H151786   0.687   5.712  10.906 -1.4329 -0.2187  0.6831
 9197TIP3    H251787   0.707   5.595  10.999  1.3429 -1.2098 -1.0342
 9198TIP3   OH251788   0.671   0.856  11.298  0.5417 -0.6608  0.2551
 9198TIP3    H151789   0.671   0.948  11.272 -1.1978 -1.0387 -1.2154
 9198TIP3    H251790   0.659   0.859  11.393  0.0562  0.6232  0.1771
 9199TIP3   OH251791   6.997   4.573  12.801 -0.0492  0.1830  0.1432
 9199TIP3    H151792   6.951   4.490  12.812  0.7763 -0.2398  0.4727
 9199TIP3    H251793   7.090   4.551  12.810  0.1176  1.3559  1.6327
 9200TIP3   OH251794   1.771   2.518  12.230  0.2178 -0.5370  0.4183
 9200TIP3    H151795   1.815   2.601  12.211 -1.8807  0.5633 -0.0400
 9200TIP3    H251796   1.797   2.497  12.319  1.4220  0.1781  0.2598
 9201TIP3   OH251797   3.218   5.571  10.739  0.9917 -0.8208  0.0122
 9201TIP3    H151798   3.147   5.529  10.788  0.1630 -1.1605 -1.4113
 9201TIP3    H251799   3.270   5.616  10.806  0.2346 -1.7114  1.2459
 9202TIP3   OH251800   4.308   7.493  10.969  0.2505 -0.5155  0.1919
 9202TIP3    H151801   4.287   7.586  10.976  3.2361  0.1908  1.4677
 9202TIP3    H251802   4.259   7.451  11.039  0.0946  0.3439  0.6021
 9203TIP3   OH251803   3.240   2.041  12.226 -0.1351 -0.2612 -0.5583
 9203TIP3    H151804   3.194   2.067  12.306 -1.2347 -3.1312 -0.1234
 9203TIP3    H251805   3.213   2.106  12.161 -1.7809  0.3391  0.6493
 9204TIP3   OH251806   2.474   4.270  11.402 -0.1339 -0.4867  0.2828
 9204TIP3    H151807   2.565   4.291  11.383  0.1290 -2.0759 -0.3199
 9204TIP3    H251808   2.425   4.314  11.332 -0.4290  4.3537  3.0293
 9205TIP3   OH251809   4.514   5.472  11.626 -0.1116 -0.1365 -0.4726
 9205TIP3    H151810   4.484   5.539  11.565  0.3318 -0.3393 -0.9177
 9205TIP3    H251811   4.607   5.464  11.609 -0.0625 -0.4930 -0.0550
 9206TIP3   OH251812   6.363   3.852  10.733  0.2907 -0.1598 -0.2115
 9206TIP3    H151813   6.456   3.848  10.712  0.3885 -0.5511  0.2627
 9206TIP3    H251814   6.320   3.805  10.662  0.1431  2.5350 -2.0673
 9207TIP3   OH251815   4.129   6.047  11.931 -0.3114  0.0921  0.2848
 9207TIP3    H151816   4.038   6.072  11.950 -0.3668  0.0596  0.0664
 9207TIP3    H251817   4.152   5.986  12.001  0.0798  1.3302  1.2860
 9208TIP3   OH251818   0.116   2.979  11.277  0.1597 -0.4864  0.8136
 9208TIP3    H151819   0.102   3.073  11.289  1.4489 -0.1346 -0.1212
 9208TIP3    H251820   0.104   2.966  11.183  4.5050 -0.2967  0.0301
 9209TIP3   OH251821   0.385   6.177  12.876  0.1910 -0.8579  0.2968
 9209TIP3    H151822   0.303   6.147  12.835  1.6414 -3.3804 -0.9966
 9209TIP3    H251823   0.388   6.131  12.959 -0.4279  0.5473  1.1467
 9210TIP3   OH251824   4.099   5.421  11.069 -0.8708  0.8294  0.5619
 9210TIP3    H151825   4.115   5.512  11.092  0.0630  1.1085 -1.0735
 9210TIP3    H251826   4.160   5.403  10.997 -0.2431 -1.4063  1.5510
 9211TIP3   OH251827   0.056   5.096  10.779 -0.5458  0.6491  0.4780
 9211TIP3    H151828   0.129   5.065  10.726  1.2848 -1.4629  3.8935
 9211TIP3    H251829  -0.017   5.038  10.756 -0.4370  1.0518 -1.0216
 9212TIP3   OH251830   7.002   3.108  13.242  0.5222 -0.0977  0.1357
 9212TIP3    H151831   6.996   3.077  13.332 -0.2645  0.1838  0.1835
 9212TIP3    H251832   7.053   3.189  13.248  0.6829 -0.2110  0.2955
 9213TIP3   OH251833   7.122   3.848  11.216  0.1225  0.2518  0.5757
 9213TIP3    H151834   7.028   3.837  11.228 -0.4283 -0.0194 -2.9329
 9213TIP3    H251835   7.136   3.943  11.222 -0.4790  0.3511  0.4837
 9214TIP3   OH251836   6.166   3.161  11.283  0.1919  0.8381  0.6705
 9214TIP3    H151837   6.233   3.214  11.240 -0.3783  0.3225 -0.9309
 9214TIP3    H251838   6.083   3.195  11.249 -0.2811  0.2864  1.2409
 9215TIP3   OH251839   5.509   3.329  11.367  0.3877 -0.0026  0.0935
 9215TIP3    H151840   5.518   3.419  11.396  0.0325  0.6948 -1.8204
 9215TIP3    H251841   5.578   3.282  11.414  0.6277  1.2664  1.0615
 9216TIP3   OH251842   1.049   6.681  13.322  0.2761 -0.5681  0.6328
 9216TIP3    H151843   0.962   6.695  13.359 -0.7782  0.1111 -1.8451
 9216TIP3    H251844   1.090   6.768  13.322  0.6244 -0.7278  1.0051
 9217TIP3   OH251845   5.182   2.063  11.885  0.3458 -0.2852 -0.2765
 9217TIP3    H151846   5.101   2.112  11.872  1.2580  1.5554  0.6433
 9217TIP3    H251847   5.233   2.082  11.806  0.5803  0.0096 -0.0552
 9218TIP3   OH251848   4.947   0.946  10.877  0.1148  0.4303 -0.6916
 9218TIP3    H151849   5.004   0.894  10.820  0.5380 -1.0915  1.0600
 9218TIP3    H251850   5.007   1.000  10.928 -0.1151 -0.0175  0.0527
 9219TIP3   OH251851   2.847   5.328  11.399  0.5153  0.2708 -0.2495
 9219TIP3    H151852   2.819   5.271  11.470 -0.3543  2.2962  1.1159
 9219TIP3    H251853   2.929   5.289  11.367  1.6993  0.0324  2.7919
 9220TIP3   OH251854   1.493   4.871  12.251 -0.0103  0.1428 -0.6363
 9220TIP3    H151855   1.498   4.864  12.346 -1.4199  0.1848 -0.5281
 9220TIP3    H251856   1.580   4.848  12.220  0.3500 -0.2912  0.6382
 9221TIP3   OH251857   5.094   1.808  11.748  0.1997 -0.1080 -0.5526
 9221TIP3    H151858   5.147   1.765  11.681 -0.3793  0.9137 -1.7084
 9221TIP3    H251859   5.144   1.885  11.773  0.8946 -0.9894  0.9942
 9222TIP3   OH251860   0.718   2.673  11.234  0.0724 -0.5336  0.1583
 9222TIP3    H151861   0.769   2.742  11.277 -1.7809  0.0130  1.6291
 9222TIP3    H251862   0.776   2.640  11.165  1.7210  1.2129  0.6036
 9223TIP3   OH251863   0.633   4.916  10.730  0.5528  0.6429 -0.3508
 9223TIP3    H151864   0.592   4.857  10.666 -0.1249  2.6912 -1.9202
 9223TIP3    H251865   0.696   4.861  10.776 -1.1106 -1.6532 -0.6444
 9224TIP3   OH251866   2.712   4.385  12.130 -0.6587 -0.1270  0.1366
 9224TIP3    H151867   2.625   4.400  12.167 -1.6184 -3.7066 -0.3113
 9224TIP3    H251868   2.738   4.298  12.162  1.9724  0.0435 -1.2012
 9225TIP3   OH251869   0.322   1.506  11.376  0.7691  0.0208  0.3554
 9225TIP3    H151870   0.266   1.432  11.351  0.4656 -0.2402  1.7353
 9225TIP3    H251871   0.261   1.578  11.393  0.6345 -0.6564  3.2676
 9226TIP3   OH251872   5.491   0.049  11.416  0.0049  0.4871  0.1229
 9226TIP3    H151873   5.411   0.053  11.363 -1.1916  0.3843  1.8446
 9226TIP3    H251874   5.513  -0.044  11.419  0.1908  0.5116 -0.3258
 9227TIP3   OH251875   3.686   1.508  11.278  0.0610  0.1134  0.1740
 9227TIP3    H151876   3.598   1.483  11.250  0.8640  0.2283 -2.7536
 9227TIP3    H251877   3.738   1.428  11.271  0.8672  0.7299 -1.3358
 9228TIP3   OH251878   5.708   1.819  11.461 -0.3215  0.4444 -0.2294
 9228TIP3    H151879   5.696   1.748  11.525  0.8373 -0.4247 -0.9343
 9228TIP3    H251880   5.657   1.792  11.385 -0.9329  1.0191 -0.0342
 9229TIP3   OH251881   0.729   4.260  10.887 -0.4815  0.0434 -0.0131
 9229TIP3    H151882   0.779   4.191  10.931  0.3933  0.4423 -0.3594
 9229TIP3    H251883   0.664   4.288  10.951 -0.7002 -0.9327  0.2154
 9230TIP3   OH251884   0.419   4.762  12.325  0.3822  0.1748 -0.2047
 9230TIP3    H151885   0.342   4.817  12.311  0.2100 -0.0932 -0.3197
 9230TIP3    H251886   0.439   4.772  12.418  0.4415  0.5471 -0.2548
 9231TIP3   OH251887   7.442   2.156  10.801  0.4343 -0.1590  0.0955
 9231TIP3    H151888   7.400   2.205  10.872 -2.0850 -0.9722 -0.7129
 9231TIP3    H251889   7.478   2.224  10.744 -2.6683  0.9426 -0.8055
 9232TIP3   OH251890   5.983   0.940  11.120  0.3006 -0.4683  0.0584
 9232TIP3    H151891   6.078   0.949  11.122  0.3824 -0.9997 -0.9149
 9232TIP3    H251892   5.956   0.986  11.040 -0.2595 -0.3275  0.3239
 9233TIP3   OH251893   6.776   0.364  11.508 -0.7821  0.1321 -0.3317
 9233TIP3    H151894   6.684   0.349  11.529 -2.4258  2.8069 -4.3595
 9233TIP3    H251895   6.796   0.299  11.441  0.7049 -1.0588  1.1785
 9234TIP3   OH251896   7.124   1.152  12.835 -0.3167  0.0228 -0.5064
 9234TIP3    H151897   7.076   1.097  12.898 -0.8145 -0.2066 -1.0764
 9234TIP3    H251898   7.172   1.090  12.781  0.4378  0.2410 -0.1064
 9235TIP3   OH251899   0.663   6.772  12.478  0.2222  0.2159  1.1389
 9235TIP3    H151900   0.731   6.732  12.533 -0.2226 -0.3154  1.3031
 9235TIP3    H251901   0.641   6.705  12.414 -1.7758 -0.5074  2.4855
 9236TIP3   OH251902   0.078   0.787  11.087 -0.1600  0.9718 -0.2037
 9236TIP3    H151903  -0.001   0.785  11.034 -0.4126  0.7403  0.1784
 9236TIP3    H251904   0.047   0.787  11.177  0.2773 -0.7796 -0.0125
 9237TIP3   OH251905   4.219   5.153  11.150  0.5221 -0.2008  0.1160
 9237TIP3    H151906   4.249   5.073  11.192 -0.8484 -0.5785  0.4050
 9237TIP3    H251907   4.254   5.223  11.204 -1.3425 -0.6676  2.0493
 9238TIP3   OH251908   4.140   4.983  10.594  0.3063 -0.2930  0.9343
 9238TIP3    H151909   4.095   4.955  10.514 -0.5533  0.4311  1.1499
 9238TIP3    H251910   4.090   4.943  10.665  0.1881  0.2420  1.1612
 9239TIP3   OH251911   4.210   6.980  11.644  0.1886  0.4483 -0.2190
 9239TIP3    H151912   4.279   7.046  11.635  0.5461  0.1129  0.0116
 9239TIP3    H251913   4.136   7.015  11.595  0.1248  1.3631  0.5204
 9240TIP3   OH251914   7.101   1.757  11.064 -0.7472  0.2032  0.4753
 9240TIP3    H151915   7.073   1.740  10.974 -2.2323 -2.4738  1.3345
 9240TIP3    H251916   7.027   1.800  11.105 -1.5772 -1.8453  1.2806
 9241TIP3   OH251917   2.471   3.195  10.912 -0.0683  0.0826 -0.6866
 9241TIP3    H151918   2.460   3.145  10.831 -0.2352 -0.9427 -0.0612
 9241TIP3    H251919   2.395   3.171  10.965  0.0443  0.7318 -0.2215
 9242TIP3   OH251920   7.626   3.630  11.298 -0.2201  0.7148  0.5760
 9242TIP3    H151921   7.664   3.710  11.263 -1.1777  1.6854  1.6381
 9242TIP3    H251922   7.700   3.572  11.312  0.4274  1.1976 -0.7408
 9243TIP3   OH251923   3.204   5.628  10.461 -0.4472 -0.9498  0.2756
 9243TIP3    H151924   3.215   5.606  10.554 -2.2331 -1.9830  0.3048
 9243TIP3    H251925   3.259   5.565  10.415  0.8486 -0.1084  0.6080
 9244TIP3   OH251926   3.626   3.359  10.934 -0.1055  0.0589 -0.0485
 9244TIP3    H151927   3.716   3.350  10.902  0.0014  1.3740 -0.1814
 9244TIP3    H251928   3.605   3.451  10.920 -1.2706 -0.1008  0.5323
 9245TIP3   OH251929   4.924   3.068  11.318  0.2766 -0.5201  0.0949
 9245TIP3    H151930   4.918   3.075  11.222  0.7388  0.5098  0.1323
 9245TIP3    H251931   4.902   3.156  11.350  1.6249 -0.4426  0.8582
 9246TIP3   OH251932   6.192   5.336  10.885 -0.3072  0.1621 -0.3445
 9246TIP3    H151933   6.238   5.416  10.909  0.1013  0.6025 -2.4185
 9246TIP3    H251934   6.165   5.349  10.795 -1.3823 -1.5396 -0.3305
 9247TIP3   OH251935   7.200   4.741  11.749 -0.5294 -0.0197  0.0804
 9247TIP3    H151936   7.232   4.828  11.770 -1.5226  0.5478 -0.6352
 9247TIP3    H251937   7.268   4.703  11.693 -0.1351  0.3305  0.3223
 9248TIP3   OH251938   1.161   6.860  10.406 -0.0689 -0.0441  0.1281
 9248TIP3    H151939   1.129   6.924  10.470  0.2257 -0.8780  1.1482
 9248TIP3    H251940   1.085   6.841  10.351 -0.3486  0.6376  0.2648
 9249TIP3   OH251941   0.715   3.091  12.681 -0.5577 -0.5583 -0.5600
 9249TIP3    H151942   0.709   3.046  12.597 -2.3724 -0.5611 -0.4659
 9249TIP3    H251943   0.626   3.088  12.716  0.3161 -1.3682  1.7883
 9250TIP3   OH251944   0.753   2.216  12.002  0.1609 -0.1511  0.0563
 9250TIP3    H151945   0.729   2.302  12.037 -0.0231  0.4612 -1.4944
 9250TIP3    H251946   0.703   2.208  11.921 -1.2255 -2.5053  1.0129
 9251TIP3   OH251947   7.157   3.914  12.298 -0.4985  0.2790 -0.0779
 9251TIP3    H151948   7.196   3.975  12.235  0.2414 -1.4562 -1.3613
 9251TIP3    H251949   7.214   3.920  12.375 -0.1112  0.7910 -0.3994
 9252TIP3   OH251950   5.340   5.204  11.143  0.0032 -0.0355 -0.0421
 9252TIP3    H151951   5.353   5.298  11.126 -2.1330  0.5733  1.2762
 9252TIP3    H251952   5.421   5.176  11.186 -0.1989  1.7858  1.6514
 9253TIP3   OH251953   2.491   1.781  12.232  0.1216  0.3066  0.2962
 9253TIP3    H151954   2.586   1.772  12.233  0.2578  1.0361 -1.4837
 9253TIP3    H251955   2.471   1.836  12.308  1.1662  0.4797  0.4603
 9254TIP3   OH251956   1.623   0.777  11.225 -0.4013  0.4017  0.3701
 9254TIP3    H151957   1.652   0.712  11.161 -0.0829  0.6593  0.2490
 9254TIP3    H251958   1.649   0.741  11.310 -1.2716 -0.1782  0.3992
 9255TIP3   OH251959   3.834   0.550  10.940  0.0392  1.0733 -0.4761
 9255TIP3    H151960   3.824   0.622  11.003  2.0418 -0.1043  1.3176
 9255TIP3    H251961   3.887   0.485  10.986  0.3505 -0.5112 -2.9014
 9256TIP3   OH251962   0.972   1.029  12.683 -0.4035 -0.0383 -0.1543
 9256TIP3    H151963   0.954   1.093  12.614  0.6473  1.8309  1.2221
 9256TIP3    H251964   1.029   1.075  12.744  0.2199 -2.2544  1.0246
 9257TIP3   OH251965   5.534   6.219  12.515  0.0560  0.5052 -0.4773
 9257TIP3    H151966   5.607   6.280  12.507  0.0349  0.6118  0.1472
 9257TIP3    H251967   5.484   6.251  12.590  0.6168 -0.8653  0.5172
 9258TIP3   OH251968   2.661   7.028  11.892 -0.2683 -0.0258 -0.6214
 9258TIP3    H151969   2.566   7.032  11.888 -0.2486  0.1378 -0.9722
 9258TIP3    H251970   2.689   7.120  11.896 -0.1866 -0.1038  1.1787
 9259TIP3   OH251971   1.979   4.112  13.020 -0.2246 -0.0458 -0.1861
 9259TIP3    H151972   1.936   4.049  12.962  1.1781 -1.5673  0.3539
 9259TIP3    H251973   1.910   4.175  13.043 -1.2501 -0.4012 -2.0701
 9260TIP3   OH251974   5.405   6.510  12.374 -0.2274 -0.3770 -0.1616
 9260TIP3    H151975   5.476   6.547  12.322 -0.2255 -1.3905 -0.9039
 9260TIP3    H251976   5.442   6.501  12.462  0.5064 -0.6999 -0.4902
 9261TIP3   OH251977   3.041   2.744  12.505  0.5175 -0.1119 -0.1582
 9261TIP3    H151978   2.981   2.811  12.473 -0.6640 -0.5501  1.0527
 9261TIP3    H251979   3.003   2.661  12.475  1.3072 -0.3197 -0.6036
 9262TIP3   OH251980   3.701   6.692  12.019  0.2628 -0.1754  0.3616
 9262TIP3    H151981   3.620   6.676  12.068 -0.0404  0.0232 -0.0670
 9262TIP3    H251982   3.731   6.777  12.052  0.8006 -0.6815  1.1922
 9263TIP3   OH251983   0.132   4.360  11.802  0.1779 -0.3643 -0.4046
 9263TIP3    H151984   0.180   4.296  11.854  1.5091 -1.2576 -2.6208
 9263TIP3    H251985   0.082   4.308  11.739  0.1465  0.7306 -1.3216
 9264TIP3   OH251986   4.222   7.364  12.834 -0.4967  0.2236  0.3025
 9264TIP3    H151987   4.299   7.374  12.890  1.0344  0.8288 -1.8234
 9264TIP3    H251988   4.205   7.270  12.835 -0.9734  0.2770  2.3092
 9265TIP3   OH251989   1.006   1.530  13.260 -0.2300 -0.4106 -0.1260
 9265TIP3    H151990   1.012   1.476  13.181 -1.5222 -0.6437 -0.0886
 9265TIP3    H251991   1.087   1.512  13.308 -0.7679 -2.5894  0.0412
 9266TIP3   OH251992   2.179   7.072  11.297 -0.2334  0.1058 -0.0355
 9266TIP3    H151993   2.129   6.991  11.304  0.2374 -0.2875 -1.0167
 9266TIP3    H251994   2.246   7.053  11.231 -0.4703  1.4692 -0.7033
 9267TIP3   OH251995   1.383   2.675  10.786 -0.0863  0.6332  0.3103
 9267TIP3    H151996   1.349   2.644  10.870 -0.9439  1.7166  0.3884
 9267TIP3    H251997   1.356   2.767  10.782  0.3124  0.7124 -0.9593
 9268TIP3   OH251998   7.063   0.623  10.659  0.5768  0.4997  0.0513
 9268TIP3    H151999   7.128   0.688  10.683  0.2552  0.2292  1.8347
 9268TIP3    H252000   6.985   0.647  10.710  0.7450 -1.7695  1.5272
 9269TIP3   OH252001   4.342   6.812  11.815 -0.2519 -0.2276 -0.8449
 9269TIP3    H152002   4.320   6.892  11.766 -2.7086 -0.3757 -0.1241
 9269TIP3    H252003   4.265   6.756  11.806 -0.2330 -0.8487  1.9530
 9270TIP3   OH252004   5.174   3.346  12.062 -0.5595 -0.3259 -0.1183
 9270TIP3    H152005   5.081   3.358  12.044 -0.2802  1.7389 -0.4822
 9270TIP3    H252006   5.218   3.376  11.983  0.4741  1.8779  1.1845
 9271TIP3   OH252007   1.827   1.471  11.685  0.0449  0.0273 -0.1469
 9271TIP3    H152008   1.807   1.547  11.739  0.2134 -0.9171  1.3282
 9271TIP3    H252009   1.891   1.501  11.621  0.6859  0.9499  0.9007
 9272TIP3   OH252010   6.100   0.482  12.864 -0.4987  0.1086  0.0259
 9272TIP3    H152011   6.036   0.411  12.871  0.0787 -0.5419 -1.0376
 9272TIP3    H252012   6.046   0.561  12.858 -1.2127 -0.4151 -0.7722
 9273TIP3   OH252013   5.822   4.451  11.486 -0.0389 -0.2995  0.3691
 9273TIP3    H152014   5.830   4.423  11.577 -1.1579 -0.2641  0.4948
 9273TIP3    H252015   5.872   4.533  11.482 -1.1468  0.4600  1.3287
 9274TIP3   OH252016   6.095   6.526  11.599 -0.0147 -0.3824 -0.0803
 9274TIP3    H152017   6.031   6.597  11.602  0.8257  0.3725  0.5040
 9274TIP3    H252018   6.100   6.502  11.506 -0.5660  0.0878 -0.2355
 9275TIP3   OH252019   1.096   7.609  10.308 -0.5436  0.3843 -0.0020
 9275TIP3    H152020   1.087   7.554  10.385  2.4094 -0.8368 -0.3936
 9275TIP3    H252021   1.055   7.559  10.237  3.5499 -2.4182 -0.7181
 9276TIP3   OH252022   5.205   1.920  12.112 -0.1172 -0.0491 -0.2454
 9276TIP3    H152023   5.113   1.896  12.117 -0.3432  0.3107 -1.9813
 9276TIP3    H252024   5.216   1.953  12.023  1.6656  0.0309 -0.0279
 9277TIP3   OH252025   0.254   2.810  12.304  0.5541  0.0739 -0.2679
 9277TIP3    H152026   0.303   2.732  12.329  0.2719 -0.1173 -0.3080
 9277TIP3    H252027   0.318   2.882  12.311  1.1209 -0.3139 -1.3346
 9278TIP3   OH252028   2.893   4.871  11.616 -0.1989  0.2085 -0.0808
 9278TIP3    H152029   2.806   4.831  11.617  0.0675 -0.3689  0.4191
 9278TIP3    H252030   2.937   4.830  11.542 -0.8845  1.6976 -1.3721
 9279TIP3   OH252031   1.988   4.412  11.745 -0.1257  0.4230  0.0321
 9279TIP3    H152032   1.900   4.424  11.781 -0.7805  1.3537 -1.7463
 9279TIP3    H252033   2.041   4.480  11.788  0.1537 -1.0744  2.2205
 9280TIP3   OH252034   0.944   7.347  11.958  0.5176 -0.3051 -0.6410
 9280TIP3    H152035   0.889   7.277  11.923 -0.1634 -0.5117  0.7791
 9280TIP3    H252036   0.920   7.424  11.907  0.5851 -0.8831 -1.5746
 9281TIP3   OH252037   5.611   3.003  11.433  0.5561  0.1585  0.4636
 9281TIP3    H152038   5.669   3.072  11.466 -1.1776  1.9267 -0.0107
 9281TIP3    H252039   5.652   2.975  11.351  1.0772  0.9010  0.4596
 9282TIP3   OH252040   5.739   4.275  11.956 -0.6409 -0.2378  0.5788
 9282TIP3    H152041   5.810   4.212  11.952  0.0380  0.5506 -0.3234
 9282TIP3    H252042   5.726   4.291  12.049  0.5758 -0.1678  0.7512
 9283TIP3   OH252043   2.714   1.908  11.849  0.3085 -0.1859  0.5745
 9283TIP3    H152044   2.626   1.906  11.813 -0.0551  1.7078  1.2346
 9283TIP3    H252045   2.726   1.998  11.879  1.5742 -0.9723  2.6842
 9284TIP3   OH252046   3.738   7.056  11.343 -0.5256 -0.0180  0.1478
 9284TIP3    H152047   3.719   7.091  11.256  1.7407  2.5053  0.5513
 9284TIP3    H252048   3.766   6.966  11.327 -0.4760  0.2832 -1.6983
 9285TIP3   OH252049   1.752   6.857  10.749  0.6274  1.1281  0.2906
 9285TIP3    H152050   1.780   6.948  10.759 -0.0636  1.2890  0.7623
 9285TIP3    H252051   1.696   6.840  10.824  0.0734  0.5681 -0.2351
 9286TIP3   OH252052   3.714   7.160  10.453 -0.0377 -0.0026  0.5941
 9286TIP3    H152053   3.756   7.223  10.394 -1.2069 -0.9772 -1.3543
 9286TIP3    H252054   3.749   7.075  10.427 -1.5608 -0.5928  0.3669
 9287TIP3   OH252055   3.596   1.208  11.713 -0.3529  0.3789 -0.1193
 9287TIP3    H152056   3.590   1.265  11.636 -0.7604  1.0185  0.3718
 9287TIP3    H252057   3.527   1.240  11.771 -0.2587 -0.3075  0.3778
 9288TIP3   OH252058   2.416   3.876  11.790 -0.2218 -0.2170  0.0217
 9288TIP3    H152059   2.466   3.950  11.757 -0.3982 -0.0117  0.2084
 9288TIP3    H252060   2.478   3.827  11.844 -0.0572 -0.3058 -0.2470
 9289TIP3   OH252061   2.006   5.287  11.104  0.3616 -0.1918  0.4869
 9289TIP3    H152062   2.101   5.282  11.106  0.3878  0.0889  2.7961
 9289TIP3    H252063   1.986   5.373  11.142 -0.8183  0.1296 -0.7827
 9290TIP3   OH252064   7.463   2.474  11.675  0.0108 -0.3677  0.1023
 9290TIP3    H152065   7.530   2.451  11.739 -1.4610  0.2088  1.9355
 9290TIP3    H252066   7.502   2.545  11.624  1.4443 -1.2606 -0.0947
 9291TIP3   OH252067   0.351   2.960  10.983  0.1570  0.0174 -0.1614
 9291TIP3    H152068   0.407   2.909  10.925  1.7255 -0.1284  1.4068
 9291TIP3    H252069   0.378   2.935  11.071 -0.0516  2.4330  0.6596
 9292TIP3   OH252070   2.476   2.810  11.889  0.0451  0.1439  0.6258
 9292TIP3    H152071   2.520   2.854  11.962 -1.5939  1.2001  1.0267
 9292TIP3    H252072   2.383   2.818  11.909 -0.3746 -1.7791 -0.3323
 9293TIP3   OH252073   3.681   3.436  11.466  0.7627 -0.2227  0.2367
 9293TIP3    H152074   3.619   3.472  11.403 -1.2183 -0.7154  1.7848
 9293TIP3    H252075   3.655   3.344  11.475  2.2694 -0.6642  0.3385
 9294TIP3   OH252076   2.328   0.050  10.307 -0.4149 -0.0119 -0.3850
 9294TIP3    H152077   2.398   0.079  10.249  0.0690  0.4084  0.3905
 9294TIP3    H252078   2.370   0.038  10.392 -1.1537 -0.3985 -0.0556
 9295TIP3   OH252079   1.578   7.564  10.836 -0.2778 -0.0378  0.1327
 9295TIP3    H152080   1.497   7.514  10.848  0.0786 -0.8848 -0.8649
 9295TIP3    H252081   1.601   7.595  10.924  1.5994 -4.8825  1.6411
 9296TIP3   OH252082   6.859   5.140  10.892  0.0083  0.1534 -0.4012
 9296TIP3    H152083   6.867   5.046  10.883 -1.9803 -0.2250  1.0382
 9296TIP3    H252084   6.940   5.167  10.936  0.0444 -1.1042  0.3477
 9297TIP3   OH252085   2.869   1.828  11.476 -0.0178  0.2980 -0.0065
 9297TIP3    H152086   2.849   1.761  11.412  1.0671  1.5237 -1.7190
 9297TIP3    H252087   2.960   1.854  11.456  0.1332  1.1580  1.6100
 9298TIP3   OH252088   6.610   5.285  11.008  0.1401 -0.2792 -0.5492
 9298TIP3    H152089   6.640   5.321  11.092  0.0686 -1.6255  0.0942
 9298TIP3    H252090   6.685   5.235  10.975  0.9440  2.0053 -2.4248
 9299TIP3   OH252091   3.641   4.472  10.592 -0.2025  0.2830 -0.1535
 9299TIP3    H152092   3.719   4.494  10.645 -0.2634  0.7965 -0.2684
 9299TIP3    H252093   3.674   4.413  10.525 -0.0546 -0.0997  0.2463
 9300TIP3   OH252094   5.373   1.368  12.547  0.0290 -0.8400  0.0295
 9300TIP3    H152095   5.337   1.286  12.578 -0.1894 -1.3261 -1.4278
 9300TIP3    H252096   5.419   1.405  12.623  0.8288 -2.6903  0.4913
 9301TIP3   OH252097   4.973   4.052  11.591 -0.1773 -0.0780 -0.0874
 9301TIP3    H152098   5.047   3.991  11.590  0.7029  0.9454  0.2656
 9301TIP3    H252099   4.899   4.000  11.622  0.4650 -1.0512 -0.1571
 9302TIP3   OH252100   4.909   0.325  12.790  0.0062 -0.3633 -0.4677
 9302TIP3    H152101   4.855   0.388  12.743 -0.4943 -0.6274 -0.2534
 9302TIP3    H252102   4.928   0.367  12.874 -1.1113 -0.8696  0.0528
 9303TIP3   OH252103   1.648   1.201  10.022  0.0502 -0.7298 -0.2776
 9303TIP3    H152104   1.654   1.124  10.080 -0.5190  0.4576  1.4409
 9303TIP3    H252105   1.656   1.165   9.934  0.3487 -2.7002  0.4931
 9304TIP3   OH252106   5.944   0.218  12.568 -0.0334 -0.1633  0.1962
 9304TIP3    H152107   5.923   0.211  12.661  0.0984 -0.1848  0.2245
 9304TIP3    H252108   6.036   0.191  12.562 -0.3206 -1.1214 -0.0792
 9305TIP3   OH252109   3.893   6.173  10.471  0.4052  0.1577 -0.1810
 9305TIP3    H152110   3.906   6.078  10.472 -0.0810  0.0495  2.2493
 9305TIP3    H252111   3.814   6.186  10.523  0.3830  1.9067 -0.6061
 9306TIP3   OH252112   1.206   4.794  12.994 -0.7047  0.0784 -0.2741
 9306TIP3    H152113   1.263   4.772  13.068  1.2476  0.3847 -1.6157
 9306TIP3    H252114   1.190   4.710  12.951  0.1049  0.1906 -0.8153
 9307TIP3   OH252115   5.636   3.627  13.023 -0.2330 -0.0941 -0.1640
 9307TIP3    H152116   5.634   3.665  13.111 -1.8766  2.3305 -1.1463
 9307TIP3    H252117   5.563   3.564  13.023 -0.2760 -0.0486  0.1898
 9308TIP3   OH252118   0.598   6.101  11.146  0.8970  1.0518 -0.7566
 9308TIP3    H152119   0.520   6.050  11.167  0.0548  2.7825  0.6064
 9308TIP3    H252120   0.586   6.128  11.055  0.2787  0.6824 -0.7881
 9309TIP3   OH252121   5.064   4.775  11.314 -0.0873 -0.2865 -0.2530
 9309TIP3    H152122   5.107   4.798  11.232 -0.4910  1.3957 -0.0205
 9309TIP3    H252123   5.134   4.739  11.368  0.1997 -1.3446 -1.2713
 9310TIP3   OH252124   4.000   5.534  11.715 -0.0056  0.2100 -0.3378
 9310TIP3    H152125   3.914   5.552  11.677  0.1946 -0.2279 -1.0156
 9310TIP3    H252126   4.022   5.614  11.763 -0.6572  0.4392 -0.4042
 9311TIP3   OH252127   0.963   5.434  12.311 -0.5476  0.5604 -0.0016
 9311TIP3    H152128   1.021   5.388  12.371 -0.9004 -0.0297 -0.1108
 9311TIP3    H252129   0.949   5.373  12.239 -0.0884  1.2845 -0.7218
 9312TIP3   OH252130   5.321   1.886  11.501 -0.1339 -0.2592 -0.3459
 9312TIP3    H152131   5.316   1.864  11.408 -1.5914 -2.6980  0.2089
 9312TIP3    H252132   5.341   1.803  11.544  0.9714  0.9049  1.5151
 9313TIP3   OH252133   4.726   0.097  10.551  1.2134  0.1596  0.2468
 9313TIP3    H152134   4.718   0.183  10.593  0.1020  0.4119 -0.4492
 9313TIP3    H252135   4.641   0.082  10.510  0.9979 -1.8037  1.3074
 9314TIP3   OH252136   4.054   6.629  11.862  0.3081  0.3287 -0.6113
 9314TIP3    H152137   4.024   6.583  11.784 -0.5678 -0.0455 -0.0709
 9314TIP3    H252138   4.122   6.572  11.898 -1.1137 -0.8573  0.3310
 9315TIP3   OH252139   2.853   2.712  10.769  0.3753 -0.1333  0.0157
 9315TIP3    H152140   2.766   2.734  10.734 -0.1702  2.5834  2.7114
 9315TIP3    H252141   2.845   2.619  10.794 -0.4128 -1.0586 -3.1548
 9316TIP3   OH252142   4.531   5.039  10.909 -0.1655 -0.3893  0.7585
 9316TIP3    H152143   4.599   5.105  10.922 -2.3602  3.2637 -3.4565
 9316TIP3    H252144   4.562   4.987  10.835 -0.6735 -0.6777  0.7473
 9317TIP3   OH252145   0.464   7.025  11.063  0.1815 -0.5939 -0.4051
 9317TIP3    H152146   0.454   7.119  11.046 -2.7360 -1.0794 -2.0779
 9317TIP3    H252147   0.427   7.013  11.150  0.0659 -0.2526 -0.4025
 9318TIP3   OH252148   6.681   3.421  11.213  0.1111 -0.4983 -0.0372
 9318TIP3    H152149   6.695   3.359  11.284  1.7679 -1.7367 -1.3540
 9318TIP3    H252150   6.761   3.472  11.208 -0.4333  0.3483 -0.2848
 9319TIP3   OH252151   2.340   3.776  11.366  0.0223  0.0818  0.4468
 9319TIP3    H152152   2.325   3.755  11.458  1.4205  2.8279  1.3944
 9319TIP3    H252153   2.435   3.783  11.358 -0.1594  1.7279 -0.7503
 9320TIP3   OH252154   5.212   4.916  11.073  0.0827 -0.3750 -0.0520
 9320TIP3    H152155   5.274   4.976  11.115  0.5141  0.6549 -2.0242
 9320TIP3    H252156   5.266   4.842  11.046  0.0872 -0.3516 -0.1062
 9321TIP3   OH252157   2.734   6.974  11.313  0.4348  0.0375 -0.0631
 9321TIP3    H152158   2.681   7.051  11.290  2.2073  0.5238 -3.0933
 9321TIP3    H252159   2.760   6.989  11.404 -1.6205  1.5460  0.3610
 9322TIP3   OH252160   0.398   3.738  12.812 -0.3751  0.4115  1.1196
 9322TIP3    H152161   0.441   3.660  12.845 -1.6115 -0.4474  0.7904
 9322TIP3    H252162   0.316   3.743  12.862 -0.0746  1.8166  1.5250
 9323TIP3   OH252163   2.462   4.372  10.467 -0.3314 -0.0216  0.1204
 9323TIP3    H152164   2.511   4.376  10.549  0.1126 -1.8193 -0.0256
 9323TIP3    H252165   2.529   4.366  10.399 -0.7120 -1.0821 -0.1782
 9324TIP3   OH252166   6.442   4.740  11.129 -0.0001 -0.5861  0.3424
 9324TIP3    H152167   6.420   4.667  11.186  1.4778 -1.1540  0.2554
 9324TIP3    H252168   6.358   4.776  11.101 -0.8188 -3.0861 -0.6623
 9325TIP3   OH252169   4.020   1.545  11.541  0.0372  0.4341  0.1287
 9325TIP3    H152170   3.939   1.537  11.591 -0.4339  1.6256 -0.3941
 9325TIP3    H252171   4.088   1.508  11.597 -0.9810 -1.4357  0.2179
 9326TIP3   OH252172   2.096   5.782  12.015  0.5006  0.3986  0.1748
 9326TIP3    H152173   2.115   5.806  11.924  0.6777  0.1754  0.1529
 9326TIP3    H252174   2.162   5.717  12.037  0.6875  0.7183  0.5823
 9327TIP3   OH252175   3.170   3.326  12.129 -0.6020  0.1129  0.5385
 9327TIP3    H152176   3.082   3.362  12.143 -1.4510 -2.1098  1.3295
 9327TIP3    H252177   3.175   3.310  12.035 -2.2567 -2.4408  0.7808
 9328TIP3   OH252178   1.448   7.247  10.687  0.0566 -0.4478  0.0056
 9328TIP3    H152179   1.403   7.201  10.617 -1.6138 -0.6601  1.1574
 9328TIP3    H252180   1.519   7.294  10.643 -0.6656 -0.9134 -1.7489
 9329TIP3   OH252181   6.807   6.692  11.099 -0.2113  0.3482 -0.6292
 9329TIP3    H152182   6.720   6.653  11.097 -0.6986  0.9401  2.7046
 9329TIP3    H252183   6.865   6.623  11.064 -1.8449 -0.4170 -1.9709
 9330TIP3   OH252184   1.604   3.947  10.635 -0.1847  0.1113 -0.0925
 9330TIP3    H152185   1.519   3.982  10.609 -0.2569 -1.4305 -2.2379
 9330TIP3    H252186   1.583   3.879  10.699 -0.5120  0.1879 -0.1155
 9331TIP3   OH252187   5.827   7.636  13.001 -0.5869  0.4486  0.4091
 9331TIP3    H152188   5.851   7.609  13.090 -1.9464  0.6368  0.8452
 9331TIP3    H252189   5.797   7.727  13.010 -0.0136  0.7298 -0.3767
 9332TIP3   OH252190   1.380   1.299  11.220  0.0415  0.4432 -0.2480
 9332TIP3    H152191   1.313   1.250  11.171 -1.0816  1.6336  0.0676
 9332TIP3    H252192   1.359   1.391  11.205  1.0187  0.8382  0.6759
 9333TIP3   OH252193   7.245   0.148  12.549  0.3034 -0.2147  0.1457
 9333TIP3    H152194   7.239   0.220  12.612  0.5721 -1.0036  1.0950
 9333TIP3    H252195   7.303   0.084  12.590 -1.2206 -1.7159  0.0777
 9334TIP3   OH252196   1.067   2.746  12.473  0.4489  0.3552 -0.2000
 9334TIP3    H152197   1.105   2.763  12.560  1.4034 -1.2639 -0.2472
 9334TIP3    H252198   1.059   2.651  12.470 -1.4088  0.5110 -1.1657
 9335TIP3   OH252199   5.534   7.599  11.008 -0.3765  0.3798 -0.2992
 9335TIP3    H152200   5.457   7.616  10.953 -0.9120 -1.3578 -0.1627
 9335TIP3    H252201   5.500   7.551  11.083  0.3285  2.8483  1.7142
 9336TIP3   OH252202   4.290   1.147  13.137  0.5981  0.1978 -0.2803
 9336TIP3    H152203   4.262   1.236  13.159  0.7021  0.0937  0.2915
 9336TIP3    H252204   4.330   1.155  13.050 -1.0829  0.3748 -1.0912
 9337TIP3   OH252205   1.776   6.826  11.618  0.2353 -0.0537  0.2725
 9337TIP3    H152206   1.727   6.907  11.607 -1.5823 -1.0475  0.5198
 9337TIP3    H252207   1.736   6.765  11.556  2.5341 -0.3847 -0.9782
 9338TIP3   OH252208   6.897   2.962  11.812  0.0958 -0.2425 -0.3993
 9338TIP3    H152209   6.823   2.943  11.755 -0.5392  0.0034  0.3274
 9338TIP3    H252210   6.920   3.053  11.792 -0.1932 -0.1231 -0.1993
 9339TIP3   OH252211   2.699   4.763  10.720 -0.6496  0.3992 -1.1684
 9339TIP3    H152212   2.654   4.760  10.636 -0.4443 -0.6506 -1.2637
 9339TIP3    H252213   2.656   4.695  10.773  0.3834 -0.1937 -1.0577
 9340TIP3   OH252214   7.630   6.592  12.927  0.6612 -0.3287 -0.4730
 9340TIP3    H152215   7.622   6.497  12.917 -0.7423 -0.3402  0.4941
 9340TIP3    H252216   7.723   6.610  12.915  0.9785 -1.8570 -0.4431
 9341TIP3   OH252217   1.900   0.491  10.349 -0.1267 -0.1707 -0.9081
 9341TIP3    H152218   1.941   0.419  10.301 -0.4950 -0.5849 -0.6067
 9341TIP3    H252219   1.807   0.486  10.325 -0.2714 -0.2297 -0.3497
 9342TIP3   OH252220   7.417   1.476  11.799  0.1207  1.0060 -0.3102
 9342TIP3    H152221   7.481   1.473  11.870 -0.5604  1.4092  0.3357
 9342TIP3    H252222   7.456   1.422  11.729  1.3846  1.6396 -0.1310
 9343TIP3   OH252223   1.084   2.440  11.324 -0.0514 -0.2053 -0.3247
 9343TIP3    H152224   1.157   2.414  11.268  0.0216 -0.1538 -0.2548
 9343TIP3    H252225   1.023   2.486  11.265 -0.5617 -1.2198 -0.6108
 9344TIP3   OH252226   7.438   5.965  12.516 -0.0905  0.3141  0.2552
 9344TIP3    H152227   7.350   5.967  12.478 -0.8316  0.6075  1.9046
 9344TIP3    H252228   7.454   6.055  12.545  0.4064  0.0876  0.6993
 9345TIP3   OH252229   2.661   1.626  11.375  0.0701  0.4352  0.1009
 9345TIP3    H152230   2.572   1.648  11.401  0.2820  0.8576  0.4790
 9345TIP3    H252231   2.678   1.680  11.298 -1.6527 -2.9875 -2.9926
 9346TIP3   OH252232   2.917   0.773  10.988 -0.2930  0.0196  0.3373
 9346TIP3    H152233   2.995   0.816  10.954 -0.1916  1.3272  2.0742
 9346TIP3    H252234   2.927   0.681  10.963  0.3939  0.6434 -1.8770
 9347TIP3   OH252235   2.160   0.971  12.369  0.3757  0.6680 -0.0144
 9347TIP3    H152236   2.225   0.901  12.373  1.2158  1.4420  0.1195
 9347TIP3    H252237   2.080   0.931  12.405 -0.1981 -1.2839 -3.0907
 9348TIP3   OH252238   1.630   0.082  12.673 -0.1583  0.5008  0.3640
 9348TIP3    H152239   1.618   0.118  12.585  0.9868 -0.2118 -0.1081
 9348TIP3    H252240   1.718   0.111  12.698  0.2436 -0.7949  0.5243
 9349TIP3   OH252241   6.996   4.335  10.518  0.5231 -0.2770 -0.1900
 9349TIP3    H152242   7.017   4.263  10.459 -0.6084 -0.4126 -0.4350
 9349TIP3    H252243   7.079   4.353  10.563  1.1912 -0.7405 -1.1868
 9350TIP3   OH252244   3.751   1.761  12.002  0.1394  0.4898 -0.0642
 9350TIP3    H152245   3.804   1.682  11.997  0.1698  0.5748 -1.7048
 9350TIP3    H252246   3.814   1.833  12.000  0.0660  0.5652  0.3363
 9351TIP3   OH252247   6.870   3.320  10.631 -0.2155 -1.0279  0.4479
 9351TIP3    H152248   6.910   3.296  10.715 -0.8685 -0.5605  0.9062
 9351TIP3    H252249   6.778   3.295  10.641 -0.8930  1.4172  0.8736
 9352TIP3   OH252250   7.623   0.528  12.195 -0.0092 -0.1583 -0.2157
 9352TIP3    H152251   7.540   0.540  12.150  0.4565  0.8219 -0.8250
 9352TIP3    H252252   7.689   0.528  12.126  0.6376  0.5439  0.3891
 9353TIP3   OH252253   1.565   1.584  11.405 -0.1579  0.1549  0.2872
 9353TIP3    H152254   1.474   1.579  11.374 -0.2060  2.0244  0.0040
 9353TIP3    H252255   1.616   1.603  11.327  0.0593  2.1769  0.8627
 9354TIP3   OH252256   0.680   6.267  12.239 -0.6106  0.0724 -0.7932
 9354TIP3    H152257   0.741   6.267  12.165  0.4856 -1.6385  0.0616
 9354TIP3    H252258   0.607   6.322  12.209  0.9124  1.4482 -2.1936
 9355TIP3   OH252259   0.031   1.600  10.466  0.1745  0.6462 -0.2116
 9355TIP3    H152260  -0.002   1.682  10.502  0.8574  1.0381 -0.4461
 9355TIP3    H252261   0.058   1.623  10.377  2.1396  0.6429  0.3316
 9356TIP3   OH252262   2.158   4.613  11.866  0.1020 -0.0370  0.3706
 9356TIP3    H152263   2.142   4.703  11.837  0.9360 -0.0377 -0.1306
 9356TIP3    H252264   2.104   4.603  11.944 -0.7225  0.5952 -0.0997
 9357TIP3   OH252265   4.574   5.682  12.361  1.2529  0.3797  0.7114
 9357TIP3    H152266   4.572   5.602  12.308 -2.3444 -0.6556  2.1675
 9357TIP3    H252267   4.610   5.654  12.445  1.0051  0.5690  0.8782
 9358TIP3   OH252268   7.137   2.141  11.278 -0.4104  0.0664  0.2714
 9358TIP3    H152269   7.146   2.218  11.222  0.4027  0.2665  0.6664
 9358TIP3    H252270   7.043   2.127  11.284 -0.6003 -2.0235 -3.9547
 9359TIP3   OH252271   1.904   2.908  10.863  0.2195 -0.2834  0.5874
 9359TIP3    H152272   1.992   2.945  10.853  0.2651 -0.5603 -0.1166
 9359TIP3    H252273   1.846   2.972  10.822  0.2377 -0.7064 -0.1151
 9360TIP3   OH252274   0.961   6.675  13.028 -0.0940 -0.1753  0.0743
 9360TIP3    H152275   0.988   6.708  13.114  0.2574 -0.1179 -0.0529
 9360TIP3    H252276   0.933   6.753  12.980  2.2734  0.2329 -0.7886
 9361TIP3   OH252277   4.391   3.903  12.162 -0.4407 -0.0976 -0.1288
 9361TIP3    H152278   4.328   3.941  12.100 -1.7638  0.5761  1.5582
 9361TIP3    H252279   4.391   3.810  12.142 -2.3072 -0.1711  0.0816
 9362TIP3   OH252280   2.934   1.052  10.779 -0.3094  0.0309  0.3539
 9362TIP3    H152281   3.007   1.110  10.804 -1.2245  0.9221  1.0377
 9362TIP3    H252282   2.897   1.024  10.863  0.0251 -1.4549  0.0269
 9363TIP3   OH252283   2.568   2.594  12.198  0.0507 -0.5394  0.2276
 9363TIP3    H152284   2.565   2.519  12.258 -1.7402  0.1604  1.0847
 9363TIP3    H252285   2.640   2.647  12.230 -0.4228 -0.5389  1.3520
 9364TIP3   OH252286   0.074   6.878  11.410  0.4831  0.2866  0.1349
 9364TIP3    H152287   0.047   6.961  11.448 -0.2704 -0.3473  1.0401
 9364TIP3    H252288   0.005   6.857  11.347  0.1974 -0.0708  0.5561
 9365TIP3   OH252289   1.865   0.123  12.279  0.5802  0.1578 -0.4856
 9365TIP3    H152290   1.958   0.145  12.286  0.4825  0.3423  0.4180
 9365TIP3    H252291   1.860   0.063  12.205  1.6931 -1.2761  0.5391
 9366TIP3   OH252292   5.886   1.721  12.587  0.1287 -0.0864 -0.2720
 9366TIP3    H152293   5.859   1.744  12.498 -0.0668  0.5391 -0.0510
 9366TIP3    H252294   5.920   1.631  12.578  0.4493  0.0950 -1.0445
 9367TIP3   OH252295   1.433   1.728  11.643 -0.4328  0.3912  0.3970
 9367TIP3    H152296   1.464   1.643  11.674 -1.5596 -0.0446  0.3718
 9367TIP3    H252297   1.429   1.718  11.548 -0.6849  0.4200  0.4028
 9368TIP3   OH252298   5.426   1.154  11.994  0.3520  0.1805 -0.0517
 9368TIP3    H152299   5.480   1.147  12.073 -0.6770  0.7717  0.7171
 9368TIP3    H252300   5.382   1.069  11.988 -1.6813  1.0528  1.5960
 9369TIP3   OH252301   6.937   2.838  12.176 -0.1361 -0.5542  0.6379
 9369TIP3    H152302   6.955   2.875  12.262  0.9170  1.1169 -0.2558
 9369TIP3    H252303   7.021   2.801  12.147  0.5940  2.2282 -1.1757
 9370TIP3   OH252304   3.813   3.796  10.757  0.0436  0.4044  0.4587
 9370TIP3    H152305   3.899   3.794  10.800 -0.9075 -1.5680  2.4433
 9370TIP3    H252306   3.772   3.876  10.788  0.0514 -0.1211  1.8666
 9371TIP3   OH252307   5.292   4.490  10.240  0.1342 -0.1172 -0.4661
 9371TIP3    H152308   5.222   4.546  10.205 -0.4155 -0.5669 -0.0966
 9371TIP3    H252309   5.278   4.491  10.335 -0.8308 -2.1018 -0.5524
 9372TIP3   OH252310   7.142   1.632  12.290  0.0588 -0.3455  0.1537
 9372TIP3    H152311   7.138   1.727  12.282 -0.4360 -0.5127 -1.9498
 9372TIP3    H252312   7.051   1.606  12.306  0.3158 -0.4441  1.6695
 9373TIP3   OH252313   7.610   5.443  10.963 -0.0872 -0.2604  0.2026
 9373TIP3    H152314   7.590   5.495  10.885 -0.7912  0.5293  0.8858
 9373TIP3    H252315   7.532   5.389  10.975  0.4595 -1.1649 -0.2446
 9374TIP3   OH252316   2.596   6.891  12.941  0.0839  0.1115  0.1303
 9374TIP3    H152317   2.657   6.827  12.979  0.2317  0.0814 -0.1552
 9374TIP3    H252318   2.645   6.973  12.941 -0.6746  0.6306  2.0559
 9375TIP3   OH252319   6.449   3.982  11.110  0.5824 -0.5130  0.7056
 9375TIP3    H152320   6.487   3.907  11.064  2.1849 -0.5180  1.9813
 9375TIP3    H252321   6.355   3.973  11.095  0.7355 -2.7129  0.7401
 9376TIP3   OH252322   6.818   6.555  12.633 -0.0187  0.2261 -0.2875
 9376TIP3    H152323   6.827   6.513  12.718 -0.5641 -0.3024 -0.4843
 9376TIP3    H252324   6.881   6.627  12.635  1.0320 -0.6783 -0.0037
 9377TIP3   OH252325   0.371   2.482  10.935 -0.0253 -0.6552 -0.6328
 9377TIP3    H152326   0.327   2.399  10.918 -0.1135 -0.4650 -1.3434
 9377TIP3    H252327   0.429   2.463  11.009 -0.2195 -1.2852 -0.6335
 9378TIP3   OH252328   1.938   6.498  12.873 -0.3867 -0.1987 -0.2729
 9378TIP3    H152329   1.925   6.470  12.783 -2.1702  0.0434 -0.1251
 9378TIP3    H252330   1.934   6.594  12.870  1.4380 -0.0733 -0.1694
 9379TIP3   OH252331   5.926   4.993  10.976 -0.8564  0.3839 -0.1437
 9379TIP3    H152332   5.865   5.011  10.905  0.4040  1.1158 -1.0777
 9379TIP3    H252333   5.950   5.079  11.011  1.2132  0.2897 -1.1891
 9380TIP3   OH252334   1.370   7.652  12.495 -0.2069 -0.2849  0.1114
 9380TIP3    H152335   1.285   7.668  12.537  0.0125 -2.4797  1.5525
 9380TIP3    H252336   1.410   7.583  12.548  2.3521  0.4358 -0.7375
 9381TIP3   OH252337   3.708   0.229  13.301  0.0920  0.1144 -0.4565
 9381TIP3    H152338   3.750   0.285  13.367  0.1503  1.2930 -1.4757
 9381TIP3    H252339   3.676   0.289  13.234 -0.5304 -1.0171 -1.2154
 9382TIP3   OH252340   4.304   2.650  10.258 -0.2934  0.1411  0.6126
 9382TIP3    H152341   4.315   2.570  10.207  0.9169  1.2597 -0.9960
 9382TIP3    H252342   4.267   2.714  10.196  0.3486  1.2854  1.3656
 9383TIP3   OH252343   6.244   3.445  12.292 -0.5876 -0.8694 -0.3395
 9383TIP3    H152344   6.188   3.512  12.331 -0.1923  0.1659 -1.4890
 9383TIP3    H252345   6.244   3.465  12.199  1.4585 -1.0007 -0.4072
 9384TIP3   OH252346   6.606   0.652  11.184  0.0320 -0.9739 -0.1403
 9384TIP3    H152347   6.578   0.566  11.216 -0.0411 -0.9233 -0.0667
 9384TIP3    H252348   6.525   0.695  11.158  0.1493 -1.2415 -0.9655
 9385TIP3   OH252349   0.295   1.002  11.159  0.2226 -0.1359 -0.0955
 9385TIP3    H152350   0.293   1.012  11.254  1.3904 -3.0442  0.3464
 9385TIP3    H252351   0.232   0.932  11.140 -0.4945  0.8495 -1.5788
 9386TIP3   OH252352   0.543   1.357  12.809 -0.2210 -0.1863  0.3448
 9386TIP3    H152353   0.497   1.376  12.891  1.1062  0.9420  0.8618
 9386TIP3    H252354   0.498   1.411  12.744  0.8800  1.6622  1.0268
 9387TIP3   OH252355   2.683   0.686  11.138 -0.1565  0.1605 -0.2601
 9387TIP3    H152356   2.684   0.591  11.122 -1.4164  0.2680 -1.0957
 9387TIP3    H252357   2.725   0.723  11.061 -0.4198  0.3206 -0.3282
 9388TIP3   OH252358   2.890   2.348  13.176  0.2151  0.2458  0.4120
 9388TIP3    H152359   2.851   2.289  13.241  0.1031  0.5460  0.6174
 9388TIP3    H252360   2.837   2.335  13.097  0.8590 -0.7340  0.1198
 9389TIP3   OH252361   5.238   3.371  11.788  0.2013  0.2181  0.3771
 9389TIP3    H152362   5.277   3.285  11.773  2.1649  1.1007  0.1510
 9389TIP3    H252363   5.219   3.404  11.700 -0.5188  0.0511  0.4616
 9390TIP3   OH252364   0.869   6.725  12.646 -0.2685 -0.2128  0.3494
 9390TIP3    H152365   0.901   6.643  12.685  3.0247  0.6908 -0.1533
 9390TIP3    H252366   0.878   6.789  12.716  1.8869  0.6113 -0.5854
 9391TIP3   OH252367   2.762   0.906  11.488 -0.4606  0.0664 -0.2838
 9391TIP3    H152368   2.685   0.902  11.432  0.2010  1.8016 -1.4195
 9391TIP3    H252369   2.826   0.849  11.445  0.1303  1.5861 -1.5163
 9392TIP3   OH252370   3.581   3.700  12.357  0.1720 -0.0368  0.0177
 9392TIP3    H152371   3.644   3.716  12.287  0.1686 -0.9336 -0.1980
 9392TIP3    H252372   3.501   3.673  12.312 -0.0859  0.1723  0.3370
 9393TIP3   OH252373   0.942   2.213  11.705  0.0337 -0.0214 -0.1021
 9393TIP3    H152374   1.000   2.285  11.681 -2.8020  2.3120 -0.6812
 9393TIP3    H252375   0.909   2.181  11.621  0.6244 -1.4839  0.1989
 9394TIP3   OH252376   6.335   6.348  12.176  0.1353  0.0150  0.4761
 9394TIP3    H152377   6.300   6.435  12.194  0.7916  0.6343 -1.0763
 9394TIP3    H252378   6.267   6.288  12.205 -1.2152  1.1144 -0.3224
 9395TIP3   OH252379   0.860   1.943  12.033  0.2676  0.2803 -0.0206
 9395TIP3    H152380   0.772   1.975  12.053  0.0904  0.8912 -1.6521
 9395TIP3    H252381   0.905   2.017  11.994  1.6276  0.0587  1.0376
 9396TIP3   OH252382   0.280   2.870  13.312 -0.8540 -0.2771  0.2927
 9396TIP3    H152383   0.343   2.929  13.270 -1.7263  0.1069 -0.5274
 9396TIP3    H252384   0.252   2.811  13.242 -0.6208 -1.1490  0.9071
 9397TIP3   OH252385   0.918   6.125  11.583  0.0217  0.0899  0.3964
 9397TIP3    H152386   0.829   6.110  11.615  0.0910  0.5629  0.8141
 9397TIP3    H252387   0.959   6.039  11.585  0.0215  0.1044  1.5678
 9398TIP3   OH252388   1.286   2.184  11.936 -0.2598 -0.0132  0.0987
 9398TIP3    H152389   1.304   2.097  11.901 -0.9678  0.0104 -0.3619
 9398TIP3    H252390   1.192   2.182  11.956 -0.2037  0.5255  0.4162
 9399TIP3   OH252391   6.811   7.195  12.013  0.2488 -0.6076 -0.0597
 9399TIP3    H152392   6.826   7.289  12.023 -0.2504 -0.6564  1.3202
 9399TIP3    H252393   6.894   7.155  12.038  0.0089 -0.5794  0.8286
 9400TIP3   OH252394   1.296   7.156  10.455  0.3520  0.2378  0.6091
 9400TIP3    H152395   1.211   7.128  10.421  0.2326  1.1105  0.1784
 9400TIP3    H252396   1.358   7.093  10.419 -0.0630 -0.1987  0.6422
 9401TIP3   OH252397   6.822   2.908  10.588  0.2486  0.7992  0.1954
 9401TIP3    H152398   6.852   2.866  10.668 -2.4671 -1.2064  0.3011
 9401TIP3    H252399   6.756   2.971  10.616  0.4362  1.2523 -0.3583
 9402TIP3   OH252400   2.450   3.177  11.504 -0.2629  0.4542  0.1159
 9402TIP3    H152401   2.501   3.143  11.430  0.3829 -1.4172  1.3531
 9402TIP3    H252402   2.368   3.128  11.502  0.5023 -0.9667  1.6708
 9403TIP3   OH252403   4.972   0.251  11.609 -0.5836  0.1924 -0.1937
 9403TIP3    H152404   4.979   0.329  11.664  0.3291  0.1875 -0.2928
 9403TIP3    H252405   5.061   0.215  11.607 -0.7609 -0.2201 -1.0666
 9404TIP3   OH252406   0.755   3.562  11.405  0.2859  0.1717  0.0025
 9404TIP3    H152407   0.712   3.493  11.353  1.8665  0.1831 -1.4166
 9404TIP3    H252408   0.812   3.606  11.342  0.7593  1.5262  1.3420
 9405TIP3   OH252409   4.454   2.928  11.274 -0.0133 -0.3084  0.2094
 9405TIP3    H152410   4.395   2.988  11.320 -0.8259  1.5323 -2.9235
 9405TIP3    H252411   4.535   2.978  11.263 -0.5549  0.1771 -2.0769
 9406TIP3   OH252412   6.973   0.852  12.119 -0.4833  0.2199  0.3564
 9406TIP3    H152413   6.900   0.799  12.150 -1.5759  2.0562  1.0717
 9406TIP3    H252414   6.932   0.924  12.070  0.8142  1.4029  0.9208
 9407TIP3   OH252415   3.101   6.954  11.258 -0.3867  0.1501 -0.3469
 9407TIP3    H152416   3.184   6.982  11.219 -1.5607  1.7549 -1.8779
 9407TIP3    H252417   3.069   6.885  11.199 -1.5775  1.7249 -1.6370
 9408TIP3   OH252418   0.027   2.423  11.822  0.5472 -0.2130  0.1987
 9408TIP3    H152419   0.108   2.443  11.776  0.0832  2.5716  0.4133
 9408TIP3    H252420   0.032   2.476  11.902 -1.0138 -0.8381  0.7389
 9409TIP3   OH252421   4.084   0.956  11.150  0.4114 -0.1129 -0.2514
 9409TIP3    H152422   4.171   0.996  11.141  0.2428  0.1988 -0.4895
 9409TIP3    H252423   4.028   1.006  11.091  0.1591 -0.5945 -0.4262
 9410TIP3   OH252424   2.294   6.573  11.160  0.0143 -0.3279 -0.4447
 9410TIP3    H152425   2.345   6.598  11.083 -0.0038 -0.5188 -0.5189
 9410TIP3    H252426   2.265   6.484  11.143 -0.4602 -0.1755 -0.4650
 9411TIP3   OH252427   7.363   4.152  11.887  0.0909 -0.2127  0.1870
 9411TIP3    H152428   7.355   4.244  11.863  0.3103  0.2356  1.7843
 9411TIP3    H252429   7.457   4.136  11.894  0.0316 -0.0370  1.7518
 9412TIP3   OH252430   6.517   4.706  12.516 -0.3432  0.3198 -0.1143
 9412TIP3    H152431   6.435   4.658  12.528  0.1787 -0.5146  0.2071
 9412TIP3    H252432   6.572   4.648  12.464 -0.1107  1.0731 -0.7389
 9413TIP3   OH252433   1.400   1.229  11.869  0.4751 -0.4573  0.1114
 9413TIP3    H152434   1.363   1.176  11.799  0.5891 -1.5958  0.8856
 9413TIP3    H252435   1.480   1.266  11.831 -1.3161  2.0368 -1.5860
 9414TIP3   OH252436   6.361   1.853  10.497  0.2195  0.2035  0.1111
 9414TIP3    H152437   6.304   1.891  10.564  2.4807  0.3863  2.0410
 9414TIP3    H252438   6.329   1.764  10.485 -1.6485  0.8813 -0.3388
 9415TIP3   OH252439   1.993   4.827  12.643  0.8599  0.4554  0.4024
 9415TIP3    H152440   1.907   4.863  12.664  1.0802  1.5889 -0.5454
 9415TIP3    H252441   2.055   4.889  12.683  1.2500 -0.2731  0.9502
 9416TIP3   OH252442   1.855   2.282  10.619 -0.2711  0.1500 -0.1172
 9416TIP3    H152443   1.932   2.335  10.643  0.1956 -0.9343  0.8991
 9416TIP3    H252444   1.835   2.232  10.698 -2.8960  1.3858  0.0909
 9417TIP3   OH252445   0.954   5.079  11.541  0.4696  0.2685 -0.2315
 9417TIP3    H152446   0.943   4.994  11.500 -0.6005  0.3863 -0.2124
 9417TIP3    H252447   0.888   5.081  11.611  0.6238  1.0272 -0.0954
 9418TIP3   OH252448   7.251   4.130  12.991 -0.1700  0.4129  0.3536
 9418TIP3    H152449   7.271   4.131  13.084  1.4547 -0.8651  0.0865
 9418TIP3    H252450   7.205   4.047  12.977  0.0840  0.3319 -0.0441
 9419TIP3   OH252451   4.518   7.100  12.417 -0.0389  0.7423  0.1871
 9419TIP3    H152452   4.476   7.063  12.494  0.2286 -0.6669 -0.3219
 9419TIP3    H252453   4.459   7.078  12.344 -0.0117  1.5761 -0.1086
 9420TIP3   OH252454   7.241   5.619  12.239  0.0154  0.1952  0.2041
 9420TIP3    H152455   7.209   5.558  12.306 -0.6554  1.9871  1.6198
 9420TIP3    H252456   7.258   5.700  12.288 -2.1742  2.1588 -2.0195
 9421TIP3   OH252457   1.593   4.651  12.000 -0.1633 -0.5778  0.0911
 9421TIP3    H152458   1.509   4.647  12.045 -0.1704  1.0854  0.3034
 9421TIP3    H252459   1.649   4.703  12.058  0.8613 -1.2082 -0.2965
 9422TIP3   OH252460   2.279   0.715  12.406 -0.0371 -0.1748 -0.0320
 9422TIP3    H152461   2.301   0.702  12.498 -2.1592  2.2482  0.9326
 9422TIP3    H252462   2.187   0.690  12.399 -0.0092  0.0263 -1.4107
 9423TIP3   OH252463   4.957   6.008  12.073  0.0670 -0.6044  0.4501
 9423TIP3    H152464   4.957   5.925  12.025  1.1258 -0.6664  0.5471
 9423TIP3    H252465   4.882   6.055  12.038  0.6825 -0.7300 -1.1186
 9424TIP3   OH252466   2.310   4.244  10.904 -0.6865  0.3152 -0.0836
 9424TIP3    H152467   2.253   4.176  10.941  0.0986  0.4251  1.3824
 9424TIP3    H252468   2.249   4.310  10.871 -1.4508 -0.8136 -1.0237
 9425TIP3   OH252469   7.493   1.382  12.710  0.0710 -0.2110 -0.3906
 9425TIP3    H152470   7.553   1.319  12.669 -0.1473 -0.5576 -0.1817
 9425TIP3    H252471   7.525   1.468  12.682  0.9453 -0.3693  0.0854
 9426TIP3   OH252472   3.644   5.375  11.521  0.3435  0.1078 -0.6727
 9426TIP3    H152473   3.656   5.286  11.554  1.6745  0.5791  0.1957
 9426TIP3    H252474   3.732   5.407  11.503 -0.1561  1.0187 -1.6486
 9427TIP3   OH252475   4.337   7.561  11.968  0.3399 -0.0777  0.4175
 9427TIP3    H152476   4.305   7.636  12.019  1.4605  1.3509 -0.8765
 9427TIP3    H252477   4.381   7.506  12.032 -2.1417 -0.6901  1.7480
 9428TIP3   OH252478   5.454   7.616  12.103 -0.2848  0.0231 -0.1904
 9428TIP3    H152479   5.485   7.705  12.113  4.4436 -1.3776 -0.1303
 9428TIP3    H252480   5.443   7.604  12.009 -1.0367  0.6319 -0.1923
 9429TIP3   OH252481   3.963   2.498  12.657 -0.4077 -0.1225 -0.0601
 9429TIP3    H152482   3.880   2.544  12.666 -0.5550 -0.2146 -0.8817
 9429TIP3    H252483   3.954   2.421  12.713  0.1067  1.1713  1.8965
 9430TIP3   OH252484   4.385   6.927  10.588 -0.7056 -0.0730 -0.0387
 9430TIP3    H152485   4.312   6.981  10.618  0.1835  1.8444 -1.1310
 9430TIP3    H252486   4.356   6.890  10.505 -0.4194  0.7398 -0.5039
 9431TIP3   OH252487   6.004   0.088  11.076  0.2724 -0.1680 -0.2754
 9431TIP3    H152488   5.939   0.017  11.078  0.7336 -0.5986 -0.4552
 9431TIP3    H252489   5.953   0.166  11.052  0.1643 -0.9113 -2.7646
 9432TIP3   OH252490   1.548   1.121  11.306  0.4139 -0.2718 -0.1199
 9432TIP3    H152491   1.493   1.194  11.277  0.4430 -0.8440 -1.7031
 9432TIP3    H252492   1.609   1.160  11.369 -0.3953  0.7989  0.0297
 9433TIP3   OH252493   3.455   5.750  11.769 -0.1612 -0.4931  0.4723
 9433TIP3    H152494   3.546   5.765  11.797 -0.1079 -2.3027  1.4223
 9433TIP3    H252495   3.462   5.682  11.703 -0.7437  0.3707 -0.5149
 9434TIP3   OH252496   7.315   0.473  11.605  0.5832  0.7153 -0.4247
 9434TIP3    H152497   7.378   0.410  11.640  2.1806  2.4160 -0.1118
 9434TIP3    H252498   7.267   0.425  11.538  0.2129 -1.4566  1.2807
 9435TIP3   OH252499   1.566   3.703  11.357  0.0502 -0.1885 -0.7388
 9435TIP3    H152500   1.517   3.687  11.437 -0.2765  0.5810 -0.7670
 9435TIP3    H252501   1.656   3.681  11.378 -0.3717 -2.2412 -0.8673
 9436TIP3   OH252502   1.904   2.679  11.403  0.3356 -0.1341 -0.0606
 9436TIP3    H152503   1.926   2.761  11.359  1.3510 -1.6145 -2.5203
 9436TIP3    H252504   1.894   2.615  11.332 -1.9379 -1.8479  1.6516
 9437TIP3   OH252505   6.628   3.294  10.505  0.1714  0.2737  0.1380
 9437TIP3    H152506   6.534   3.296  10.488  0.2567 -0.9252 -0.5713
 9437TIP3    H252507   6.653   3.386  10.512 -1.2394  0.5945  1.4822
 9438TIP3   OH252508   3.718   0.998  10.426  0.2521 -0.2548  0.2420
 9438TIP3    H152509   3.769   1.079  10.433 -0.1201 -0.0480  0.6269
 9438TIP3    H252510   3.783   0.931  10.406  0.5771  0.1234  0.0081
 9439TIP3   OH252511   4.577   2.126  10.905  0.1004 -0.9129  0.1922
 9439TIP3    H152512   4.556   2.049  10.852  1.0434 -1.1156  0.0854
 9439TIP3    H252513   4.554   2.200  10.849 -0.6511 -1.1111  0.2277
 9440TIP3   OH252514   4.586   0.210  11.841  0.2158 -0.4117 -0.0336
 9440TIP3    H152515   4.664   0.262  11.860  0.1496 -0.5800  0.7137
 9440TIP3    H252516   4.580   0.210  11.745  2.2890 -2.0621 -0.2319
 9441TIP3   OH252517   0.249   0.895  11.971  0.0235 -0.3620  0.1404
 9441TIP3    H152518   0.266   0.983  12.005 -0.2476 -0.8198  1.5115
 9441TIP3    H252519   0.199   0.910  11.890  3.6041  0.8928 -2.0744
 9442TIP3   OH252520   6.399   1.372  12.773  0.3720 -0.2800  0.4599
 9442TIP3    H152521   6.447   1.297  12.808 -1.5871 -1.2340  1.2281
 9442TIP3    H252522   6.368   1.419  12.850 -1.5999 -0.8130  0.0309
 9443TIP3   OH252523   0.215   7.378  10.669  0.1555  0.0903 -0.0787
 9443TIP3    H152524   0.225   7.296  10.621  1.3032 -0.1144  0.4796
 9443TIP3    H252525   0.184   7.351  10.755  0.5797  0.2227  0.1204
 9444TIP3   OH252526   0.765   4.987  11.093 -0.2661  0.1598  0.4057
 9444TIP3    H152527   0.782   5.080  11.073 -0.2607 -0.0903 -0.8127
 9444TIP3    H252528   0.795   4.940  11.015 -2.6913 -0.6620 -0.1150
 9445TIP3   OH252529   1.412   7.135  13.154 -0.0157  0.5047  0.2371
 9445TIP3    H152530   1.497   7.175  13.133 -0.1514 -0.0035 -1.4342
 9445TIP3    H252531   1.368   7.199  13.210  0.9002  1.4073 -0.0470
 9446TIP3   OH252532   6.584   3.288  11.928 -0.0616 -0.1680 -0.6210
 9446TIP3    H152533   6.633   3.267  12.008  0.0116 -0.1939 -0.6724
 9446TIP3    H252534   6.504   3.330  11.959  0.7631  1.4717 -0.5799
 9447TIP3   OH252535   0.752   0.069  12.666 -0.4363 -0.0155  0.1534
 9447TIP3    H152536   0.764  -0.014  12.712  1.1954  0.4843  0.6797
 9447TIP3    H252537   0.690   0.117  12.721  2.1722  0.9491  2.5037
 9448TIP3   OH252538   4.281   0.804  10.698  0.6653  0.6999 -0.1669
 9448TIP3    H152539   4.186   0.811  10.706  0.1828 -1.7348 -2.3009
 9448TIP3    H252540   4.307   0.881  10.648 -0.7415 -0.1401 -2.3599
 9449TIP3   OH252541   6.602   2.371  10.930 -0.2698 -0.5701 -0.3195
 9449TIP3    H152542   6.566   2.382  10.842 -1.1220  0.0336  0.0868
 9449TIP3    H252543   6.696   2.381  10.919 -0.5010  1.4483 -0.9095
 9450TIP3   OH252544   2.255   4.482  12.928 -0.2948 -0.4566  0.8655
 9450TIP3    H152545   2.276   4.562  12.880  1.2091 -0.9904  0.5962
 9450TIP3    H252546   2.178   4.447  12.884  0.3148 -0.2739 -0.3782
 9451TIP3   OH252547   5.998   0.016  11.646  0.2078  0.0141 -0.1039
 9451TIP3    H152548   6.076   0.060  11.680  0.5831 -0.5689 -0.1813
 9451TIP3    H252549   5.958   0.079  11.586  0.6028  0.3317 -0.0337
 9452TIP3   OH252550   5.658   5.286  10.659  0.2331 -0.0428  0.0189
 9452TIP3    H152551   5.657   5.365  10.712 -0.2526 -0.2696  0.3504
 9452TIP3    H252552   5.690   5.315  10.573  0.2527  0.4715  0.1971
 9453TIP3   OH252553   1.834   4.445  10.670 -0.1583  0.6973  0.0440
 9453TIP3    H152554   1.748   4.474  10.702  0.4865  1.7703  0.8486
 9453TIP3    H252555   1.813   4.377  10.606 -1.5780  0.3374  0.8443
 9454TIP3   OH252556   1.112   7.239  10.719 -0.1738 -0.3772 -0.1641
 9454TIP3    H152557   1.204   7.222  10.738  0.7341  1.1542 -2.6544
 9454TIP3    H252558   1.075   7.152  10.701  0.4426 -1.1331  1.9317
 9455TIP3   OH252559   3.373   5.835  12.960  0.2360  0.5323 -0.2291
 9455TIP3    H152560   3.437   5.796  12.900  0.5589  1.7676 -0.7165
 9455TIP3    H252561   3.374   5.778  13.037  0.3622 -0.6616 -1.0886
 9456TIP3   OH252562   6.302   4.751  11.870  0.5836  0.4639  0.2786
 9456TIP3    H152563   6.353   4.689  11.923  0.3771 -0.2087 -0.2969
 9456TIP3    H252564   6.323   4.728  11.779 -1.0303 -0.0866  0.0133
 9457TIP3   OH252565   5.832   7.459  10.548 -0.3082 -0.2045  0.0230
 9457TIP3    H152566   5.758   7.506  10.584 -0.4795 -1.3081  1.1613
 9457TIP3    H252567   5.909   7.505  10.582 -0.4718 -0.8364  1.3035
 9458TIP3   OH252568   3.609   2.486  12.350  0.1375  0.3288  0.3754
 9458TIP3    H152569   3.673   2.552  12.322 -1.2134  1.9439  0.9162
 9458TIP3    H252570   3.538   2.537  12.389 -1.1105 -1.4557  0.5457
 9459TIP3   OH252571   4.451   3.634  12.069 -0.0447 -0.4162  0.2046
 9459TIP3    H152572   4.381   3.643  12.005 -1.1273  1.0032  1.5290
 9459TIP3    H252573   4.483   3.544  12.057 -1.1852 -0.6542 -1.3009
 9460TIP3   OH252574   1.032   6.722  11.427  0.1062 -0.5618  0.1021
 9460TIP3    H152575   1.085   6.645  11.449 -0.1615 -0.3745  1.4840
 9460TIP3    H252576   1.046   6.735  11.333  2.6078 -0.4483  0.4358
 9461TIP3   OH252577   6.406   5.995  10.333  0.0497 -0.0971  0.4602
 9461TIP3    H152578   6.463   6.020  10.260 -1.6896  1.3314 -0.4661
 9461TIP3    H252579   6.421   5.901  10.344  2.6590  0.2364  0.3685
 9462TIP3   OH252580   0.525   5.896  12.747  0.0254  0.0865  0.4633
 9462TIP3    H152581   0.478   5.886  12.830  0.1918 -0.3835  0.5039
 9462TIP3    H252582   0.506   5.985  12.719 -0.7728 -0.0510  0.5511
 9463TIP3   OH252583   1.730   3.682  12.406  0.1402  0.2427  0.2018
 9463TIP3    H152584   1.763   3.674  12.495 -0.4545  1.2462  0.5231
 9463TIP3    H252585   1.785   3.750  12.367  0.6260 -0.4285 -0.3239
 9464TIP3   OH252586   0.316   1.176  12.017  0.4691 -0.0471 -1.0524
 9464TIP3    H152587   0.298   1.270  12.011 -1.3603 -0.2958 -0.2293
 9464TIP3    H252588   0.286   1.151  12.104  0.6084 -1.4550 -1.3773
 9465TIP3   OH252589   2.608   6.726  11.257 -1.1214 -0.2354  0.2369
 9465TIP3    H152590   2.633   6.666  11.327 -1.5684 -0.0159  0.5925
 9465TIP3    H252591   2.643   6.811  11.285 -0.0827 -0.4071 -0.4911
 9466TIP3   OH252592   3.719   5.983  11.090 -0.4463  0.0686 -0.2266
 9466TIP3    H152593   3.650   5.919  11.104 -1.9799  1.6031 -0.4845
 9466TIP3    H252594   3.678   6.068  11.107  0.8014  1.1926 -2.3434
 9467TIP3   OH252595   1.483   6.207  11.198 -0.0467 -0.4128 -0.7589
 9467TIP3    H152596   1.556   6.146  11.198  1.1995  1.0193 -1.2671
 9467TIP3    H252597   1.449   6.204  11.109  0.7719  0.4832 -1.1118
 9468TIP3   OH252598   0.887   6.314  12.466 -0.1011  0.1038 -0.1971
 9468TIP3    H152599   0.964   6.274  12.426  1.2542  1.9885  0.3879
 9468TIP3    H252600   0.821   6.315  12.397  0.9288 -0.1048 -1.1997
 9469TIP3   OH252601   7.586   0.767  10.833 -0.7915 -0.4132 -0.6080
 9469TIP3    H152602   7.679   0.759  10.810 -0.6224 -1.1595  0.2782
 9469TIP3    H252603   7.568   0.861  10.829  0.6014  0.0119  1.3647
 9470TIP3   OH252604   2.956   2.115  10.372  0.6327  0.2917  0.0239
 9470TIP3    H152605   2.989   2.029  10.347 -0.0341 -0.1961  0.7944
 9470TIP3    H252606   3.031   2.158  10.414  0.9791  0.1261 -0.4051
 9471TIP3   OH252607   1.656   3.904  11.612  0.0891 -0.4333  0.2888
 9471TIP3    H152608   1.736   3.956  11.619  0.4555 -1.0252  0.5706
 9471TIP3    H252609   1.658   3.847  11.688  0.5256 -2.0006 -0.8338
 9472TIP3   OH252610   5.758   3.021  13.185 -0.2554 -0.0523 -0.3314
 9472TIP3    H152611   5.799   2.946  13.227  0.0105  0.6794  0.7740
 9472TIP3    H252612   5.757   3.089  13.253  0.0706  1.1442 -1.4708
 9473TIP3   OH252613   4.611   0.022  11.474 -0.7230  0.1102  0.6108
 9473TIP3    H152614   4.704   0.002  11.487 -0.3184  0.5317 -1.3034
 9473TIP3    H252615   4.595   0.099  11.528 -0.4113 -0.9198  2.2443
 9474TIP3   OH252616   5.312   5.467  11.028 -0.0364 -0.0301 -0.0626
 9474TIP3    H152617   5.324   5.535  10.962  1.6273 -0.8743 -0.7011
 9474TIP3    H252618   5.225   5.483  11.065 -0.8266  0.7395 -2.1443
 9475TIP3   OH252619   1.991   3.599  11.088  0.0358  0.3063  0.4338
 9475TIP3    H152620   2.080   3.581  11.119  0.2073  0.4120  0.0167
 9475TIP3    H252621   1.981   3.693  11.097  0.6267  0.5519 -1.1875
 9476TIP3   OH252622   1.754   4.823  10.576  0.0833 -0.2156  0.6873
 9476TIP3    H152623   1.820   4.889  10.554 -0.9044  0.7708  0.5813
 9476TIP3    H252624   1.751   4.823  10.672  0.1869 -0.2138  0.6905
 9477TIP3   OH252625   3.018   5.515  12.360 -0.2562  0.1301 -0.5610
 9477TIP3    H152626   2.999   5.534  12.268 -1.0669 -0.5782 -0.5555
 9477TIP3    H252627   3.011   5.600  12.404  0.1281  0.4697 -1.1460
 9478TIP3   OH252628   7.671   5.515  10.292 -0.5705 -0.0924 -0.0599
 9478TIP3    H152629   7.670   5.558  10.378  2.1999 -0.4126  0.2217
 9478TIP3    H252630   7.687   5.587  10.230 -0.1160 -0.1554 -0.0228
 9479TIP3   OH252631   2.447   6.959  11.369  0.1279  0.3760 -0.0459
 9479TIP3    H152632   2.408   6.948  11.456 -1.2059  0.6001 -0.6002
 9479TIP3    H252633   2.468   7.053  11.364  0.3058  0.3430  0.0709
 9480TIP3   OH252634   3.034   6.092  12.001  0.0131 -0.0439  0.1690
 9480TIP3    H152635   2.996   6.169  12.043  0.9467  0.6484 -0.2283
 9480TIP3    H252636   2.980   6.078  11.923 -0.3214  0.0474  0.3834
 9481TIP3   OH252637   0.079   3.987  11.724  0.0011 -0.0894  0.0650
 9481TIP3    H152638   0.015   3.943  11.668  0.6921  0.4030 -1.1356
 9481TIP3    H252639   0.031   4.006  11.804 -0.8670 -1.2654 -0.1438
 9482TIP3   OH252640   7.082   1.112  12.066 -0.1730  0.1595 -0.4609
 9482TIP3    H152641   7.158   1.167  12.082  0.0292 -0.0733 -0.6158
 9482TIP3    H252642   7.093   1.038  12.126  1.2693 -1.4037 -2.5032
 9483TIP3   OH252643   0.873   4.910  11.338 -0.3778  0.4700 -0.0675
 9483TIP3    H152644   0.781   4.894  11.315 -0.1274 -0.4150 -0.4812
 9483TIP3    H252645   0.917   4.921  11.254  0.3667 -1.8065 -0.0216
 9484TIP3   OH252646   2.347   4.347  11.676 -0.1902  0.4897 -0.2459
 9484TIP3    H152647   2.297   4.318  11.599  0.0465  2.2455 -1.1144
 9484TIP3    H252648   2.408   4.412  11.642  2.0839 -0.8911  0.9600
 9485TIP3   OH252649   3.239   5.331  12.080 -0.1050  0.1561 -0.0084
 9485TIP3    H152650   3.311   5.358  12.023 -1.1531 -0.5726 -1.7546
 9485TIP3    H252651   3.240   5.236  12.077 -0.1541  0.0957  1.2756
 9486TIP3   OH252652   4.027   5.181  11.393 -0.4585  0.0671 -0.2472
 9486TIP3    H152653   4.006   5.090  11.415 -2.5868 -0.2308 -2.9432
 9486TIP3    H252654   4.048   5.222  11.477  1.2039 -2.9968  1.0141
 9487TIP3   OH252655   3.342   7.158  12.600 -0.0629  0.0062 -0.3486
 9487TIP3    H152656   3.341   7.102  12.678  0.0598  0.6339  0.1083
 9487TIP3    H252657   3.339   7.247  12.634  1.2940  0.3355 -1.0162
 9488TIP3   OH252658   6.936   0.688  13.327  0.0249 -0.2963 -0.0769
 9488TIP3    H152659   6.885   0.607  13.325 -1.1261  0.2308  2.5306
 9488TIP3    H252660   6.874   0.754  13.359  1.3901  1.2236 -0.4328
 9489TIP3   OH252661   6.735   1.403  10.751 -0.5600  0.2423  0.0765
 9489TIP3    H152662   6.709   1.496  10.751  0.4271  0.5364  0.7949
 9489TIP3    H252663   6.772   1.389  10.838  0.3139 -0.5286 -0.4013
 9490TIP3   OH252664   4.414   0.049  10.539 -0.3639 -0.1522 -0.4831
 9490TIP3    H152665   4.368  -0.035  10.543 -0.3886 -0.1855 -1.3079
 9490TIP3    H252666   4.352   0.110  10.499 -0.0302  0.0255 -0.7476
 9491TIP3   OH252667   6.626   5.590  12.060 -0.4374  0.1817  0.1529
 9491TIP3    H152668   6.559   5.641  12.015 -0.5321  0.2605  0.3835
 9491TIP3    H252669   6.666   5.652  12.122 -0.9094 -0.1642  0.8125
 9492TIP3   OH252670   3.191   3.839  12.521  0.3779 -0.1011 -0.3379
 9492TIP3    H152671   3.246   3.854  12.598  1.3899 -1.0825 -0.8587
 9492TIP3    H252672   3.183   3.744  12.514 -3.1804 -0.0663  0.9516
 9493TIP3   OH252673   5.212   3.364  12.378 -0.5334  0.5434 -0.3255
 9493TIP3    H152674   5.192   3.276  12.348  0.5173  0.6516 -1.4723
 9493TIP3    H252675   5.229   3.413  12.297  1.6009  1.0733  0.3667
 9494TIP3   OH252676   5.867   6.495  10.942  0.2907  0.5827 -0.1591
 9494TIP3    H152677   5.887   6.544  11.022  1.0118  0.2866 -0.1526
 9494TIP3    H252678   5.841   6.562  10.879 -0.0976  0.8380  0.2618
 9495TIP3   OH252679   7.278   4.730  10.484 -0.2287  0.1279  0.1986
 9495TIP3    H152680   7.187   4.718  10.511 -0.5633  1.3513 -0.3309
 9495TIP3    H252681   7.329   4.707  10.561 -0.8271 -2.8687 -0.1516
 9496TIP3   OH252682   6.612   7.431  11.610  0.1051  0.3899 -0.3675
 9496TIP3    H152683   6.548   7.427  11.539 -1.3687  0.6380  0.9036
 9496TIP3    H252684   6.674   7.360  11.590 -1.1379 -0.5292 -1.1019
 9497TIP3   OH252685   1.844   3.828  10.505 -0.3973 -0.1159  0.1500
 9497TIP3    H152686   1.879   3.909  10.469 -0.1678 -1.4762 -3.0798
 9497TIP3    H252687   1.758   3.851  10.540 -0.3790  1.5049 -0.7996
 9498TIP3   OH252688   3.894   2.725  13.292  0.3195  0.1771 -0.1408
 9498TIP3    H152689   3.843   2.732  13.373  1.2021 -0.0036  0.4453
 9498TIP3    H252690   3.904   2.631  13.278 -1.6583  0.1215 -1.6706
 9499TIP3   OH252691   2.791   6.045  11.538 -0.0567 -0.5617 -0.1390
 9499TIP3    H152692   2.837   6.036  11.454 -0.9380 -0.0570 -0.6836
 9499TIP3    H252693   2.700   6.024  11.518 -0.3047 -0.2773  0.6605
 9500TIP3   OH252694   1.809   0.466  11.765 -0.1684  0.2037 -0.0396
 9500TIP3    H152695   1.830   0.403  11.834 -2.4363  0.6760  1.1807
 9500TIP3    H252696   1.864   0.542  11.785 -1.2025  0.5565  1.6531
 9501TIP3   OH252697   1.781   7.249  12.469 -0.3230  0.2203  0.5300
 9501TIP3    H152698   1.817   7.162  12.452  2.2201  1.0894  1.0483
 9501TIP3    H252699   1.761   7.248  12.563  0.3476  0.3889  0.6807
 9502TIP3   OH252700   2.303   1.208  11.083 -0.1586  0.2437 -0.0268
 9502TIP3    H152701   2.249   1.191  11.160 -1.0504  0.6479 -0.5419
 9502TIP3    H252702   2.353   1.287  11.106 -1.7156  1.3992 -0.4919
 9503TIP3   OH252703   6.970   3.366  11.369  0.4481 -0.1430  0.2325
 9503TIP3    H152704   7.004   3.415  11.444  1.0843 -0.6842  0.3136
 9503TIP3    H252705   6.993   3.419  11.293  1.6088 -0.5514  0.2793
 9504TIP3   OH252706   3.485   2.967  10.294  0.0293 -0.3079 -0.5127
 9504TIP3    H152707   3.442   3.037  10.343  1.2863 -0.6477  1.1608
 9504TIP3    H252708   3.466   2.987  10.202 -0.6039  1.5686 -0.0213
 9505TIP3   OH252709   3.257   5.408  11.393 -0.3446  0.5015  0.3155
 9505TIP3    H152710   3.242   5.314  11.383 -1.8030  0.7735 -0.4066
 9505TIP3    H252711   3.169   5.444  11.405  0.1306  1.8566 -0.1906
 9506TIP3   OH252712   6.376   5.513  10.588 -0.6410 -0.0655  0.5198
 9506TIP3    H152713   6.286   5.487  10.605 -0.5019 -0.8483  0.1068
 9506TIP3    H252714   6.429   5.437  10.614 -0.1633  0.1022  0.0651
 9507TIP3   OH252715   1.518   2.190  10.499 -0.3872 -0.3443 -0.0443
 9507TIP3    H152716   1.539   2.282  10.517  1.4850 -0.6812 -0.2640
 9507TIP3    H252717   1.441   2.172  10.553 -0.7716  1.3353  0.0227
 9508TIP3   OH252718   7.045   5.670  12.562  0.4320  0.7821  0.3824
 9508TIP3    H152719   6.982   5.726  12.516 -0.8415  0.4665  1.6483
 9508TIP3    H252720   7.004   5.653  12.647  0.9644 -1.6642  0.2397
 9509TIP3   OH252721   1.804   0.273  11.540  0.1697  0.0135 -0.4116
 9509TIP3    H152722   1.829   0.360  11.570  2.2181  0.2342 -2.5081
 9509TIP3    H252723   1.711   0.266  11.563 -0.0560  2.7397 -0.1888
 9510TIP3   OH252724   1.788   5.200  11.883  0.3059  0.1271 -0.2168
 9510TIP3    H152725   1.753   5.263  11.819 -0.6345 -1.6709 -1.5673
 9510TIP3    H252726   1.710   5.165  11.925  0.8067 -0.3363  0.3179
 9511TIP3   OH252727   1.898   2.545  12.481 -0.1057 -0.1124  0.0608
 9511TIP3    H152728   1.890   2.626  12.531 -1.6334 -0.0890 -0.1566
 9511TIP3    H252729   1.969   2.561  12.419  0.6611  0.4725  1.0536
 9512TIP3   OH252730   3.081   4.942  10.764  0.4535  0.8697 -0.0468
 9512TIP3    H152731   2.990   4.960  10.787  0.2075  0.9598 -1.0472
 9512TIP3    H252732   3.124   4.922  10.848 -0.7865 -0.5536  0.3004
 9513TIP3   OH252733   7.317   1.654  11.183 -0.2183 -0.5495 -0.0283
 9513TIP3    H152734   7.231   1.664  11.142 -0.3206  3.4289  0.7876
 9513TIP3    H252735   7.302   1.672  11.276  1.2064 -1.9731  0.5365
 9514TIP3   OH252736   6.769   1.736  11.424 -0.5476 -0.1982  0.3950
 9514TIP3    H152737   6.688   1.686  11.422 -0.8419  0.2687  0.3790
 9514TIP3    H252738   6.743   1.825  11.398  0.4697 -0.7336 -2.9321
 9515TIP3   OH252739   0.848   7.448  10.222 -0.0490 -0.0495 -0.0952
 9515TIP3    H152740   0.775   7.394  10.250  0.0020  0.2061  0.5680
 9515TIP3    H252741   0.853   7.517  10.289  1.5499 -0.7495  0.5701
 9516TIP3   OH252742   5.670   4.626  10.712  0.1430 -0.8202  0.5318
 9516TIP3    H152743   5.699   4.649  10.800  3.0780  0.7925 -0.7232
 9516TIP3    H252744   5.683   4.532  10.706  1.3970 -0.7181  1.3391
 9517TIP3   OH252745   0.644   4.335  11.732 -0.3382 -0.0995 -0.5435
 9517TIP3    H152746   0.736   4.310  11.719 -0.6333 -1.9039  0.5544
 9517TIP3    H252747   0.648   4.409  11.792  0.3705 -1.6511  1.4413
 9518TIP3   OH252748   5.920   4.670  12.503  0.0786 -0.0371 -0.4917
 9518TIP3    H152749   5.848   4.678  12.565  1.4838 -0.6928  1.3170
 9518TIP3    H252750   5.936   4.576  12.496 -0.0381  0.0347 -1.8348
 9519TIP3   OH252751   1.747   1.163  12.887  0.4839  0.0295 -0.6147
 9519TIP3    H152752   1.815   1.218  12.924 -0.1281  0.3312  0.0810
 9519TIP3    H252753   1.775   1.074  12.905  0.9538  0.1350 -0.8112
 9520TIP3   OH252754   5.078   2.813  11.091 -0.0198  0.1684 -0.7274
 9520TIP3    H152755   5.080   2.727  11.050  0.1737  0.0357 -0.4385
 9520TIP3    H252756   5.136   2.806  11.166  0.2943  0.6570 -0.9146
 9521TIP3   OH252757   5.994   4.129  11.928 -0.0893 -0.2392 -0.4415
 9521TIP3    H152758   5.979   4.134  11.833 -0.9887 -2.5015 -0.4884
 9521TIP3    H252759   6.045   4.049  11.940 -0.3783 -0.2378  1.0209
 9522TIP3   OH252760   0.028   5.654  11.800 -0.1487  0.2214  0.6025
 9522TIP3    H152761   0.110   5.700  11.821  0.3858 -1.0408  1.3636
 9522TIP3    H252762   0.049   5.603  11.722 -0.2713  0.0542  0.6808
 9523TIP3   OH252763   6.924   2.194  12.819 -0.0306  0.4223  0.6706
 9523TIP3    H152764   6.972   2.276  12.830 -1.3440  1.0328  2.4986
 9523TIP3    H252765   6.964   2.152  12.743  1.9713  1.8356  0.8597
 9524TIP3   OH252766   4.597   0.029  12.832  0.1722 -0.2141  0.2625
 9524TIP3    H152767   4.519   0.028  12.887 -0.1464  1.4699 -0.0977
 9524TIP3    H252768   4.670   0.018  12.893 -0.2974 -0.9885  0.6940
 9525TIP3   OH252769   1.191   7.228  12.847  0.3869 -0.2925 -0.1930
 9525TIP3    H152770   1.216   7.224  12.755  0.5887 -0.8202 -0.1203
 9525TIP3    H252771   1.099   7.200  12.848 -0.0192  0.9918 -0.3819
 9526TIP3   OH252772   7.460   2.828  10.988 -0.4169 -0.1749  0.0157
 9526TIP3    H152773   7.481   2.784  10.906 -0.7601 -0.6566  0.1812
 9526TIP3    H252774   7.390   2.889  10.966 -1.0492 -0.8555  0.0957
 9527TIP3   OH252775   3.504   6.419  10.959 -0.0855  0.3339 -0.1181
 9527TIP3    H152776   3.462   6.480  10.899 -0.6944 -0.1806 -0.2250
 9527TIP3    H252777   3.464   6.334  10.940  2.5097 -0.6382 -1.6981
 9528TIP3   OH252778   1.146   0.047  11.246 -0.4293 -0.7866  0.2742
 9528TIP3    H152779   1.096   0.008  11.173 -1.6063  1.1077  0.0035
 9528TIP3    H252780   1.228   0.077  11.205 -0.6393 -0.6500 -0.0496
 9529TIP3   OH252781   4.071   2.024  12.381 -0.1780  0.2644  0.0565
 9529TIP3    H152782   4.094   2.102  12.431  0.2363 -0.5986  1.2423
 9529TIP3    H252783   4.147   2.008  12.325 -0.5504  1.0978 -0.7139
 9530TIP3   OH252784   6.394   0.401  11.048  0.6731  0.2806 -0.5071
 9530TIP3    H152785   6.401   0.491  11.016 -0.0642  0.2990 -0.6488
 9530TIP3    H252786   6.366   0.350  10.971  0.6311  0.0146 -0.3197
 9531TIP3   OH252787   1.018   4.217  12.487  0.1106  0.1524 -0.1628
 9531TIP3    H152788   0.932   4.255  12.506 -0.0269 -0.1402 -0.1960
 9531TIP3    H252789   0.999   4.142  12.431  0.2687 -0.6738  0.8550
 9532TIP3   OH252790   4.479   2.648  12.333 -0.6307  0.2193  0.4811
 9532TIP3    H152791   4.508   2.594  12.407  1.4256 -0.0087 -0.4081
 9532TIP3    H252792   4.498   2.594  12.256 -0.1105  1.5466 -0.3477
 9533TIP3   OH252793   1.176   3.988  12.934  0.4506  0.0808  0.2243
 9533TIP3    H152794   1.183   4.063  12.874  3.0990 -0.3281 -0.0822
 9533TIP3    H252795   1.171   4.027  13.021  2.4188  0.6668  0.1169
 9534TIP3   OH252796   1.678   2.684  11.547  0.3801  0.7266  0.4704
 9534TIP3    H152797   1.625   2.748  11.500  0.8139  1.1694  0.5889
 9534TIP3    H252798   1.756   2.671  11.493 -0.9253 -1.8017 -1.0147
 9535TIP3   OH252799   7.069   6.579  12.785 -0.4721 -0.4361 -0.1064
 9535TIP3    H152800   7.113   6.610  12.864 -0.6467 -0.8722  0.1686
 9535TIP3    H252801   7.129   6.514  12.749 -0.7302 -0.7831  0.0821
 9536TIP3   OH252802   7.194   6.749  12.480  0.1702  0.8793  0.0883
 9536TIP3    H152803   7.281   6.778  12.451 -0.4040  0.6564 -2.0848
 9536TIP3    H252804   7.171   6.809  12.551  2.9899 -0.4968  2.3502
 9537TIP3   OH252805   6.814   4.231  11.319  0.2222 -0.1496  0.2463
 9537TIP3    H152806   6.799   4.197  11.231  0.2875  0.9794 -0.2263
 9537TIP3    H252807   6.732   4.275  11.342  0.8490  1.2179 -0.0561
 9538TIP3   OH252808   5.033   3.733  12.057  0.1808  0.7286  0.1817
 9538TIP3    H152809   4.971   3.714  12.127  1.3533  0.3048  1.1533
 9538TIP3    H252810   5.075   3.816  12.083  0.8989  0.3708  0.2043
 9539TIP3   OH252811   3.816   2.910  12.462  0.2427  0.4218  0.4150
 9539TIP3    H152812   3.755   2.975  12.497 -0.4864 -1.0828  2.0532
 9539TIP3    H252813   3.901   2.954  12.464 -0.0156  0.9207  2.7624
 9540TIP3   OH252814   4.268   4.293  11.738 -0.3964 -0.7368 -0.1930
 9540TIP3    H152815   4.191   4.260  11.692 -0.7213  0.8052 -0.8297
 9540TIP3    H252816   4.301   4.363  11.682  0.0789  0.2001  1.2106
 9541TIP3   OH252817   2.023   4.647  10.746  0.2461 -0.3666  0.7323
 9541TIP3    H152818   1.951   4.611  10.694 -0.7409 -0.7581  2.3004
 9541TIP3    H252819   1.994   4.735  10.770  0.1089 -0.6492  1.6544
 9542TIP3   OH252820   7.176   7.045  12.298 -0.2463  0.1686  0.4282
 9542TIP3    H152821   7.103   6.986  12.281 -1.4300  0.9434  2.5081
 9542TIP3    H252822   7.185   7.047  12.393 -0.2353  3.2238  0.4835
 9543TIP3   OH252823   7.303   5.246  10.432  0.1524  0.0657  0.1756
 9543TIP3    H152824   7.375   5.188  10.409 -0.2333 -0.9353  1.3983
 9543TIP3    H252825   7.227   5.208  10.389  0.1205  0.4269 -0.0974
 9544TIP3   OH252826   3.886   7.415  11.842 -0.3845 -0.0579 -0.2436
 9544TIP3    H152827   3.862   7.394  11.752  0.9453 -4.0560  0.0942
 9544TIP3    H252828   3.820   7.371  11.895  0.7756 -0.7503  0.6698
 9545TIP3   OH252829   3.273   1.564  11.217  0.1738  0.5424 -0.6589
 9545TIP3    H152830   3.360   1.534  11.189  0.3569 -0.6668  1.0315
 9545TIP3    H252831   3.247   1.501  11.285 -1.6082  1.4551 -0.4384
 9546TIP3   OH252832   2.529   0.170  10.123 -0.6353  0.2328  0.3659
 9546TIP3    H152833   2.601   0.229  10.144  0.0463 -0.1550 -0.7746
 9546TIP3    H252834   2.532   0.162  10.028 -1.6512 -0.4734  0.3756
 9547TIP3   OH252835   3.036   2.430  11.158  0.5955  0.4040  0.2428
 9547TIP3    H152836   2.955   2.474  11.183  0.5167 -0.3251  1.3452
 9547TIP3    H252837   3.074   2.486  11.090 -0.1072  1.5128  0.7330
 9548TIP3   OH252838   2.834   3.351  10.402  0.2374 -0.8133 -0.1471
 9548TIP3    H152839   2.782   3.380  10.477  0.5094 -2.1566  0.5893
 9548TIP3    H252840   2.925   3.357  10.431  0.4056 -0.3645 -0.7382
 9549TIP3   OH252841   4.933   2.576  11.336 -0.4586 -0.2779  0.8252
 9549TIP3    H152842   4.905   2.668  11.342 -0.3220 -0.2914  1.8414
 9549TIP3    H252843   5.024   2.577  11.367  0.9794 -0.1417 -2.9099
 9550TIP3   OH252844   3.998   2.911  10.270  0.2598 -0.6415 -0.3520
 9550TIP3    H152845   3.942   2.948  10.338  0.5220  0.4250 -0.6962
 9550TIP3    H252846   4.000   2.817  10.289  1.4976 -0.2179  2.0053
 9551TIP3   OH252847   1.000   4.144  12.110 -0.1416 -0.0321 -0.2684
 9551TIP3    H152848   1.002   4.076  12.178 -1.8438 -0.1818 -0.3291
 9551TIP3    H252849   0.908   4.170  12.105 -0.1640 -0.3500 -2.8400
 9552TIP3   OH252850   0.611   5.828  10.730  0.2409  0.4018 -0.0014
 9552TIP3    H152851   0.649   5.763  10.672 -2.9557 -0.4742 -1.3083
 9552TIP3    H252852   0.623   5.912  10.685  0.6162  0.1609 -0.3474
 9553TIP3   OH252853   2.967   7.186  11.367  0.0349  0.5961  0.7363
 9553TIP3    H152854   2.960   7.107  11.313  1.2998 -0.5003  2.0670
 9553TIP3    H252855   2.907   7.248  11.327 -0.0523 -0.5987 -1.1236
 9554TIP3   OH252856   5.983   6.339  10.381  0.4556 -0.1386  0.0242
 9554TIP3    H152857   6.073   6.305  10.389  0.4724 -0.2645 -0.6521
 9554TIP3    H252858   5.935   6.268  10.338 -0.0143 -0.1382  0.5385
 9555TIP3   OH252859   3.175   5.921  10.444 -0.2907  0.6845  0.7196
 9555TIP3    H152860   3.141   5.869  10.371 -1.4816  1.3128  0.8021
 9555TIP3    H252861   3.198   5.857  10.511  0.8389  0.0993 -0.2026
 9556TIP3   OH252862   4.241   6.803  10.392 -0.2233 -0.0598  0.3353
 9556TIP3    H152863   4.269   6.712  10.386 -2.7982 -0.8817 -0.5241
 9556TIP3    H252864   4.158   6.799  10.439  1.6205  2.4047  4.3294
 9557TIP3   OH252865   4.245   6.263  12.162 -0.1116 -0.6201  0.3831
 9557TIP3    H152866   4.292   6.199  12.109 -0.4150  1.9347 -3.3462
 9557TIP3    H252867   4.152   6.241  12.149 -0.1751 -0.2337  0.1608
 9558TIP3   OH252868   3.163   7.276  12.394 -0.0616 -0.0678  0.6186
 9558TIP3    H152869   3.163   7.370  12.415 -0.8430 -0.3430  1.9973
 9558TIP3    H252870   3.224   7.238  12.457 -0.6835 -0.6327  0.8907
 9559TIP3   OH252871   5.209   0.355  12.125 -0.1520  0.1157 -0.1383
 9559TIP3    H152872   5.178   0.270  12.093 -0.1540  0.1421 -0.2080
 9559TIP3    H252873   5.152   0.419  12.082 -0.5462  0.1209  0.3934
 9560TIP3   OH252874   3.094   3.036  11.551  0.1556  0.0480 -0.0680
 9560TIP3    H152875   3.046   2.999  11.477  0.5874 -0.4016 -0.1239
 9560TIP3    H252876   3.093   2.967  11.617  1.4009 -0.2713 -0.3628
 9561TIP3   OH252877   1.736   3.358  10.595 -0.1748  0.6273  0.0151
 9561TIP3    H152878   1.783   3.442  10.591  1.3067 -0.2358 -2.5486
 9561TIP3    H252879   1.804   3.292  10.604 -1.0376 -0.5031 -1.2832
 9562TIP3   OH252880   6.662   6.873  10.736  0.1583 -0.1675 -0.1108
 9562TIP3    H152881   6.729   6.811  10.706 -0.5340 -1.4250  0.8161
 9562TIP3    H252882   6.579   6.828  10.720 -0.4205  0.9308 -0.2817
 9563TIP3   OH252883   1.731   1.006  10.212  0.0687 -0.1063 -0.3301
 9563TIP3    H152884   1.693   0.920  10.228  0.5360 -1.0426 -3.6368
 9563TIP3    H252885   1.820   0.988  10.180  0.3812  1.6217 -0.5348
 9564TIP3   OH252886   2.706   1.346  12.002 -0.3326 -0.4964 -0.1728
 9564TIP3    H152887   2.644   1.366  12.073 -2.0809 -0.9336 -1.5053
 9564TIP3    H252888   2.741   1.431  11.977 -0.1317 -0.2730  0.8243
 9565TIP3   OH252889   1.656   0.831  11.819 -0.1176 -0.1542 -0.8019
 9565TIP3    H152890   1.736   0.778  11.824 -0.0266  0.0746  0.8707
 9565TIP3    H252891   1.589   0.770  11.787  0.2476 -0.9670 -0.0536
 9566TIP3   OH252892   1.462   5.024  11.785  0.2979 -0.3821  0.1652
 9566TIP3    H152893   1.423   5.110  11.800 -0.1939 -0.3228 -1.2900
 9566TIP3    H252894   1.399   4.962  11.823  0.5752 -0.1285  1.0686
 9567TIP3   OH252895   3.037   1.361  10.389 -0.1926  0.6114 -0.3277
 9567TIP3    H152896   3.031   1.268  10.411 -0.5448  0.5032 -0.8710
 9567TIP3    H252897   2.949   1.386  10.362 -0.1888  1.2031  0.1813
 9568TIP3   OH252898   1.219   0.727  11.609  0.2199  0.3609 -0.0333
 9568TIP3    H152899   1.268   0.794  11.562 -0.8818  0.8895 -0.4611
 9568TIP3    H252900   1.142   0.711  11.555  1.2702 -2.5496 -0.8573
 9569TIP3   OH252901   7.408   7.018  11.392 -0.9231 -0.0083  0.4260
 9569TIP3    H152902   7.483   7.061  11.432 -0.8859  0.6930 -0.3726
 9569TIP3    H252903   7.371   7.084  11.333 -1.4961 -0.7254 -0.0358
 9570TIP3   OH252904   5.820   7.017  10.835  0.5196  0.8996 -0.5039
 9570TIP3    H152905   5.754   6.986  10.898  0.8641  0.5136 -0.3327
 9570TIP3    H252906   5.769   7.049  10.761  0.1627 -0.9656 -1.1181
 9571TIP3   OH252907   3.642   0.075  11.786  0.4721  0.1048 -0.2353
 9571TIP3    H152908   3.579   0.143  11.810 -1.7517 -1.8526 -0.1035
 9571TIP3    H252909   3.707   0.077  11.856 -1.1069  0.2625  1.3035
 9572TIP3   OH252910   5.680   5.874  11.381 -0.1081 -0.2639 -0.3717
 9572TIP3    H152911   5.600   5.909  11.420 -1.1145 -2.2220 -0.5330
 9572TIP3    H252912   5.729   5.951  11.351 -0.6046  1.1620  2.1709
 9573TIP3   OH252913   5.351   2.399  10.979 -0.0531  0.2957 -0.0275
 9573TIP3    H152914   5.417   2.467  10.985  0.6926 -0.4206  0.0480
 9573TIP3    H252915   5.366   2.357  10.895  0.5794 -0.8511  0.6349
 9574TIP3   OH252916   4.276   5.411  10.560 -0.0341  0.4626  0.2630
 9574TIP3    H152917   4.356   5.361  10.540  0.1379  0.8983 -0.1433
 9574TIP3    H252918   4.224   5.351  10.613  2.2227  1.4344  3.9700
 9575TIP3   OH252919   4.303   3.928  12.421 -0.0161 -0.2965 -0.3787
 9575TIP3    H152920   4.305   4.021  12.444  0.0796 -0.4638  0.3042
 9575TIP3    H252921   4.335   3.926  12.331 -1.0747  0.4384 -0.7872
 9576TIP3   OH252922   2.820   3.105  10.643 -0.0276  0.1711 -0.2184
 9576TIP3    H152923   2.811   3.042  10.571 -1.1317  0.4844 -0.3812
 9576TIP3    H252924   2.767   3.180  10.616 -0.6328  0.2133  1.0086
 9577TIP3   OH252925   4.661   4.933  10.699  0.1504  0.1372  0.3352
 9577TIP3    H152926   4.743   4.887  10.714  0.8139  1.3862  0.6552
 9577TIP3    H252927   4.638   4.913  10.608  1.3766  0.6368 -0.0981
 9578TIP3   OH252928   5.043   7.574  11.261 -0.0909 -0.4903 -0.3242
 9578TIP3    H152929   4.953   7.560  11.230 -0.9012  0.4837  1.4416
 9578TIP3    H252930   5.065   7.493  11.307 -1.0960  0.2382  1.5145
 9579TIP3   OH252931   0.227   1.239  11.679  0.2675 -0.3288  0.0420
 9579TIP3    H152932   0.183   1.159  11.708  2.1658 -2.3718 -2.2840
 9579TIP3    H252933   0.155   1.298  11.655 -1.2223 -0.7324  3.0306
 9580TIP3   OH252934   5.555   3.373  11.098  0.1581  0.0803  0.3966
 9580TIP3    H152935   5.536   3.357  11.191  2.1319  0.1001  0.8433
 9580TIP3    H252936   5.593   3.292  11.067  0.4969  0.4306 -0.1129
 9581TIP3   OH252937   5.724   1.913  13.049 -0.5074 -0.1356  0.8490
 9581TIP3    H152938   5.694   1.832  13.089 -0.8547  0.0271  0.9252
 9581TIP3    H252939   5.787   1.885  12.982 -1.8287 -0.5954 -0.2487
 9582TIP3   OH252940   2.625   3.802  10.364 -0.1861 -0.7816  0.2102
 9582TIP3    H152941   2.660   3.861  10.297 -2.5776  0.7635  0.2118
 9582TIP3    H252942   2.594   3.726  10.315 -2.0215  0.3849 -0.5393
 9583TIP3   OH252943   2.915   5.697  12.779  0.0704 -0.2168  0.0445
 9583TIP3    H152944   3.000   5.704  12.822  1.1504  0.7890 -2.1503
 9583TIP3    H252945   2.862   5.766  12.821  0.4974 -0.4213  0.9574
 9584TIP3   OH252946   5.931   5.483  11.455 -0.3339  0.1854  0.4362
 9584TIP3    H152947   5.851   5.440  11.483  0.5007 -1.6344  0.2077
 9584TIP3    H252948   6.001   5.435  11.499  0.7052  0.7689 -0.5210
 9585TIP3   OH252949   4.300   1.956  12.234 -0.1945 -0.2709  0.0235
 9585TIP3    H152950   4.367   1.999  12.287 -1.4317 -1.8063  3.0443
 9585TIP3    H252951   4.268   2.025  12.176  1.6991  1.3508  0.7805
 9586TIP3   OH252952   4.726   2.801  12.152  0.3263  0.3778 -0.3670
 9586TIP3    H152953   4.665   2.811  12.225 -0.2441 -2.2564 -0.3572
 9586TIP3    H252954   4.670   2.791  12.075  0.8845  1.6943 -0.9695
 9587TIP3   OH252955   1.021   5.031  11.935  0.2401  0.1012 -0.2604
 9587TIP3    H152956   1.058   4.968  11.996 -1.0969 -0.8161 -0.3449
 9587TIP3    H252957   1.089   5.046  11.870  0.7530 -0.8754  0.0416
 9588TIP3   OH252958   3.830   3.014  12.755 -0.6207  0.3075  0.1466
 9588TIP3    H152959   3.829   2.978  12.844 -1.4025 -1.6464 -0.5988
 9588TIP3    H252960   3.921   3.039  12.740  0.0371 -1.6562  0.6286
 9589TIP3   OH252961   7.193   0.866  12.734  0.3881 -0.4105  0.0819
 9589TIP3    H152962   7.188   0.773  12.712  1.2189 -0.1875 -1.0601
 9589TIP3    H252963   7.129   0.876  12.806  0.4354 -1.8855  0.3627
 9590TIP3   OH252964   3.672   7.636  11.541 -0.8059 -0.0264 -0.3736
 9590TIP3    H152965   3.659   7.658  11.634  1.3978  2.2262 -0.5029
 9590TIP3    H252966   3.607   7.688  11.495 -1.8953 -1.1364 -0.1287
 9591TIP3   OH252967   2.017   4.869  11.785  0.3781 -0.2253 -0.0031
 9591TIP3    H152968   2.040   4.918  11.706 -0.0232 -1.6966 -1.0464
 9591TIP3    H252969   1.922   4.869  11.787  0.3845 -0.0128  0.6179
 9592TIP3   OH252970   3.777   5.715  12.032  0.1805 -0.4762  0.5198
 9592TIP3    H152971   3.706   5.716  11.967 -0.6939 -0.3834  1.4433
 9592TIP3    H252972   3.793   5.807  12.051  1.8372 -0.3987 -1.0021
 9593TIP3   OH252973   6.845   0.355  12.069  0.1570  0.4749 -0.8762
 9593TIP3    H152974   6.836   0.404  11.988 -1.0545 -1.8252 -2.2470
 9593TIP3    H252975   6.755   0.346  12.102  0.4310 -0.1882 -0.2803
 9594TIP3   OH252976   3.513   4.231  11.364 -0.1065 -0.8745  0.4135
 9594TIP3    H152977   3.468   4.310  11.334 -1.7304 -0.8792  2.5794
 9594TIP3    H252978   3.539   4.186  11.283 -0.8914  0.8886 -0.8863
 9595TIP3   OH252979   4.041   3.067  11.066  0.2971 -0.0862  0.1465
 9595TIP3    H152980   4.082   3.084  11.150  0.5021  1.4266 -0.2380
 9595TIP3    H252981   4.074   3.136  11.008 -1.3610  0.0943 -0.6447
 9596TIP3   OH252982   4.412   3.074  12.660  0.2576  0.2791 -0.0455
 9596TIP3    H152983   4.506   3.067  12.679  0.0127 -0.7628  0.8934
 9596TIP3    H252984   4.396   3.007  12.593  0.0786  0.0917  0.1870
 9597TIP3   OH252985   1.262   1.034  11.133 -0.1360 -0.0938  0.8148
 9597TIP3    H152986   1.178   0.989  11.136  0.3714 -1.1871 -0.4264
 9597TIP3    H252987   1.325   0.967  11.106  0.4216  1.5847 -2.5608
 9598TIP3   OH252988   5.343   0.909  10.476  0.1794 -0.7201  0.1694
 9598TIP3    H152989   5.278   0.884  10.410  0.5395 -1.5841  0.1346
 9598TIP3    H252990   5.291   0.945  10.548 -0.2887 -0.7348 -0.1579
 9599TIP3   OH252991   4.011   1.867  11.956  0.3771  0.2287  0.6473
 9599TIP3    H152992   4.069   1.816  11.901 -0.4865 -0.3069  0.2124
 9599TIP3    H252993   4.018   1.828  12.043 -0.8810 -1.1872  0.1515
 9600TIP3   OH252994   1.901   7.364  11.619  0.5540  0.2045  0.2353
 9600TIP3    H152995   1.955   7.378  11.541  1.1637 -0.8350  0.4588
 9600TIP3    H252996   1.839   7.437  11.618  2.0932  1.5713  0.0993
 9601TIP3   OH252997   2.139   1.354  12.433  0.3302 -0.3126  0.2543
 9601TIP3    H152998   2.048   1.339  12.458  0.6763 -0.0377  1.7373
 9601TIP3    H252999   2.135   1.372  12.339 -1.0123 -1.4155  0.0737
 9602TIP3   OH253000   5.750   4.609  11.196  0.2753  0.4779 -0.3563
 9602TIP3    H153001   5.773   4.527  11.152  0.4539  1.3679 -2.0101
 9602TIP3    H253002   5.817   4.619  11.264  0.3525 -0.6452 -0.2418
 9603TIP3   OH253003   3.701   4.866  11.639 -0.2311 -0.2042 -0.1823
 9603TIP3    H153004   3.750   4.860  11.722  0.6562 -0.6706 -0.7157
 9603TIP3    H253005   3.697   4.775  11.608  0.9262  0.1471 -1.4630
 9604TIP3   OH253006   0.131   1.552  11.054 -0.3284  0.1600 -0.0176
 9604TIP3    H153007   0.143   1.644  11.078  1.4491 -0.0956  0.2018
 9604TIP3    H253008   0.039   1.546  11.028 -0.2153  2.2692 -1.1706
 9605TIP3   OH253009   2.558   4.908  11.468 -0.2832 -0.0053 -0.7676
 9605TIP3    H153010   2.568   4.998  11.496 -0.7431  0.1706 -1.1599
 9605TIP3    H253011   2.474   4.905  11.423 -0.9373 -0.9343  0.4327
 9606TIP3   OH253012   0.438   2.016  10.606  0.3810  0.6685  0.3977
 9606TIP3    H153013   0.373   2.001  10.675  0.2564  2.4198  0.6969
 9606TIP3    H253014   0.453   2.111  10.607  0.1892  0.7826 -2.1425
 9607TIP3   OH253015   0.226   7.651  12.326 -0.2900  0.0656 -0.2272
 9607TIP3    H153016   0.295   7.716  12.325 -0.2708  0.1391  2.1247
 9607TIP3    H253017   0.147   7.700  12.347 -1.1194 -0.0479 -2.6909
 9608TIP3   OH253018   2.550   6.420  10.931  0.1999  0.1171 -1.1374
 9608TIP3    H153019   2.458   6.412  10.903 -0.8667  0.2154  1.9305
 9608TIP3    H253020   2.558   6.511  10.960  0.2582 -0.6307  1.4724
 9609TIP3   OH253021   7.527   7.596  11.729 -0.0359  0.6119  0.0239
 9609TIP3    H153022   7.583   7.547  11.789  1.2804 -0.3628 -1.8755
 9609TIP3    H253023   7.487   7.664  11.783  1.7594  0.3610  1.8043
 9610TIP3   OH253024   0.487   4.654  11.046 -0.1223  0.3313 -0.0254
 9610TIP3    H153025   0.463   4.669  10.954 -0.6790  1.1153  0.2358
 9610TIP3    H253026   0.408   4.676  11.095 -0.0817 -0.8329  0.6072
 9611TIP3   OH253027   5.629   5.992  12.412  0.1375 -0.0838  0.7717
 9611TIP3    H153028   5.611   5.923  12.475 -2.5583  0.9245  1.2313
 9611TIP3    H253029   5.568   6.062  12.435  0.4962  1.1325 -1.6782
 9612TIP3   OH253030   7.334   7.396  12.996  0.2190 -0.4079 -0.0889
 9612TIP3    H153031   7.301   7.467  13.052  0.5886 -0.6858  0.4886
 9612TIP3    H253032   7.407   7.436  12.948  0.7619 -0.5275  0.6152
 9613TIP3   OH253033   2.642   5.774  12.578  0.2071  0.5022  0.9329
 9613TIP3    H153034   2.640   5.825  12.659  2.3117  0.9865  0.7263
 9613TIP3    H253035   2.691   5.828  12.517  1.2528 -1.1229  0.2609
 9614TIP3   OH253036   1.918   5.800  12.340 -0.3551 -0.3436  0.1792
 9614TIP3    H153037   1.853   5.748  12.292 -1.7612  0.9938  0.5318
 9614TIP3    H253038   1.867   5.843  12.408  1.0880  0.0965  1.0063
 9615TIP3   OH253039   7.528   4.607  10.366  0.0969 -0.2082  0.4226
 9615TIP3    H153040   7.438   4.631  10.342  0.3720  0.6287  0.2190
 9615TIP3    H253041   7.528   4.511  10.363 -0.9912 -0.2494  1.1662
 9616TIP3   OH253042   3.409   4.177  12.343 -0.4634 -0.1689  0.1823
 9616TIP3    H153043   3.433   4.246  12.406 -0.1651 -0.4481  0.3806
 9616TIP3    H253044   3.482   4.116  12.347  0.3053  0.5622 -1.5579
 9617TIP3   OH253045   0.030   2.119  11.851  0.1243  0.1809  0.3374
 9617TIP3    H153046  -0.006   2.208  11.851  0.4122  0.3029 -0.1102
 9617TIP3    H253047   0.120   2.129  11.882  0.6636  0.2790 -1.1654
 9618TIP3   OH253048   3.702   3.737  12.126 -0.1183  0.4255 -0.1602
 9618TIP3    H153049   3.743   3.653  12.106  0.1909  0.0356  1.8441
 9618TIP3    H253050   3.774   3.800  12.129 -0.3886  0.8889 -2.0003
 9619TIP3   OH253051   2.820   2.003  12.525 -0.7014 -0.5667  0.8234
 9619TIP3    H153052   2.840   2.070  12.590 -1.6704  0.9373 -0.3561
 9619TIP3    H253053   2.743   1.958  12.560 -0.5709 -0.4887  1.2156
 9620TIP3   OH253054   2.328   0.952  11.947  0.0137 -0.3092  0.0885
 9620TIP3    H153055   2.303   0.966  11.855  0.8120 -0.1507 -0.1085
 9620TIP3    H253056   2.244   0.951  11.994 -0.3419  0.7997 -0.4770
 9621TIP3   OH253057   2.016   0.461  11.211  0.3746 -1.0955  0.6686
 9621TIP3    H153058   1.943   0.412  11.249 -1.5506  0.5811 -0.6165
 9621TIP3    H253059   2.012   0.546  11.255  2.1010 -1.2228  1.1261
 9622TIP3   OH253060   4.723   3.634  10.443 -0.5051 -0.2889  0.4312
 9622TIP3    H153061   4.641   3.683  10.441 -0.8625 -0.8112  1.8035
 9622TIP3    H253062   4.697   3.543  10.451  0.2023 -0.4515  1.0177
 9623TIP3   OH253063   5.373   7.377  12.295 -0.4413  0.6775  0.1406
 9623TIP3    H153064   5.421   7.332  12.365 -0.3179  1.1242  0.3442
 9623TIP3    H253065   5.396   7.330  12.215 -0.7041  0.0605  0.4180
 9624TIP3   OH253066   3.205   2.537  12.271  1.0955 -0.0915  0.3133
 9624TIP3    H153067   3.239   2.448  12.257  0.7117  0.0869 -2.0281
 9624TIP3    H253068   3.254   2.569  12.347  4.2473 -0.8465 -1.2256
 9625TIP3   OH253069   6.432   3.841  10.333 -0.8768  0.0495  0.2009
 9625TIP3    H153070   6.524   3.831  10.357 -0.6502  2.9827  0.9287
 9625TIP3    H253071   6.419   3.779  10.261  1.7981 -0.0655 -0.2747
 9626TIP3   OH253072   6.626   0.897  12.333 -0.3651 -0.2006  0.2126
 9626TIP3    H153073   6.648   0.989  12.319  1.4146 -0.5662  0.3725
 9626TIP3    H253074   6.600   0.892  12.425  0.8654 -0.0739  0.5820
 9627TIP3   OH253075   7.619   0.652  12.607  0.0313 -0.6644  0.1931
 9627TIP3    H153076   7.551   0.585  12.612  2.9447 -3.8927  1.2758
 9627TIP3    H253077   7.692   0.615  12.657  2.0044  3.3232  0.6444
 9628TIP3   OH253078   6.213   5.811  11.250  0.2138 -0.0602  0.8412
 9628TIP3    H153079   6.165   5.730  11.271  0.1793 -0.0172  0.9293
 9628TIP3    H253080   6.195   5.869  11.324  1.6094 -0.5681  1.6177
 9629TIP3   OH253081   7.375   4.839  12.258 -0.0291 -0.6560  0.3462
 9629TIP3    H153082   7.329   4.828  12.341  0.3682  1.5973  0.9365
 9629TIP3    H253083   7.331   4.779  12.198 -2.1578 -0.3476  1.4952
 9630TIP3   OH253084   4.042   7.086  11.874  0.3146 -0.6327 -0.0968
 9630TIP3    H153085   3.972   7.031  11.908  1.2419 -1.2849  0.8687
 9630TIP3    H253086   4.063   7.050  11.788 -0.0090 -0.9334 -0.0493
 9631TIP3   OH253087   3.553   6.937  10.720  0.4006  0.6366 -0.0554
 9631TIP3    H153088   3.532   7.030  10.708 -0.1740  0.8638  2.2634
 9631TIP3    H253089   3.473   6.899  10.756  1.1094 -0.4274  0.4344
 9632TIP3   OH253090   2.856   1.821  10.621 -0.2898  0.6535 -0.2012
 9632TIP3    H153091   2.841   1.765  10.697  1.2726 -1.1596 -1.1435
 9632TIP3    H253092   2.876   1.907  10.659 -2.7628  0.6760  1.2877
 9633TIP3   OH253093   0.471   5.473  12.695 -0.2665  0.0192 -0.7786
 9633TIP3    H153094   0.505   5.398  12.645 -0.7217 -1.9854  1.7004
 9633TIP3    H253095   0.548   5.506  12.741 -0.3031  0.2953 -0.9166
 9634TIP3   OH253096   4.966   0.430  12.291  0.2365 -0.6097  0.2983
 9634TIP3    H153097   5.044   0.458  12.338  0.6285 -0.8408 -0.1986
 9634TIP3    H253098   4.961   0.489  12.216 -0.9574  0.4151  1.1473
 9635TIP3   OH253099   2.844   5.743  11.573 -0.3682 -0.3993 -0.1868
 9635TIP3    H153100   2.848   5.838  11.583 -0.9144  0.0055 -3.0296
 9635TIP3    H253101   2.751   5.724  11.565 -0.3648 -1.3959  1.6961
 9636TIP3   OH253102   2.801   1.651  11.987 -0.2130 -0.2524 -0.3477
 9636TIP3    H153103   2.840   1.631  11.902  0.6371  0.0959 -0.0514
 9636TIP3    H253104   2.755   1.734  11.974 -2.0333 -1.2996 -1.0466
 9637TIP3   OH253105   2.250   7.366  12.102 -0.1564 -0.8580  0.6351
 9637TIP3    H153106   2.207   7.451  12.114  0.0110 -0.7688  0.6026
 9637TIP3    H253107   2.340   7.387  12.077 -0.1250 -1.0450  0.5858
 9638TIP3   OH253108   3.205   3.220  11.220 -0.4648  0.1490 -0.1198
 9638TIP3    H153109   3.248   3.240  11.137 -0.1698 -1.5877 -0.4246
 9638TIP3    H253110   3.113   3.210  11.198 -0.5168  0.5479 -0.0813
 9639TIP3   OH253111   1.484   1.590  12.509 -0.2254  0.2187  0.3928
 9639TIP3    H153112   1.468   1.527  12.579 -0.2557  0.7019  0.8288
 9639TIP3    H253113   1.398   1.602  12.468  0.0404 -1.0661 -0.6051
 9640TIP3   OH253114   6.050   6.587  10.510  0.5516  0.9818 -0.4055
 9640TIP3    H153115   6.057   6.561  10.602 -0.7741  1.9917  0.0203
 9640TIP3    H253116   6.014   6.509  10.466 -0.0327  0.9080  0.1828
 9641TIP3   OH253117   3.127   1.071  11.681 -0.1442 -0.4506  0.0787
 9641TIP3    H153118   3.215   1.068  11.719 -0.2567  2.2590  0.7482
 9641TIP3    H253119   3.140   1.109  11.594 -0.7451  1.1689  0.6715
 9642TIP3   OH253120   2.264   6.217  11.315 -0.0911 -0.0033  0.0741
 9642TIP3    H153121   2.284   6.125  11.331 -2.0190 -0.6001 -0.6681
 9642TIP3    H253122   2.339   6.265  11.352  1.3350 -1.8798 -0.2330
 9643TIP3   OH253123   4.218   4.637  10.704 -0.0938 -0.4377 -0.3000
 9643TIP3    H153124   4.304   4.674  10.683 -0.3668 -0.1107 -0.8772
 9643TIP3    H253125   4.203   4.660  10.795  0.0582  0.2638 -0.4483
 9644TIP3   OH253126   1.136   3.065  12.743 -0.0570 -0.3465  0.1413
 9644TIP3    H153127   1.112   3.139  12.799 -0.4611  0.6876 -1.3318
 9644TIP3    H253128   1.209   3.098  12.691 -0.8758 -0.6039 -1.2221
 9645TIP3   OH253129   3.015   4.825  12.088 -0.1438 -0.1831 -0.2893
 9645TIP3    H153130   3.004   4.848  11.995 -0.7629  0.2968 -0.1067
 9645TIP3    H253131   2.967   4.743  12.098 -2.7164  1.2792  0.2320
 9646TIP3   OH253132   4.348   5.368  12.435 -0.3534  0.2742 -0.0456
 9646TIP3    H153133   4.347   5.272  12.435  1.5273  0.1943  1.1030
 9646TIP3    H253134   4.260   5.393  12.408 -1.3202 -1.7938  0.9382
 9647TIP3   OH253135   0.901   1.242  12.479  0.2739 -0.1800 -0.0094
 9647TIP3    H153136   0.811   1.273  12.483 -0.1864 -1.5332  0.6876
 9647TIP3    H253137   0.904   1.183  12.404  0.7268  0.2721 -0.3547
 9648TIP3   OH253138   4.965   1.986  10.372 -0.3698 -0.1785 -0.1604
 9648TIP3    H153139   4.997   2.074  10.353 -0.6941 -0.0482 -0.1135
 9648TIP3    H253140   4.941   1.950  10.286 -0.4821 -0.1239 -0.1523
 9649TIP3   OH253141   6.268   4.746  12.320 -0.2087  0.1198 -0.2872
 9649TIP3    H153142   6.316   4.672  12.357  0.9897  1.1871  0.4100
 9649TIP3    H253143   6.336   4.810  12.299 -1.3104  1.7291  0.8035
 9650TIP3   OH253144   6.322   1.567  10.940 -0.0435  0.0725  0.2911
 9650TIP3    H153145   6.327   1.662  10.935 -1.7789  0.3238  2.2511
 9650TIP3    H253146   6.253   1.549  11.003  0.0300 -2.5129 -0.2371
 9651TIP3   OH253147   1.671   0.926  12.445 -0.2282 -0.5792  0.3173
 9651TIP3    H153148   1.601   0.912  12.381 -1.0103 -1.6710  1.3891
 9651TIP3    H253149   1.710   0.840  12.457  0.4888 -0.2069  0.6566
 9652TIP3   OH253150   1.063   1.805  11.487  0.3313  0.7463  0.1978
 9652TIP3    H153151   1.045   1.740  11.555 -0.8446  0.6589 -0.1608
 9652TIP3    H253152   1.139   1.854  11.518 -0.3564  0.8958  1.7207
 9653TIP3   OH253153   1.255   2.894  11.657  0.2290 -1.0042  0.3029
 9653TIP3    H153154   1.257   2.963  11.590  0.9416  0.1366  1.4705
 9653TIP3    H253155   1.343   2.857  11.657  0.0868 -1.3474  0.2678
 9654TIP3   OH253156   2.458   0.379  11.690 -0.0538 -0.3237  0.0851
 9654TIP3    H153157   2.422   0.461  11.725  0.7322 -0.2588  0.7788
 9654TIP3    H253158   2.393   0.350  11.626 -0.8969  0.2552  0.6476
 9655TIP3   OH253159   1.085   1.314  12.671  0.2275 -0.1814 -0.0287
 9655TIP3    H153160   1.015   1.305  12.607  0.3701  1.4399 -0.4647
 9655TIP3    H253161   1.044   1.294  12.755 -0.2007 -1.3892 -0.5137
 9656TIP3   OH253162   6.061   1.957  11.539  0.4468  0.2190 -0.1013
 9656TIP3    H153163   6.063   1.953  11.635 -0.8784  0.9422 -0.0175
 9656TIP3    H253164   6.065   1.865  11.511 -0.3710 -0.0859  0.7066
 9657TIP3   OH253165   6.768   3.653  11.828 -0.0171 -0.4024  0.4264
 9657TIP3    H153166   6.821   3.580  11.862  0.9784  1.0680  2.2011
 9657TIP3    H253167   6.812   3.731  11.861 -2.3303  0.9437  0.4813
 9658TIP3   OH253168   3.331   0.486  12.933  0.2085 -0.1134  0.5901
 9658TIP3    H153169   3.264   0.514  12.995  1.7044 -0.9179  2.6929
 9658TIP3    H253170   3.406   0.544  12.951  0.6718 -0.3508 -0.4884
 9659TIP3   OH253171   0.547   3.642  12.131  0.1641  0.9815  0.7253
 9659TIP3    H153172   0.618   3.679  12.184  0.5562  0.8224  0.3140
 9659TIP3    H253173   0.588   3.621  12.047 -0.4796  1.3363  0.3114
 9660TIP3   OH253174   3.749   3.250  12.836 -0.0925  0.3266  0.5384
 9660TIP3    H153175   3.775   3.168  12.793 -0.1194  1.3693 -1.6165
 9660TIP3    H253176   3.827   3.306  12.829  0.1291  0.3304  2.5186
 9661TIP3   OH253177   1.316   7.559  11.067 -0.7306  0.3794 -0.1734
 9661TIP3    H153178   1.251   7.506  11.114 -1.0490 -0.1667 -1.2010
 9661TIP3    H253179   1.311   7.528  10.976  0.7629  0.5318 -0.3343
 9662TIP3   OH253180   6.762   2.002  12.454  0.0719 -0.1497  0.4011
 9662TIP3    H153181   6.770   1.988  12.360 -1.5214 -0.7010  0.3085
 9662TIP3    H253182   6.699   1.935  12.482  0.2274  0.2612  1.7932
 9663TIP3   OH253183   5.608   0.198  11.640  0.4872  0.2700  0.6033
 9663TIP3    H153184   5.528   0.235  11.677  0.6415 -1.5877  3.0719
 9663TIP3    H253185   5.577   0.138  11.572 -0.1584  0.5137  0.6772
 9664TIP3   OH253186   2.064   3.401  11.536  0.5392 -0.2161  0.7120
 9664TIP3    H153187   2.085   3.409  11.630  0.4520 -0.0176  0.7165
 9664TIP3    H253188   2.086   3.487  11.500  1.5868 -0.6179  0.3466
 9665TIP3   OH253189   7.503   5.756  11.480  0.7103 -0.1860  0.2628
 9665TIP3    H153190   7.589   5.788  11.510  1.2765 -1.9828  0.6604
 9665TIP3    H253191   7.466   5.711  11.556  0.6864 -1.8917 -0.7172
 9666TIP3   OH253192   2.464   4.045  10.771 -0.3902  0.4687  0.2530
 9666TIP3    H153193   2.414   4.122  10.796  0.3842  0.6599  1.2908
 9666TIP3    H253194   2.449   3.982  10.842 -2.2014 -0.9508 -1.2706
 9667TIP3   OH253195   0.899   0.172  11.506 -0.1671  0.1927  0.3247
 9667TIP3    H153196   0.809   0.193  11.480 -0.7355 -0.7944  1.3740
 9667TIP3    H253197   0.889   0.119  11.586  1.3705  0.5282  0.7731
 9668TIP3   OH253198   2.651   4.329  13.007 -0.3676 -0.2052  0.1451
 9668TIP3    H153199   2.744   4.349  13.022 -0.0608 -1.0968 -0.4806
 9668TIP3    H253200   2.611   4.414  12.987  0.6450 -0.0190 -1.2014
 9669TIP3   OH253201   1.910   6.667  10.931  0.2559  0.1703 -0.0964
 9669TIP3    H153202   1.998   6.705  10.928 -0.1558  1.1693  0.3475
 9669TIP3    H253203   1.863   6.711  10.861 -0.3319  0.7481  0.6544
 9670TIP3   OH253204   0.940   1.078  10.655  0.7483 -0.5226 -0.2561
 9670TIP3    H153205   1.019   1.132  10.659  1.9177 -2.1071 -1.2121
 9670TIP3    H253206   0.970   0.989  10.669 -1.2144 -0.9644  1.8751
 9671TIP3   OH253207   4.361   7.308  11.285 -0.0225  0.0673 -0.0637
 9671TIP3    H153208   4.339   7.240  11.349 -2.1062  0.3339 -0.3958
 9671TIP3    H253209   4.348   7.391  11.331  1.1626  0.2704 -0.0612
 9672TIP3   OH253210   4.894   4.374  13.137  0.4958  0.1574  0.2391
 9672TIP3    H153211   4.979   4.418  13.140  0.6213 -0.1032  0.5880
 9672TIP3    H253212   4.910   4.288  13.175  0.2858 -0.2455 -0.5695
 9673TIP3   OH253213   2.305   1.886  12.023 -0.1181  0.0510  0.1114
 9673TIP3    H153214   2.353   1.809  12.054 -0.3814 -0.2047 -0.1116
 9673TIP3    H253215   2.256   1.855  11.947 -0.5216  0.3459  0.2448
 9674TIP3   OH253216   3.919   1.544  12.012  0.3781  0.3849 -0.1078
 9674TIP3    H153217   3.933   1.449  12.021 -1.7984  0.0929  0.6260
 9674TIP3    H253218   3.999   1.583  12.049  0.9580 -1.1455  0.3526
 9675TIP3   OH253219   0.155   6.680  12.434 -0.8181  0.4012  0.0574
 9675TIP3    H153220   0.090   6.610  12.426 -0.2514 -0.0196 -1.0203
 9675TIP3    H253221   0.224   6.642  12.487  0.8381 -0.9543 -2.8230
 9676TIP3   OH253222   3.427   4.697  10.266 -0.0339 -0.6021 -0.6158
 9676TIP3    H153223   3.335   4.703  10.289  0.2261  0.3732  0.2024
 9676TIP3    H253224   3.445   4.602  10.263 -0.5412 -0.8010  1.3599
 9677TIP3   OH253225   1.496   6.734  12.117 -0.2716  0.4637  0.0236
 9677TIP3    H153226   1.434   6.753  12.046 -1.6346  1.4201  1.4148
 9677TIP3    H253227   1.518   6.820  12.153  0.0822 -0.0293  1.0108
 9678TIP3   OH253228   3.792   5.664  12.348 -0.2465 -0.0017  0.2738
 9678TIP3    H153229   3.815   5.754  12.373 -0.6142  0.3263 -0.5282
 9678TIP3    H253230   3.780   5.669  12.253  2.3718 -1.4524 -0.2252
 9679TIP3   OH253231   2.511   6.037  11.865 -0.3252  1.0039  0.0115
 9679TIP3    H153232   2.465   6.098  11.807  0.1777  0.1493 -1.3552
 9679TIP3    H253233   2.464   5.955  11.856  1.0292  0.2848 -0.9207
 9680TIP3   OH253234   0.602   6.586  10.637  0.0382 -0.0777 -0.2309
 9680TIP3    H153235   0.566   6.498  10.631 -2.4982  0.5782  2.6539
 9680TIP3    H253236   0.567   6.632  10.561 -0.0988 -1.0758 -0.7871
 9681TIP3   OH253237   5.739   1.418  12.208  0.0098 -0.2584 -0.5584
 9681TIP3    H153238   5.829   1.448  12.214 -0.1049  0.0356 -0.3114
 9681TIP3    H253239   5.688   1.496  12.189  0.1674 -0.8629 -4.3699
 9682TIP3   OH253240   6.025   1.521  11.737  0.4277 -0.3810  0.5394
 9682TIP3    H153241   5.989   1.433  11.726  0.2567 -0.4571  1.6395
 9682TIP3    H253242   5.954   1.571  11.778 -0.1192  0.7629 -1.6138
 9683TIP3   OH253243   3.300   3.126  10.806  0.4096 -0.0080  0.2356
 9683TIP3    H153244   3.206   3.130  10.787 -0.0082 -1.3504  1.7766
 9683TIP3    H253245   3.341   3.115  10.720 -0.9021 -0.2607 -0.3920
 9684TIP3   OH253246   1.452   4.120  12.791  0.0956 -0.3962 -0.1745
 9684TIP3    H153247   1.360   4.117  12.767 -0.3367 -2.9872  1.3742
 9684TIP3    H253248   1.497   4.072  12.721  0.1653  0.1091 -0.4818
 9685TIP3   OH253249   0.649   6.402  11.649 -0.4797  0.4003  0.1178
 9685TIP3    H153250   0.704   6.393  11.572  0.7111 -0.9312  1.0709
 9685TIP3    H253251   0.641   6.313  11.684 -1.3978  0.8940  1.2638
 9686TIP3   OH253252   3.040   6.394  10.619  0.1293 -0.3060  0.6737
 9686TIP3    H153253   3.018   6.485  10.637  2.4603  0.3505  0.5368
 9686TIP3    H253254   2.984   6.343  10.678 -0.7871  1.2334  1.1722
 9687TIP3   OH253255   7.191   5.936  11.541 -0.6027 -0.1437 -0.2046
 9687TIP3    H153256   7.141   5.882  11.602 -0.9836  0.7488  0.3026
 9687TIP3    H253257   7.270   5.959  11.589 -0.2427 -0.6084 -0.5772
 9688TIP3   OH253258   1.021   0.788  11.422 -0.0734 -0.1135  0.0142
 9688TIP3    H153259   1.040   0.879  11.399 -1.4952  0.7730  2.0053
 9688TIP3    H253260   0.969   0.795  11.502 -0.9936 -2.6669 -0.2900
 9689TIP3   OH253261   6.206   2.495  10.644  0.1196 -0.1976 -0.5372
 9689TIP3    H153262   6.154   2.460  10.716  1.1756 -0.2021  0.2494
 9689TIP3    H253263   6.168   2.581  10.627 -1.1345 -0.8245 -1.0525
 9690TIP3   OH253264   0.550   6.849  10.888  0.6100 -0.3196  0.2263
 9690TIP3    H153265   0.515   6.917  10.946  2.1182  0.6425  0.0614
 9690TIP3    H253266   0.519   6.767  10.926 -2.3421  0.4372 -0.2759
 9691TIP3   OH253267   3.386   2.514  11.872 -0.1457 -0.0053 -0.3117
 9691TIP3    H153268   3.335   2.506  11.791  0.2384 -1.4677 -0.4295
 9691TIP3    H253269   3.455   2.449  11.864  1.2054  1.2820  0.2792
 9692TIP3   OH253270   3.278   6.858  10.807 -0.8780 -0.0756 -0.3673
 9692TIP3    H153271   3.304   6.926  10.869 -0.5280  0.4569 -1.0870
 9692TIP3    H253272   3.198   6.890  10.767 -0.8382 -0.1937 -0.5436
 9693TIP3   OH253273   5.394   6.515  13.084  0.8501  0.5708  0.0628
 9693TIP3    H153274   5.343   6.439  13.056  1.0843  0.8557 -1.1787
 9693TIP3    H253275   5.329   6.584  13.099  0.8444  0.9349 -1.5216
 9694TIP3   OH253276   6.948   0.710  11.086 -0.1195  0.0105  0.7615
 9694TIP3    H153277   6.903   0.707  11.002  1.0807 -0.6962  0.1125
 9694TIP3    H253278   7.041   0.709  11.064  0.4893 -5.5892  2.0533
 9695TIP3   OH253279   7.658   4.994  12.012 -0.1789  0.4406 -0.1572
 9695TIP3    H153280   7.665   5.062  11.945  0.5571  1.0290  0.5058
 9695TIP3    H253281   7.652   5.042  12.095  0.8136 -0.3026  0.3604
 9696TIP3   OH253282   6.311   5.150  13.051  0.3476  0.6264  0.3856
 9696TIP3    H153283   6.228   5.159  13.099  0.1323 -1.9828  0.7031
 9696TIP3    H253284   6.326   5.235  13.011 -2.3295  1.2667  0.5738
 9697TIP3   OH253285   5.848   1.485  13.019 -0.2484 -0.3106 -0.1779
 9697TIP3    H153286   5.929   1.524  12.986  0.5262 -0.0877  1.8427
 9697TIP3    H253287   5.790   1.560  13.033 -0.9505 -0.4877 -1.8326
 9698TIP3   OH253288   6.040   1.484  12.532 -0.1825 -0.0418 -0.0375
 9698TIP3    H153289   6.049   1.497  12.437 -0.2229 -0.3882 -0.0899
 9698TIP3    H253290   6.122   1.519  12.568  0.2379 -0.7550 -0.2834
 9699TIP3   OH253291   4.147   6.330  11.358 -0.5291  0.0836  0.3599
 9699TIP3    H153292   4.196   6.339  11.277 -0.2085  1.8770  0.6980
 9699TIP3    H253293   4.212   6.348  11.427 -0.8767 -1.0479  1.0184
 9700TIP3   OH253294   3.763   0.546  12.036 -0.1070 -0.1697 -0.5780
 9700TIP3    H153295   3.695   0.585  12.092 -0.0641  0.1958 -0.7775
 9700TIP3    H253296   3.809   0.486  12.093  0.3630  0.6846 -0.0354
 9701TIP3   OH253297   7.203   3.947  11.774 -0.7231  0.6219 -0.1139
 9701TIP3    H153298   7.233   3.939  11.683 -1.0913  0.0406 -0.1905
 9701TIP3    H253299   7.261   4.012  11.813  0.1341  0.0958 -0.4726
 9702TIP3   OH253300   5.350   3.136  11.237 -0.2638 -0.6293  0.3180
 9702TIP3    H153301   5.295   3.104  11.308  0.6622 -1.5705  0.6371
 9702TIP3    H253302   5.399   3.209  11.276 -1.7864  0.7151 -0.1812
 9703TIP3   OH253303   3.928   3.556  12.700 -0.1240 -0.2309 -0.4158
 9703TIP3    H153304   3.959   3.488  12.760 -1.9121 -0.5191  0.2587
 9703TIP3    H253305   3.902   3.628  12.758  2.0901  1.2423 -1.1340
 9704TIP3   OH253306   4.363   5.082  12.511 -0.1330 -0.4366  0.2815
 9704TIP3    H153307   4.353   5.137  12.589  0.3471 -1.6205  1.1953
 9704TIP3    H253308   4.386   4.996  12.544  0.5547 -0.8623 -1.1961
 9705TIP3   OH253309   0.960   0.630  13.180 -0.5848 -0.5208  0.5307
 9705TIP3    H153310   0.904   0.683  13.236  0.2767  0.0194  0.9135
 9705TIP3    H253311   1.049   0.655  13.205 -0.1751 -0.4978 -0.8568
 9706TIP3   OH253312   0.841   6.467  11.472  0.3915  0.0929  0.0228
 9706TIP3    H153313   0.844   6.374  11.453  2.4977  0.2377 -0.5486
 9706TIP3    H253314   0.821   6.508  11.388 -0.7153  0.1769  0.3075
 9707TIP3   OH253315   4.025   0.492  11.540  0.5052 -0.0327 -0.0295
 9707TIP3    H153316   4.048   0.546  11.616  1.1411  1.6543 -1.3510
 9707TIP3    H253317   4.067   0.407  11.558 -0.1035  0.0069  1.8696
 9708TIP3   OH253318   5.271   5.192  11.968 -0.2395 -0.1901  0.0632
 9708TIP3    H153319   5.306   5.237  11.891 -1.7923  0.8470 -0.0795
 9708TIP3    H253320   5.188   5.155  11.937 -1.1601  0.7175  1.3556
 9709TIP3   OH253321   3.697   6.164  10.891  0.1109 -0.3725 -0.0316
 9709TIP3    H153322   3.682   6.119  10.808 -0.5389 -1.2289  0.5290
 9709TIP3    H253323   3.710   6.093  10.954 -0.1440  0.2498  0.7314
 9710TIP3   OH253324   2.155   1.765  11.827  0.1662  0.0160  0.1749
 9710TIP3    H153325   2.155   1.836  11.762 -0.5480  0.3368  0.5165
 9710TIP3    H253326   2.063   1.752  11.848  0.2983 -0.9752  0.1682
 9711TIP3   OH253327   2.671   2.089  10.851  0.5975 -0.1532  0.1208
 9711TIP3    H153328   2.754   2.041  10.855  0.9165 -0.2454 -3.7497
 9711TIP3    H253329   2.606   2.023  10.829  0.1171  0.4066 -0.1697
 9712TIP3   OH253330   1.497   7.625  12.860  0.0866 -0.3076 -0.4462
 9712TIP3    H153331   1.431   7.570  12.817 -0.8583  0.1608  0.3598
 9712TIP3    H253332   1.561   7.644  12.791 -0.4683 -1.0064 -1.1780
 9713TIP3   OH253333   0.255   4.676  11.206 -0.0388 -0.0605 -0.0312
 9713TIP3    H153334   0.253   4.744  11.273 -2.7515 -1.4206  1.4184
 9713TIP3    H253335   0.299   4.602  11.248  2.4212  0.4954 -1.4224
 9714TIP3   OH253336   4.338   4.257  12.487 -0.0311  0.4631 -0.8086
 9714TIP3    H153337   4.285   4.334  12.508  1.2349  0.9860  0.6587
 9714TIP3    H253338   4.351   4.261  12.393 -1.3827  1.0972 -0.9883
 9715TIP3   OH253339   3.242   3.913  10.362 -0.0851 -0.9627 -0.3276
 9715TIP3    H153340   3.259   3.981  10.297  0.6051 -0.2685  0.5546
 9715TIP3    H253341   3.308   3.928  10.430 -0.9248 -1.5350  0.6337
 9716TIP3   OH253342   6.858   6.987  12.512  0.4967  0.4290  0.0852
 9716TIP3    H153343   6.875   7.080  12.497 -1.6652  0.9972  0.6748
 9716TIP3    H253344   6.925   6.960  12.574  1.1467  1.6091 -0.0658
 9717TIP3   OH253345   5.801   2.234  12.022 -0.0889 -0.1358  0.3664
 9717TIP3    H153346   5.800   2.144  12.056  1.9402  0.0416  1.0628
 9717TIP3    H253347   5.884   2.240  11.974 -0.0369  1.4413  0.5917
 9718TIP3   OH253348   0.684   5.506  11.320  0.0753 -0.4539  0.3646
 9718TIP3    H153349   0.612   5.523  11.380  0.6482 -0.6764  1.1260
 9718TIP3    H253350   0.748   5.575  11.337  0.5587 -0.9299  0.5263
 9719TIP3   OH253351   3.933   3.474  11.293 -0.1708  0.3853  0.3403
 9719TIP3    H153352   3.899   3.401  11.241  0.1072  0.1010  0.5582
 9719TIP3    H253353   3.855   3.510  11.337 -0.2012 -0.2521  0.8219
 9720TIP3   OH253354   6.436   7.191  11.826 -0.4263 -0.6339  0.4722
 9720TIP3    H153355   6.516   7.147  11.798  0.2359  0.5426  0.4466
 9720TIP3    H253356   6.467   7.266  11.877 -1.5236 -0.2258  0.5556
 9721TIP3   OH253357   0.322   6.441  11.725 -0.0152 -0.0371  0.0707
 9721TIP3    H153358   0.349   6.355  11.692 -1.0487  0.2914 -1.7745
 9721TIP3    H253359   0.375   6.504  11.677 -3.2339  0.5804 -3.1246
 9722TIP3   OH253360   2.734   2.316  12.488  0.1610 -0.0403 -0.2704
 9722TIP3    H153361   2.745   2.271  12.572 -3.4823 -1.8317 -0.5506
 9722TIP3    H253362   2.809   2.288  12.436  1.1324 -0.9903  1.5334
 9723TIP3   OH253363   1.858   1.489  10.337  0.2603 -0.5374  0.0143
 9723TIP3    H153364   1.915   1.558  10.302  0.5142 -0.8703 -0.2379
 9723TIP3    H253365   1.848   1.427  10.265  0.5533 -1.0845  0.4304
 9724TIP3   OH253366   5.811   2.195  11.303 -0.0475  0.5549  0.3823
 9724TIP3    H153367   5.725   2.234  11.290  0.1486  1.3480  1.3608
 9724TIP3    H253368   5.800   2.135  11.377 -0.5351 -1.9254 -1.5857
 9725TIP3   OH253369   5.238   6.933  12.719  0.6978 -0.7730 -0.7641
 9725TIP3    H153370   5.289   6.939  12.800 -1.7338  0.2593  0.7887
 9725TIP3    H253371   5.252   7.016  12.675 -2.1232  1.0177  1.3594
 9726TIP3   OH253372   2.934   4.479  12.030 -0.2144 -0.5440 -0.0201
 9726TIP3    H153373   2.858   4.430  12.061 -0.9310  0.0608 -0.7676
 9726TIP3    H253374   2.896   4.558  11.990  0.9026  0.9742  1.7305
 9727TIP3   OH253375   1.860   7.565  12.515 -0.2937 -0.0633  0.2583
 9727TIP3    H153376   1.864   7.498  12.583  0.7631  0.1576  0.4455
 9727TIP3    H253377   1.855   7.648  12.563 -1.6904 -0.0030  0.0283
 9728TIP3   OH253378   3.521   4.087  10.804  0.4094 -0.3539  0.1952
 9728TIP3    H153379   3.491   4.177  10.791  2.2122  0.3306  0.4899
 9728TIP3    H253380   3.467   4.054  10.876  1.8479  1.6275  2.3338
 9729TIP3   OH253381   6.536   0.012  12.565  0.2132 -0.5222 -0.3447
 9729TIP3    H153382   6.546  -0.075  12.527  2.6331 -0.9852  1.1300
 9729TIP3    H253383   6.485  -0.003  12.644  1.5410 -0.8421  0.4865
 9730TIP3   OH253384   7.479   0.554  10.974  0.1248  0.0937 -0.3429
 9730TIP3    H153385   7.552   0.509  11.017 -1.1161 -1.1044  0.6176
 9730TIP3    H253386   7.520   0.617  10.916  1.9213  0.6100  1.3892
 9731TIP3   OH253387   4.531   3.168  12.248  0.1952 -0.5950  0.3842
 9731TIP3    H153388   4.575   3.251  12.266 -0.1177 -0.4071  0.2964
 9731TIP3    H253389   4.567   3.107  12.312  0.7490 -0.5022  0.1667
 9732TIP3   OH253390   4.346   4.733  11.698  1.0270 -0.5012 -0.2793
 9732TIP3    H153391   4.365   4.814  11.650 -0.3450 -0.2264 -0.3972
 9732TIP3    H253392   4.251   4.724  11.693  1.0992 -1.8026  0.2640
 9733TIP3   OH253393   7.037   4.084  10.410 -0.8875 -0.4522 -0.1400
 9733TIP3    H153394   7.069   4.050  10.326 -0.5104 -0.1484 -0.1229
 9733TIP3    H253395   7.111   4.071  10.470  0.7955  3.7593 -0.9416
 9734TIP3   OH253396   0.124   5.597  11.538  0.2451  0.6475  0.2516
 9734TIP3    H153397   0.216   5.620  11.527  0.4533 -0.6514 -0.9713
 9734TIP3    H253398   0.110   5.524  11.478 -1.9318  1.7086 -0.6495
 9735TIP3   OH253399   0.081   6.852  10.414 -0.4638  0.2640 -0.3207
 9735TIP3    H153400   0.126   6.787  10.469  0.1848 -0.2189 -1.3934
 9735TIP3    H253401  -0.009   6.853  10.447 -0.1728 -0.2404  0.5414
 9736TIP3   OH253402   1.726   4.297  11.281  0.4434  0.2515 -0.0623
 9736TIP3    H153403   1.743   4.205  11.302  0.1283  0.2112  0.0217
 9736TIP3    H253404   1.803   4.325  11.232  0.2980 -0.2096 -0.5660
 9737TIP3   OH253405   5.315   3.553  12.192 -0.6861 -0.5023 -0.9005
 9737TIP3    H153406   5.408   3.536  12.177 -0.3686  0.2907  0.0222
 9737TIP3    H253407   5.270   3.500  12.127  0.3243 -2.4122 -0.1363
 9738TIP3   OH253408   6.178   2.331  11.114 -0.0375 -0.0901  0.2261
 9738TIP3    H153409   6.245   2.388  11.153  0.5786 -0.9885  0.5068
 9738TIP3    H253410   6.164   2.262  11.180 -0.9955 -0.1034  0.0244
 9739TIP3   OH253411   3.268   2.288  12.407  0.1905 -0.1063 -0.0502
 9739TIP3    H153412   3.353   2.244  12.398 -0.0918 -0.4210 -1.3558
 9739TIP3    H253413   3.221   2.236  12.473  0.3925 -0.9404 -0.5412
 9740TIP3   OH253414   6.488   4.166  10.901 -0.4290 -0.3410  0.2868
 9740TIP3    H153415   6.473   4.106  10.974 -1.7865 -0.0230  0.2977
 9740TIP3    H253416   6.403   4.207  10.886  0.7117  2.5791  1.1472
 9741TIP3   OH253417   2.121   0.277  10.240  0.1297  0.3763 -0.6257
 9741TIP3    H153418   2.191   0.228  10.283  0.5130  0.3791 -1.2374
 9741TIP3    H253419   2.102   0.228  10.160 -0.8506  0.1554 -0.2751
 9742TIP3   OH253420   1.575   6.860  10.146 -0.3948 -0.2032  0.3238
 9742TIP3    H153421   1.537   6.850  10.060  0.9767 -0.5210 -0.2762
 9742TIP3    H253422   1.507   6.832  10.207 -0.7196 -1.8700 -0.7527
 9743TIP3   OH253423   0.617   5.244  12.250 -0.0507  0.2248  0.4669
 9743TIP3    H153424   0.561   5.321  12.256 -0.4733 -0.1494  1.4113
 9743TIP3    H253425   0.702   5.278  12.220 -0.2577  1.0425  0.8062
 9744TIP3   OH253426   1.887   2.111  10.369  0.7490 -0.0503  0.7042
 9744TIP3    H153427   1.902   2.174  10.439 -0.9971 -0.1683  1.2228
 9744TIP3    H253428   1.907   2.160  10.289 -0.9311  1.3541  1.0681
 9745TIP3   OH253429   5.597   3.531  12.240 -0.5097  0.4124  0.0958
 9745TIP3    H153430   5.650   3.518  12.319  0.4408  1.0800 -0.4087
 9745TIP3    H253431   5.566   3.622  12.247 -0.7873  0.3320 -0.0831
 9746TIP3   OH253432   7.639   4.048  13.347 -0.2455  0.2614  0.3498
 9746TIP3    H153433   7.689   4.023  13.269 -1.0993  0.0028 -0.1318
 9746TIP3    H253434   7.548   4.030  13.324 -0.4528 -0.5526  1.6942
 9747TIP3   OH253435   2.678   6.199  12.604 -0.2909 -0.0396 -0.0698
 9747TIP3    H153436   2.746   6.175  12.666  0.7810 -0.8638 -1.4874
 9747TIP3    H253437   2.717   6.271  12.553 -0.1062 -1.0612 -1.4302
 9748TIP3   OH253438   3.449   7.269  10.792 -0.0886  0.5646 -0.4715
 9748TIP3    H153439   3.435   7.271  10.698  0.8413 -0.4179 -0.6533
 9748TIP3    H253440   3.533   7.313  10.805 -0.0995  0.4888 -0.1308
 9749TIP3   OH253441   4.056   6.579  11.287  0.1481 -0.5914  0.3832
 9749TIP3    H153442   4.086   6.488  11.291  1.1890 -0.2698  0.0334
 9749TIP3    H253443   4.103   6.623  11.358 -1.1152 -0.5182  1.2237
 9750TIP3   OH253444   3.873   1.260  12.380  0.0893  0.5489 -0.0266
 9750TIP3    H153445   3.891   1.177  12.425  0.4018 -0.4177 -1.8338
 9750TIP3    H253446   3.950   1.313  12.396  0.6515 -0.1784 -0.2617
 9751TIP3   OH253447   4.307   6.592  13.182  0.1405 -0.1916  0.7698
 9751TIP3    H153448   4.348   6.655  13.243 -1.8362  1.9184  0.0593
 9751TIP3    H253449   4.224   6.632  13.159 -1.0134 -2.9091 -0.1657
 9752TIP3   OH253450   5.476   3.451  12.487 -0.3934 -0.4084  0.1764
 9752TIP3    H153451   5.450   3.360  12.501 -4.4642  0.4325 -0.4698
 9752TIP3    H253452   5.444   3.471  12.398  1.3330  1.4077 -0.1049
 9753TIP3   OH253453   6.167   4.622  11.482 -0.2297  1.3141 -0.5739
 9753TIP3    H153454   6.130   4.599  11.568  2.0574  1.1336  0.4401
 9753TIP3    H253455   6.124   4.704  11.459 -1.5022  0.9337  0.3493
 9754TIP3   OH253456   6.726   6.723  12.913 -0.1378 -0.4468  0.3061
 9754TIP3    H153457   6.762   6.635  12.899 -1.1267 -0.7032 -0.8145
 9754TIP3    H253458   6.802   6.779  12.922  0.5592 -1.1097 -1.1147
 9755TIP3   OH253459   4.058   0.811  12.659  0.5923 -0.1526  0.0595
 9755TIP3    H153460   4.050   0.815  12.563 -0.0248  0.1302  0.1156
 9755TIP3    H253461   3.974   0.845  12.691 -0.0244 -2.1755  0.6866
 9756TIP3   OH253462   6.612   0.889  11.393  0.0854 -0.3459 -0.2555
 9756TIP3    H153463   6.630   0.917  11.483  1.2372  0.5787 -0.7511
 9756TIP3    H253464   6.524   0.850  11.398  0.0372 -0.1373  1.2187
 9757TIP3   OH253465   2.771   3.222  12.786  0.0893  0.1951 -0.0575
 9757TIP3    H153466   2.731   3.279  12.720  2.3103 -0.3601 -2.0320
 9757TIP3    H253467   2.769   3.273  12.867 -1.2732  1.5719 -0.9023
 9758TIP3   OH253468   0.664   2.338  12.779  0.2368 -0.6147 -0.2222
 9758TIP3    H153469   0.646   2.275  12.709 -0.3310 -0.9323  0.1984
 9758TIP3    H253470   0.577   2.366  12.808  0.4170 -1.3482  1.1214
 9759TIP3   OH253471   1.650   3.339  11.395 -0.2619  0.3410  0.0495
 9759TIP3    H153472   1.579   3.315  11.335  0.9452  0.8372 -1.6482
 9759TIP3    H253473   1.711   3.389  11.341  0.9862  0.6377  1.6673
 9760TIP3   OH253474   7.123   6.892  11.650 -0.2664  0.2108 -0.0659
 9760TIP3    H153475   7.202   6.874  11.700 -0.4563 -0.0886  0.1314
 9760TIP3    H253476   7.128   6.986  11.630 -0.0264  0.2623  0.2279
 9761TIP3   OH253477   7.123   7.465  12.352  0.8351  0.4408  0.1330
 9761TIP3    H153478   7.042   7.439  12.309  0.9032  1.3430 -0.5732
 9761TIP3    H253479   7.189   7.407  12.314  0.9318  1.3657 -1.1916
 9762TIP3   OH253480   5.485   1.419  12.787 -0.2941 -0.4455  0.0909
 9762TIP3    H153481   5.529   1.364  12.852 -1.9294  0.3659  1.9924
 9762TIP3    H253482   5.459   1.497  12.836 -1.8175  0.0933 -1.4895
 9763TIP3   OH253483   2.870   5.680  13.261 -0.3936  0.3152  0.3082
 9763TIP3    H153484   2.890   5.773  13.262  0.9174  0.0518  1.6091
 9763TIP3    H253485   2.846   5.660  13.352  0.9707 -0.9283  0.4311
 9764TIP3   OH253486   3.205   6.713  12.288 -0.7153 -0.1794 -0.6347
 9764TIP3    H153487   3.213   6.808  12.290 -2.4188  0.0072 -0.6763
 9764TIP3    H253488   3.275   6.681  12.345  0.7301  1.0115 -1.6597
 9765TIP3   OH253489   0.770   1.708  12.220  0.3337  0.3668  0.5527
 9765TIP3    H153490   0.778   1.790  12.170 -0.8855  1.1057  1.5310
 9765TIP3    H253491   0.700   1.660  12.176  1.3301 -0.3901 -0.2817
 9766TIP3   OH253492   3.855   3.070  11.375 -0.0469  0.3583  0.3675
 9766TIP3    H153493   3.860   3.141  11.312  0.9969 -0.5111 -0.5727
 9766TIP3    H253494   3.766   3.037  11.367  0.3058 -0.2814 -1.3007
 9767TIP3   OH253495   1.757   4.832  12.157  0.5216 -0.2524 -0.4464
 9767TIP3    H153496   1.824   4.835  12.225 -1.2313 -0.9603  1.4088
 9767TIP3    H253497   1.746   4.923  12.130  1.8453 -0.0726 -0.4220
 9768TIP3   OH253498   0.582   4.044  12.073  0.2737 -0.5315  0.0515
 9768TIP3    H153499   0.656   3.983  12.074  1.1735  0.5348 -0.0930
 9768TIP3    H253500   0.548   4.040  11.983  1.5600  0.6069 -0.5102
 9769TIP3   OH253501   2.022   7.567  11.400  0.2225  0.2797  0.1537
 9769TIP3    H153502   2.053   7.635  11.341  3.2691 -0.6741  0.4887
 9769TIP3    H253503   2.005   7.612  11.483  0.1489  0.9386 -0.2169
 9770TIP3   OH253504   7.677   4.904  12.814 -0.4229 -0.6643  0.6337
 9770TIP3    H153505   7.722   4.927  12.895  0.2555 -0.8898  0.3357
 9770TIP3    H253506   7.691   4.810  12.805  0.9630 -0.3867 -0.5750
 9771TIP3   OH253507   7.028   6.018  11.022 -0.4489 -0.1075  0.2907
 9771TIP3    H153508   7.076   6.007  11.104  0.6135 -0.6375 -0.3924
 9771TIP3    H253509   7.095   6.030  10.956 -1.1050 -2.9107 -1.0258
 9772TIP3   OH253510   3.886   3.088  11.659 -0.1606  0.1123 -0.0215
 9772TIP3    H153511   3.833   3.009  11.666  0.6133 -0.3925  0.2549
 9772TIP3    H253512   3.912   3.093  11.567 -1.4064  0.8528 -0.3575
 9773TIP3   OH253513   6.963   4.643  11.677 -0.0550  0.1901 -0.3033
 9773TIP3    H153514   7.023   4.680  11.741 -0.7866 -0.4568  0.8046
 9773TIP3    H253515   6.977   4.694  11.597 -0.7170  2.5691  1.0034
 9774TIP3   OH253516   0.774   3.488  12.015 -0.3139 -0.1385 -0.1245
 9774TIP3    H153517   0.857   3.477  11.970 -0.1521 -1.4013  0.4291
 9774TIP3    H253518   0.725   3.551  11.962  0.3639 -0.6064 -1.3475
 9775TIP3   OH253519   4.073   6.650  10.552  0.2810  0.3467  0.1670
 9775TIP3    H153520   4.115   6.566  10.530 -0.3453 -0.3383  1.4632
 9775TIP3    H253521   4.111   6.674  10.636 -0.8774  0.4235  0.6852
 9776TIP3   OH253522   4.203   3.276  10.953  0.4293 -0.2963 -0.1537
 9776TIP3    H153523   4.160   3.272  10.868  1.0078  0.1112 -0.4691
 9776TIP3    H253524   4.171   3.357  10.992  1.1298  0.1471 -0.5052
 9777TIP3   OH253525   3.261   5.708  12.610  0.4751 -0.4103  0.0847
 9777TIP3    H153526   3.312   5.671  12.538  1.8786 -0.4567  1.0560
 9777TIP3    H253527   3.253   5.636  12.673  0.1363 -0.0866  0.4189
 9778TIP3   OH253528   6.067   4.369  11.140 -0.0206 -0.2380 -0.4698
 9778TIP3    H153529   6.000   4.330  11.196 -0.2995  2.1692  1.0078
 9778TIP3    H253530   6.019   4.400  11.063 -0.3789  0.2330 -0.0612
 9779TIP3   OH253531   0.923   1.392  11.931  0.2692  0.0762 -0.4109
 9779TIP3    H153532   1.010   1.355  11.945  1.1390  2.0252 -0.3835
 9779TIP3    H253533   0.931   1.484  11.958 -2.2666 -0.0945  1.3098
 9780TIP3   OH253534   0.031   5.234  11.880  0.5194 -0.0322 -0.2482
 9780TIP3    H153535   0.092   5.234  11.806 -0.5095  0.3172 -1.1219
 9780TIP3    H253536   0.047   5.317  11.924  1.1724 -0.2614 -0.0497
 9781TIP3   OH253537   1.107   3.090  10.327 -0.7870  0.5219  0.4045
 9781TIP3    H153538   1.103   3.168  10.272 -1.4872  1.7112  2.0603
 9781TIP3    H253539   1.200   3.079  10.346 -0.7763  1.7775  1.2179
 9782TIP3   OH253540   0.966   3.481  10.291 -0.2991  0.2673  0.4293
 9782TIP3    H153541   0.872   3.466  10.284 -0.2385  0.6443 -1.6544
 9782TIP3    H253542   0.973   3.569  10.328 -0.7280 -0.0716  1.3621
 9783TIP3   OH253543   5.904   2.658  12.412  0.1527  0.8309 -0.1757
 9783TIP3    H153544   5.900   2.581  12.469 -0.8154  0.5742 -0.5704
 9783TIP3    H253545   5.883   2.625  12.325 -0.5574  1.5787 -0.2999
 9784TIP3   OH253546   7.198   0.973  11.471 -0.1801 -0.4499  0.4372
 9784TIP3    H153547   7.221   1.060  11.504 -1.6098  1.4559 -3.1527
 9784TIP3    H253548   7.172   0.925  11.550  0.9769  2.2029  2.6201
 9785TIP3   OH253549   3.707   2.424  13.107  0.4269  0.4068 -0.2064
 9785TIP3    H153550   3.767   2.457  13.040  3.0372  0.3792  1.9404
 9785TIP3    H253551   3.631   2.483  13.102  0.3693  0.2521 -3.2555
 9786TIP3   OH253552   7.527   2.889  12.580 -0.6679 -0.1197 -0.3318
 9786TIP3    H153553   7.619   2.873  12.604 -0.4758  0.0907 -0.9123
 9786TIP3    H253554   7.492   2.941  12.653 -0.7930 -1.5712  0.6980
 9787TIP3   OH253555   5.693   1.161  11.855  0.4296 -0.2012 -0.2916
 9787TIP3    H153556   5.714   1.105  11.780 -4.3824 -1.0048 -1.3720
 9787TIP3    H253557   5.601   1.144  11.873  0.3599  2.7880  3.4875
 9788TIP3   OH253558   2.614   5.303  13.193 -0.2727  0.1689  0.6259
 9788TIP3    H153559   2.575   5.384  13.225  0.0512 -0.1411  1.8442
 9788TIP3    H253560   2.543   5.260  13.145 -1.5787 -0.5020  3.0115
 9789TIP3   OH253561   2.748   2.972  10.888  0.2125 -0.3959  1.0613
 9789TIP3    H153562   2.770   3.021  10.808 -0.1144 -0.3234  1.0131
 9789TIP3    H253563   2.751   2.881  10.861 -0.6437 -0.3444  0.7674
 9790TIP3   OH253564   5.882   3.357  11.233 -0.2781 -0.2625  0.1130
 9790TIP3    H153565   5.852   3.447  11.238 -0.0915 -0.2560  1.5113
 9790TIP3    H253566   5.834   3.319  11.159  0.4466  1.2571 -1.1725
 9791TIP3   OH253567   7.151   2.120  10.922 -0.4335 -0.1353  0.0253
 9791TIP3    H153568   7.059   2.107  10.946 -0.3812  0.1993  0.4123
 9791TIP3    H253569   7.156   2.094  10.830 -0.7056 -1.1564  0.2862
 9792TIP3   OH253570   0.940   3.951  12.301  0.6648 -0.2210 -0.2324
 9792TIP3    H153571   0.866   3.894  12.280  0.0374  1.1580 -2.0365
 9792TIP3    H253572   1.017   3.895  12.290  0.0724 -0.7923 -1.8674
 9793TIP3   OH253573   0.287   7.017  10.268  0.1606  0.4088  0.5137
 9793TIP3    H153574   0.201   6.988  10.297  0.6150 -1.5385  0.1245
 9793TIP3    H253575   0.279   7.025  10.173  0.5465 -0.4685  0.3895
 9794TIP3   OH253576   4.031   3.054  12.385 -0.2991  0.1756 -0.1891
 9794TIP3    H153577   4.077   2.997  12.323 -0.4406 -0.0045 -0.1293
 9794TIP3    H253578   4.089   3.059  12.461 -0.2840  0.1143 -0.1958
 9795TIP3   OH253579   6.582   6.652  12.193  0.1602 -0.4208 -0.6144
 9795TIP3    H153580   6.645   6.658  12.264  0.0739 -0.0627 -0.5688
 9795TIP3    H253581   6.496   6.651  12.236  0.1079 -0.2107 -0.7145
 9796TIP3   OH253582   7.045   0.184  12.916  0.1456  0.2131 -0.5043
 9796TIP3    H153583   7.021   0.251  12.980  1.6855 -0.0236  0.3778
 9796TIP3    H253584   7.103   0.229  12.854  0.4295 -0.0807 -0.4553
 9797TIP3   OH253585   7.245   2.454  12.282 -0.7002  0.1441 -0.0712
 9797TIP3    H153586   7.306   2.527  12.294  1.2754 -1.3086 -0.7517
 9797TIP3    H253587   7.247   2.408  12.366 -0.7145 -0.0165 -0.1603
 9798TIP3   OH253588   4.558   1.180  12.138 -0.1840  0.0236  0.0885
 9798TIP3    H153589   4.621   1.213  12.202 -0.5787 -0.9585  1.0093
 9798TIP3    H253590   4.575   1.086  12.134 -0.7639 -0.0569 -0.5913
 9799TIP3   OH253591   6.654   2.603  11.857 -0.1575 -0.6224 -0.5370
 9799TIP3    H153592   6.569   2.615  11.900 -0.2956  0.4023 -1.0529
 9799TIP3    H253593   6.716   2.593  11.929 -0.7011 -1.3292 -0.1537
 9800TIP3   OH253594   7.521   4.308  12.101 -0.5323 -0.5309 -0.2432
 9800TIP3    H153595   7.589   4.247  12.073  0.8710  0.4322  0.9368
 9800TIP3    H253596   7.556   4.395  12.081 -0.5275  0.0734  2.0561
 9801TIP3   OH253597   0.823   6.168  10.980  0.1005 -0.7293  0.2916
 9801TIP3    H153598   0.780   6.231  10.923  1.8554 -1.0657 -1.5450
 9801TIP3    H253599   0.766   6.161  11.056 -1.6853  0.7474 -0.8230
 9802TIP3   OH253600   6.827   6.301  11.490  0.2934  1.0254  0.1514
 9802TIP3    H153601   6.754   6.254  11.450 -0.8348  1.0864  1.9989
 9802TIP3    H253602   6.894   6.304  11.422 -0.4368 -1.2745 -0.7665
 9803TIP3   OH253603   6.900   0.602  11.365  0.2819  0.1646 -0.3247
 9803TIP3    H153604   6.877   0.540  11.295  1.4409 -1.3046  0.5260
 9803TIP3    H253605   6.958   0.552  11.423 -0.5444  1.3687  1.6406
 9804TIP3   OH253606   2.677   3.404  10.625 -0.0161 -0.4685 -0.0937
 9804TIP3    H153607   2.583   3.416  10.635 -0.2736 -1.1307 -1.4930
 9804TIP3    H253608   2.715   3.456  10.695 -1.4171 -0.0904  0.4219
 9805TIP3   OH253609   0.746   3.391  10.927 -0.3133  0.3941 -0.3283
 9805TIP3    H153610   0.784   3.305  10.945 -0.5523  0.6698  1.6890
 9805TIP3    H253611   0.701   3.380  10.843 -1.0684 -1.7055  0.2854
 9806TIP3   OH253612   2.275   2.406  10.323 -0.6225  0.2011  0.1938
 9806TIP3    H153613   2.352   2.358  10.293 -0.0273  1.1814  0.1000
 9806TIP3    H253614   2.237   2.351  10.392  1.2235  0.5449  1.5444
 9807TIP3   OH253615   7.036   6.611  11.596  0.1322 -0.4243  0.2521
 9807TIP3    H153616   7.104   6.678  11.596 -0.2521  0.0085 -1.4998
 9807TIP3    H253617   7.074   6.538  11.645  0.2932  1.2640  2.8511
 9808TIP3   OH253618   3.925   7.663  11.350  0.1670  0.1541  0.3011
 9808TIP3    H153619   3.931   7.583  11.402  0.8050  0.1080  0.1608
 9808TIP3    H253620   3.850   7.649  11.293  1.8587 -1.5177 -1.6715
 9809TIP3   OH253621   1.360   3.117  11.408 -0.1841 -0.0809  0.6850
 9809TIP3    H153622   1.323   3.058  11.343  1.5008 -0.1050 -0.2804
 9809TIP3    H253623   1.296   3.189  11.414 -0.2907  0.0058 -1.1254
 9810TIP3   OH253624   1.423   5.633  11.288 -0.0364 -0.4032 -0.2542
 9810TIP3    H153625   1.386   5.586  11.214  0.6035 -2.1169  0.4568
 9810TIP3    H253626   1.390   5.587  11.365 -2.0505  2.3451  0.6839
 9811TIP3   OH253627   0.994   5.930  11.024 -0.4524  0.3902 -0.0743
 9811TIP3    H153628   1.034   5.947  11.109  0.4145  1.5406 -0.6777
 9811TIP3    H253629   0.917   5.987  11.022 -1.6770 -1.1856  0.7450
 9812TIP3   OH253630   1.228   1.512  10.290  0.2006  0.2682  0.0607
 9812TIP3    H153631   1.217   1.563  10.369  0.9672 -1.2864  1.2399
 9812TIP3    H253632   1.258   1.575  10.224 -1.1998  1.7276  0.7604
 9813TIP3   OH253633   6.545   4.917  12.722  0.2952  0.2037  0.3928
 9813TIP3    H153634   6.545   4.832  12.679 -1.0758 -0.1379  0.9898
 9813TIP3    H253635   6.498   4.975  12.662 -0.9698 -0.0967  1.0439
 9814TIP3   OH253636   2.670   1.363  11.417 -0.4075 -0.0383 -0.3405
 9814TIP3    H153637   2.677   1.458  11.412 -0.6724  0.0694  1.0071
 9814TIP3    H253638   2.760   1.332  11.405 -0.5337  0.2756 -2.3398
 9815TIP3   OH253639   2.956   2.662  11.421  0.8442  0.6017 -0.0316
 9815TIP3    H153640   2.923   2.577  11.450  2.7836 -0.2537 -0.1753
 9815TIP3    H253641   2.909   2.726  11.475 -1.0468 -0.5092 -0.3119
 9816TIP3   OH253642   7.499   7.263  10.489 -0.2240 -0.1848  0.0096
 9816TIP3    H153643   7.434   7.313  10.538  0.3102 -0.3161  0.8821
 9816TIP3    H253644   7.501   7.304  10.403  0.0680  1.1836  0.6384
 9817TIP3   OH253645   4.935   4.156  10.802 -0.0178 -0.8182  0.8066
 9817TIP3    H153646   4.980   4.076  10.777  1.3494  0.1836 -0.1185
 9817TIP3    H253647   4.999   4.204  10.854  0.1456  0.7712 -0.7609
 9818TIP3   OH253648   1.482   0.215  11.337 -0.1831  0.1494  0.0111
 9818TIP3    H153649   1.464   0.302  11.372  2.7372  1.5478 -1.5926
 9818TIP3    H253650   1.493   0.160  11.415  1.9910  2.1878  1.2828
 9819TIP3   OH253651   6.490   3.672  11.835 -0.4391 -0.1743 -0.7306
 9819TIP3    H153652   6.583   3.652  11.825 -0.7642 -1.3179 -1.7737
 9819TIP3    H253653   6.455   3.599  11.886 -0.4188  1.2832  1.4735
 9820TIP3   OH253654   3.495   6.650  12.774  1.1616 -0.3122 -0.6961
 9820TIP3    H153655   3.566   6.586  12.779  2.3821  1.0623  0.0218
 9820TIP3    H253656   3.454   6.634  12.689  0.3993 -3.0776  0.0892
 9821TIP3   OH253657   5.503   5.613  10.499  0.0367 -0.4545 -0.1174
 9821TIP3    H153658   5.482   5.604  10.406  0.4584  0.8645 -0.3680
 9821TIP3    H253659   5.453   5.544  10.542 -1.5752  0.0404 -1.1274
 9822TIP3   OH253660   7.083   5.774  13.119 -0.2455  0.1212  0.0512
 9822TIP3    H153661   7.076   5.804  13.210  0.0859  0.5158 -0.0542
 9822TIP3    H253662   7.024   5.698  13.115  2.3571 -2.1675  1.5332
 9823TIP3   OH253663   2.423   6.806  12.094 -0.0295 -0.1887  0.0094
 9823TIP3    H153664   2.443   6.803  12.187 -0.7861 -1.2057  0.1630
 9823TIP3    H253665   2.469   6.731  12.057 -0.4841 -0.3329 -0.2714
 9824TIP3   OH253666   5.141   7.546  10.705  0.1170  0.8470  0.4434
 9824TIP3    H153667   5.226   7.567  10.665  0.7628 -1.2989  0.5572
 9824TIP3    H253668   5.079   7.551  10.633  0.9337 -0.9084 -0.4576
 9825TIP3   OH253669   2.977   5.256  12.434  0.1809  0.3623 -0.1215
 9825TIP3    H153670   2.980   5.332  12.376  2.0516  0.4206  0.0100
 9825TIP3    H253671   2.909   5.200  12.396 -0.4313  1.5676 -0.8713
 9826TIP3   OH253672   0.859   2.354  10.474 -0.2122 -0.2162 -0.2008
 9826TIP3    H153673   0.794   2.418  10.502 -0.5203 -0.4164 -0.4513
 9826TIP3    H253674   0.841   2.276  10.526  0.9756  0.2835  1.0494
 9827TIP3   OH253675   1.371   0.648  10.885 -0.0384 -0.0437  0.4684
 9827TIP3    H153676   1.337   0.624  10.799  1.1260  1.6456 -0.5270
 9827TIP3    H253677   1.445   0.590  10.899  0.8882  0.8588 -0.5270
 9828TIP3   OH253678   2.228   6.516  10.454  0.0008 -0.3045 -0.0435
 9828TIP3    H153679   2.291   6.472  10.396 -0.8790  1.6688 -2.6931
 9828TIP3    H253680   2.178   6.444  10.493  0.2749 -1.7807 -2.2228
 9829TIP3   OH253681   7.363   3.240  12.609  0.1872 -0.0040  0.1606
 9829TIP3    H153682   7.341   3.251  12.517 -1.0050 -0.6639  0.3389
 9829TIP3    H253683   7.368   3.330  12.643 -0.4980  0.2205 -0.3063
 9830TIP3   OH253684   6.130   3.907  12.480  0.0898 -0.0388  0.3388
 9830TIP3    H153685   6.036   3.897  12.469  0.0466 -0.9920  1.3682
 9830TIP3    H253686   6.151   3.991  12.439 -1.1940  0.1654  0.0704
 9831TIP3   OH253687   3.265   7.224  11.288 -0.1293 -0.5265  0.1180
 9831TIP3    H153688   3.288   7.315  11.309  0.5740 -0.7292  0.2394
 9831TIP3    H253689   3.180   7.211  11.331 -0.6947  0.3635 -0.6983
 9832TIP3   OH253690   5.853   6.314  11.779  0.4519  0.3279 -0.7565
 9832TIP3    H153691   5.815   6.401  11.793  0.2738  0.0588  0.5417
 9832TIP3    H253692   5.935   6.316  11.828 -0.6940 -1.0020  1.4009
 9833TIP3   OH253693   6.641   7.544  12.102  0.9414  0.4557 -0.0727
 9833TIP3    H153694   6.709   7.563  12.038  0.5443  1.6517 -0.1606
 9833TIP3    H253695   6.669   7.589  12.182  0.3809  0.7813 -0.0469
 9834TIP3   OH253696   5.001   5.117  11.858  0.0594  0.2059 -0.1463
 9834TIP3    H153697   4.947   5.053  11.904  0.7383 -0.4260 -0.2080
 9834TIP3    H253698   4.946   5.196  11.852 -0.9449 -0.4946 -0.4389
 9835TIP3   OH253699   4.702   6.768  11.067 -0.2324 -0.7226 -0.1703
 9835TIP3    H153700   4.674   6.791  10.979 -0.6248  0.3222  0.2166
 9835TIP3    H253701   4.699   6.672  11.068 -1.3927 -0.7230 -0.9327
 9836TIP3   OH253702   5.232   1.290  12.307  0.1108 -0.1447  0.4400
 9836TIP3    H153703   5.227   1.355  12.377 -0.1964 -1.5026  1.7315
 9836TIP3    H253704   5.323   1.260  12.308  0.5527  1.0101 -0.9120
 9837TIP3   OH253705   3.456   3.489  12.988 -0.5383 -0.1478  0.1288
 9837TIP3    H153706   3.386   3.502  13.052  0.0091 -1.1332  0.9652
 9837TIP3    H253707   3.531   3.460  13.041  0.5533  1.0342 -0.7297
 9838TIP3   OH253708   6.709   5.890  11.925  0.0715 -0.6905 -0.3604
 9838TIP3    H153709   6.670   5.976  11.946  1.0579 -0.7396  2.1065
 9838TIP3    H253710   6.733   5.896  11.833 -2.4148  0.6431 -1.0093
 9839TIP3   OH253711   0.208   2.757  13.073  0.0358  0.0359  0.1045
 9839TIP3    H153712   0.249   2.828  13.023  0.2568  0.2089  0.5273
 9839TIP3    H253713   0.216   2.680  13.016 -2.2209  0.7644 -1.3826
 9840TIP3   OH253714   0.246   7.152  10.882  0.4543 -0.2648  0.5251
 9840TIP3    H153715   0.225   7.112  10.966 -0.3326  1.2250  1.0733
 9840TIP3    H253716   0.328   7.199  10.896  0.9833 -1.0355  0.0931
 9841TIP3   OH253717   2.976   7.586  11.663  0.1745 -0.0707 -0.5247
 9841TIP3    H153718   2.969   7.492  11.648 -0.5688 -0.2554  0.8619
 9841TIP3    H253719   3.029   7.618  11.590 -0.6504 -1.3593 -1.7445
 9842TIP3   OH253720   1.818   5.621  12.890  0.2819 -0.7399  0.4894
 9842TIP3    H153721   1.798   5.681  12.962 -0.1419 -0.6864  0.3263
 9842TIP3    H253722   1.859   5.546  12.933  0.3945 -0.5341  0.7436
 9843TIP3   OH253723   3.988   0.610  12.401 -0.2642  1.1798  0.2924
 9843TIP3    H153724   4.069   0.658  12.416  0.4550  1.2106 -3.0421
 9843TIP3    H253725   3.972   0.618  12.307 -2.4795 -1.4524  0.3261
 9844TIP3   OH253726   3.802   2.698  12.639  0.1619 -0.0725 -0.9035
 9844TIP3    H153727   3.707   2.685  12.643  0.2937 -0.8754  0.0520
 9844TIP3    H253728   3.813   2.783  12.596 -1.0673  1.0290  0.7775
 9845TIP3   OH253729   2.871   0.464  11.896  0.0809  0.2269 -0.1805
 9845TIP3    H153730   2.831   0.522  11.961 -1.2269 -1.7773  0.8971
 9845TIP3    H253731   2.938   0.518  11.854 -0.9755  2.4554  0.8314
 9846TIP3   OH253732   4.891   3.214  13.509 -0.1615  0.3230  0.3540
 9846TIP3    H153733   4.928   3.264  13.582 -1.0454  0.1593  0.9413
 9846TIP3    H253734   4.826   3.274  13.471  0.9545  0.7572 -0.9054
 9847TIP3   OH253735   7.033   6.199  10.600 -0.9375  0.0401  0.0651
 9847TIP3    H153736   6.998   6.116  10.567 -0.5220  0.1844 -0.7436
 9847TIP3    H253737   7.124   6.179  10.621 -1.1068  0.0360  0.8495
 9848TIP3   OH253738   1.736   5.794  13.077 -0.4386  0.0214 -0.7339
 9848TIP3    H153739   1.737   5.728  13.146 -0.5165  0.3843 -0.3785
 9848TIP3    H253740   1.647   5.791  13.042 -1.5341  2.2161  1.5415
 9849TIP3   OH253741   5.369   7.070  12.014  0.2083 -0.1227 -0.0496
 9849TIP3    H153742   5.394   6.981  11.988 -0.0915  0.3612 -2.1665
 9849TIP3    H253743   5.439   7.125  11.980 -1.3426  0.7766 -1.9585
 9850TIP3   OH253744   0.236   4.929  10.650  0.4936  0.0976 -0.4839
 9850TIP3    H153745   0.166   4.871  10.620  1.6909 -0.7382 -1.7953
 9850TIP3    H253746   0.302   4.924  10.582  2.5471 -0.4012  1.4178
 9851TIP3   OH253747   5.539   1.316  10.613  0.2167 -0.4726 -0.5337
 9851TIP3    H153748   5.589   1.243  10.576 -0.2496 -0.9964 -0.1473
 9851TIP3    H253749   5.596   1.393  10.600 -0.3726 -0.4118 -3.2956
 9852TIP3   OH253750   3.573   4.408  12.219  0.1745 -0.4814 -0.1729
 9852TIP3    H153751   3.644   4.390  12.281 -1.4279 -2.4251  1.2222
 9852TIP3    H253752   3.563   4.325  12.171 -1.1603 -0.2484 -0.3121
 9853TIP3   OH253753   1.013   5.295  11.726 -0.2413 -0.2259 -0.4144
 9853TIP3    H153754   1.033   5.244  11.648 -0.5768  1.1213 -1.4175
 9853TIP3    H253755   0.950   5.242  11.775  0.9994 -1.7015 -0.3350
 9854TIP3   OH253756   5.303   5.511  11.454  0.5620  0.7780  0.3920
 9854TIP3    H153757   5.217   5.469  11.442 -1.0001  3.6577  0.5779
 9854TIP3    H253758   5.363   5.457  11.402 -1.2791 -1.4491  0.3815
 9855TIP3   OH253759   2.586   4.170  12.439 -0.0116  0.2594 -0.0796
 9855TIP3    H153760   2.530   4.157  12.364  1.8800 -2.2141 -1.2073
 9855TIP3    H253761   2.562   4.100  12.500  1.3312 -0.4299 -0.3040
 9856TIP3   OH253762   3.356   1.693  12.828  0.3275  0.0891  0.3063
 9856TIP3    H153763   3.395   1.638  12.760 -0.0915  0.3152 -0.1276
 9856TIP3    H253764   3.353   1.780  12.789  3.0312  0.9712  1.7590
 9857TIP3   OH253765   0.628   4.587  11.881 -0.4402 -0.1948 -0.3834
 9857TIP3    H153766   0.555   4.604  11.940 -1.9528  1.1541 -2.4918
 9857TIP3    H253767   0.688   4.660  11.895  0.3928 -1.1237  1.1067
 9858TIP3   OH253768   1.452   1.444  11.662  0.0390 -0.1908 -0.3442
 9858TIP3    H153769   1.512   1.394  11.607 -0.1350 -1.5315  0.6219
 9858TIP3    H253770   1.365   1.412  11.637 -0.3045  1.6532 -1.6555
 9859TIP3   OH253771   0.796   1.393  12.921  0.5625 -0.1753 -0.4813
 9859TIP3    H153772   0.821   1.458  12.855  0.1627  1.1252  0.6060
 9859TIP3    H253773   0.704   1.373  12.903 -0.3529  2.1203  1.1508
 9860TIP3   OH253774   5.470   1.018  11.500 -0.2941  0.5131 -0.6175
 9860TIP3    H153775   5.478   0.934  11.545 -2.0550  1.0157  0.7527
 9860TIP3    H253776   5.382   1.016  11.461 -0.5969  1.9415 -0.0460
 9861TIP3   OH253777   3.549   2.933  12.615  0.1174 -0.4657 -0.2229
 9861TIP3    H153778   3.570   2.991  12.543  0.3337 -1.0262 -0.6134
 9861TIP3    H253779   3.620   2.946  12.678 -0.3601  0.4303  0.1427
 9862TIP3   OH253780   7.293   7.208  10.893  0.5717 -0.4981 -0.0326
 9862TIP3    H153781   7.315   7.163  10.811  3.9025  0.3510  0.2477
 9862TIP3    H253782   7.264   7.295  10.866  0.0856 -0.7561 -0.3523
 9863TIP3   OH253783   2.672   5.738  10.523  0.2946  0.3005  0.1036
 9863TIP3    H153784   2.736   5.745  10.593  1.8788 -0.1094 -1.2434
 9863TIP3    H253785   2.724   5.728  10.443 -1.4448  0.2313 -1.0849
 9864TIP3   OH253786   4.026   2.487  11.235  0.2909 -0.0697  0.0213
 9864TIP3    H153787   4.108   2.537  11.234  0.8259 -0.8236  1.8447
 9864TIP3    H253788   4.053   2.397  11.214 -0.0359 -0.3241  0.6431
 9865TIP3   OH253789   2.407   5.464  11.491 -0.0943  0.2147  0.2362
 9865TIP3    H153790   2.354   5.440  11.415  0.3119 -2.4609  0.7154
 9865TIP3    H253791   2.379   5.404  11.561  1.0317  1.1679  1.5685
 9866TIP3   OH253792   5.633   7.589  10.699  0.1615 -0.2049 -0.3263
 9866TIP3    H153793   5.642   7.680  10.672 -1.7178  0.1452  0.0224
 9866TIP3    H253794   5.651   7.590  10.793 -1.3406  0.1399 -0.0073
 9867TIP3   OH253795   4.240   1.682  10.958 -0.1698  0.7071  0.3315
 9867TIP3    H153796   4.292   1.644  11.029 -2.6788 -1.6759  1.0601
 9867TIP3    H253797   4.304   1.708  10.893  1.9942 -1.6046  1.3657
 9868TIP3   OH253798   3.331   5.640  13.165  0.2491  0.2927 -0.6752
 9868TIP3    H153799   3.383   5.560  13.153  0.8678  0.8204 -1.6685
 9868TIP3    H253800   3.276   5.622  13.241 -1.1688 -1.8813 -2.1081
 9869TIP3   OH253801   4.647   3.476  13.108 -0.6174 -0.0785 -0.4670
 9869TIP3    H153802   4.605   3.543  13.054 -0.0228  1.0677  0.4509
 9869TIP3    H253803   4.670   3.407  13.046 -0.2097  1.0663 -1.6567
 9870TIP3   OH253804   6.738   1.677  11.945  0.1649  0.0818 -0.6087
 9870TIP3    H153805   6.792   1.604  11.974 -0.9772 -0.8595 -0.7735
 9870TIP3    H253806   6.759   1.686  11.851 -0.9390 -1.1868 -1.0030
 9871TIP3   OH253807   6.262   3.645  11.592 -0.0426 -0.3057  0.0184
 9871TIP3    H153808   6.291   3.607  11.509 -2.2858 -1.6596 -0.2340
 9871TIP3    H253809   6.315   3.601  11.659  0.4725 -0.5837 -0.5641
 9872TIP3   OH253810   2.500   1.727  10.395 -0.2153 -0.3738 -0.8461
 9872TIP3    H153811   2.467   1.731  10.305  0.5335 -2.3547 -1.2679
 9872TIP3    H253812   2.432   1.680  10.443 -0.5847  0.6263 -0.3537
 9873TIP3   OH253813   6.539   2.204  11.137 -0.6594  0.3592  0.2615
 9873TIP3    H153814   6.596   2.269  11.178  0.1345 -0.4250  0.4365
 9873TIP3    H253815   6.517   2.242  11.052 -0.1230  0.8084  0.3190
 9874TIP3   OH253816   6.726   4.007  12.176 -0.1587 -0.5189  0.0824
 9874TIP3    H153817   6.659   3.977  12.115  0.4058 -0.7173 -0.4503
 9874TIP3    H253818   6.752   4.094  12.144 -1.7546  0.5989  1.5889
 9875TIP3   OH253819   7.619   4.852  12.438  0.0781 -0.1101 -0.7586
 9875TIP3    H153820   7.619   4.766  12.479 -1.1658  0.2881  0.1538
 9875TIP3    H253821   7.555   4.845  12.367 -1.1437  0.4206  0.2345
 9876TIP3   OH253822   3.428   4.878  11.551 -0.3496  0.4044 -0.5012
 9876TIP3    H153823   3.381   4.826  11.617 -1.7743  2.1217 -0.0847
 9876TIP3    H253824   3.518   4.884  11.583 -0.6771 -0.0227  0.5182
 9877TIP3   OH253825   0.854   5.263  10.916  0.2573 -0.3182 -0.9587
 9877TIP3    H153826   0.866   5.238  10.824 -0.6874 -0.1102 -1.1456
 9877TIP3    H253827   0.788   5.332  10.914 -0.7022 -1.1661 -0.0223
 9878TIP3   OH253828   5.042   4.402  11.349 -0.4010 -0.7154 -0.4241
 9878TIP3    H153829   4.988   4.403  11.271  0.4061 -0.1903 -0.9920
 9878TIP3    H253830   5.094   4.482  11.344  0.9174 -1.5257 -0.2630
 9879TIP3   OH253831   0.166   5.339  11.646  0.0692 -0.1762 -0.0015
 9879TIP3    H153832   0.250   5.321  11.604 -0.4845  1.5035 -2.0173
 9879TIP3    H253833   0.158   5.435  11.644 -1.0714 -0.1647  1.9002
 9880TIP3   OH253834   7.007   3.757  13.186  0.1808 -0.6581 -0.0246
 9880TIP3    H153835   7.085   3.704  13.199 -0.6069 -1.3915  2.2596
 9880TIP3    H253836   6.951   3.705  13.128  0.9338 -0.5735 -0.8464
 9881TIP3   OH253837   1.403   5.898  11.045  0.0059 -0.2154  0.6529
 9881TIP3    H153838   1.375   5.815  11.006 -1.0829  0.7589 -0.7642
 9881TIP3    H253839   1.456   5.873  11.121  0.0099 -2.1898  0.0464
 9882TIP3   OH253840   6.828   0.069  11.909  0.6697 -1.1872 -0.0134
 9882TIP3    H153841   6.906   0.123  11.922  0.3728 -0.0677 -2.3318
 9882TIP3    H253842   6.857  -0.002  11.852  0.5094 -2.1590  1.0872
 9883TIP3   OH253843   4.069   6.296  10.977  0.2423 -0.5108 -0.1366
 9883TIP3    H153844   4.000   6.345  11.022  1.7969 -0.4048  2.2861
 9883TIP3    H253845   4.047   6.204  10.993  0.4228 -0.4872  0.2432
 9884TIP3   OH253846   0.708   3.787  10.473  0.1633 -0.0129 -0.1741
 9884TIP3    H153847   0.681   3.744  10.393  1.8456 -0.5465 -0.5039
 9884TIP3    H253848   0.698   3.720  10.541  0.3688 -0.1129 -0.2423
 9885TIP3   OH253849   0.060   1.469  10.701 -0.3795 -0.3890 -0.0001
 9885TIP3    H153850   0.100   1.538  10.752  2.3875 -1.1788 -0.9250
 9885TIP3    H253851   0.056   1.504  10.612  2.7634 -1.8922 -0.8721
 9886TIP3   OH253852   5.236   3.026  10.640 -0.2840 -0.0184 -0.4808
 9886TIP3    H153853   5.222   3.117  10.612 -3.3612 -1.0373 -2.7196
 9886TIP3    H253854   5.179   3.015  10.716 -1.6660 -0.6345 -1.5790
 9887TIP3   OH253855   0.657   2.480  12.145  0.1570 -0.2759  0.5529
 9887TIP3    H153856   0.682   2.562  12.187 -0.6595  0.3443 -0.1371
 9887TIP3    H253857   0.562   2.487  12.135  0.0919 -1.2591  0.3815
 9888TIP3   OH253858   2.861   0.089  12.170  0.3243 -0.3716 -0.6079
 9888TIP3    H153859   2.880   0.053  12.084 -0.2949  1.2658 -1.4672
 9888TIP3    H253860   2.846   0.012  12.225 -0.4901 -1.4411 -2.2428
 9889TIP3   OH253861   0.593   1.716  11.942  0.2523  0.3836 -0.2553
 9889TIP3    H153862   0.500   1.697  11.928  0.3057  0.2157 -0.3862
 9889TIP3    H253863   0.605   1.804  11.908 -0.2261  1.0890  1.3039
 9890TIP3   OH253864   7.605   1.899  11.366 -0.3843 -0.2080 -0.0464
 9890TIP3    H153865   7.677   1.955  11.397 -0.3781 -0.3265  0.1580
 9890TIP3    H253866   7.526   1.952  11.377 -0.3082 -0.0054 -0.4542
 9891TIP3   OH253867   2.578   5.181  10.697 -1.0084 -0.3066  0.9170
 9891TIP3    H153868   2.622   5.261  10.669  1.3332 -1.8955 -0.2830
 9891TIP3    H253869   2.519   5.209  10.767 -1.0407  2.5824 -0.1436
 9892TIP3   OH253870   2.615   5.526  12.874  0.1513 -0.2655  0.1583
 9892TIP3    H153871   2.701   5.491  12.851 -0.3202 -1.7845  0.5600
 9892TIP3    H253872   2.613   5.613  12.834  2.3181  0.3028  1.1399
 9893TIP3   OH253873   1.580   1.297  12.466 -0.3621 -0.1168  0.1917
 9893TIP3    H153874   1.534   1.290  12.382 -0.8841  0.7340  0.4006
 9893TIP3    H253875   1.513   1.323  12.528  0.3817  1.0925  0.5196
 9894TIP3   OH253876   6.960   7.553  10.782 -0.1017  0.1472  0.6239
 9894TIP3    H153877   6.870   7.525  10.795 -0.2395 -2.1932 -3.6388
 9894TIP3    H253878   6.955   7.627  10.721  0.8316 -0.4946 -0.2698
 9895TIP3   OH253879   3.611   1.072  10.828  0.2510  0.0756 -0.3128
 9895TIP3    H153880   3.679   1.122  10.782  0.0290  2.0797  1.3752
 9895TIP3    H253881   3.529   1.110  10.798  0.0565  0.3870  0.5666
 9896TIP3   OH253882   7.004   2.333  12.487 -0.3722  0.2078  0.2292
 9896TIP3    H153883   6.969   2.401  12.545 -0.5753 -1.3861  2.0760
 9896TIP3    H253884   7.098   2.333  12.505  0.0211  1.5828 -1.5676
 9897TIP3   OH253885   3.794   2.421  10.920 -0.3418 -0.3811  0.2311
 9897TIP3    H153886   3.875   2.461  10.890  0.0378  0.6270  2.3895
 9897TIP3    H253887   3.731   2.492  10.923 -0.7465 -0.7425  0.4204
 9898TIP3   OH253888   4.578   6.151  12.295 -0.6354 -0.0030  0.1348
 9898TIP3    H153889   4.592   6.207  12.218  1.6652 -0.1101  0.3954
 9898TIP3    H253890   4.617   6.067  12.271  0.6454  0.1329  1.5840
 9899TIP3   OH253891   0.585   6.761  11.408  0.1431 -0.0255 -0.2126
 9899TIP3    H153892   0.533   6.815  11.348 -0.4751  0.6927  0.9324
 9899TIP3    H253893   0.525   6.693  11.438  0.4761 -0.4367 -0.4712
 9900TIP3   OH253894   1.443   6.428  10.878  0.1620 -0.0896  0.0846
 9900TIP3    H153895   1.520   6.452  10.825  0.2238  1.3242  0.7744
 9900TIP3    H253896   1.373   6.417  10.814  1.0467 -2.0843 -0.6354
 9901TIP3   OH253897   0.313   0.129  11.134 -0.0547 -0.1570 -0.2888
 9901TIP3    H153898   0.312   0.175  11.217  3.0680 -0.6436  0.1473
 9901TIP3    H253899   0.382   0.171  11.084  1.2817 -2.7277 -0.7970
 9902TIP3   OH253900   3.480   0.143  11.048 -0.2141  0.1407  0.0793
 9902TIP3    H153901   3.512   0.054  11.033 -1.4327 -0.0754 -1.4030
 9902TIP3    H253902   3.385   0.135  11.047 -0.3405  1.3465  0.7913
 9903TIP3   OH253903   1.319   2.898  11.213  0.4937 -0.1347  0.0440
 9903TIP3    H153904   1.364   2.912  11.130  1.2264 -0.5309  0.3632
 9903TIP3    H253905   1.240   2.849  11.191  1.9556 -2.5369 -0.1473
 9904TIP3   OH253906   7.442   5.209  11.804 -0.4461 -0.3374 -0.0017
 9904TIP3    H153907   7.392   5.186  11.882 -1.7471 -1.9062 -1.2107
 9904TIP3    H253908   7.532   5.218  11.834 -0.7950 -1.6112  1.5706
 9905TIP3   OH253909   0.388   5.719  11.435 -0.1795  0.1399 -0.4399
 9905TIP3    H153910   0.471   5.673  11.444  2.2264  3.4837 -3.1622
 9905TIP3    H253911   0.367   5.713  11.342 -2.3867  0.4253 -0.0213
 9906TIP3   OH253912   6.495   3.443  11.540  0.0241  0.3442 -0.3533
 9906TIP3    H153913   6.433   3.404  11.601  0.2016 -0.5756 -0.7437
 9906TIP3    H253914   6.524   3.370  11.486 -0.0689  1.1225 -1.4827
 9907TIP3   OH253915   3.399   1.300  13.363 -0.1471 -0.5540  1.0024
 9907TIP3    H153916   3.446   1.374  13.402  0.0933  0.5444 -1.2021
 9907TIP3    H253917   3.307   1.315  13.386 -0.4271  1.7156 -1.1310
 9908TIP3   OH253918   6.651   3.077  10.734 -0.1019 -0.3557  0.8285
 9908TIP3    H153919   6.586   3.128  10.687 -0.4608  0.0523  1.7571
 9908TIP3    H253920   6.634   3.094  10.826  2.2071  0.9059  1.1027
 9909TIP3   OH253921   2.397   2.393  11.038 -0.5618  0.4165  0.4946
 9909TIP3    H153922   2.438   2.450  11.104 -0.7500 -1.4727  2.3356
 9909TIP3    H253923   2.471   2.357  10.989 -0.4779  2.9605 -1.4146
 9910TIP3   OH253924   0.848   3.858  11.260  0.0872  0.0565  0.3524
 9910TIP3    H153925   0.918   3.897  11.208 -0.6208  0.3640 -0.4120
 9910TIP3    H253926   0.880   3.771  11.283  0.3815 -0.1503 -0.7457
 9911TIP3   OH253927   5.393   1.623  11.641 -0.2629  0.0667 -0.1157
 9911TIP3    H153928   5.325   1.562  11.612  1.6055 -1.5289 -1.4266
 9911TIP3    H253929   5.373   1.640  11.733 -2.9014  0.3869 -0.6778
 9912TIP3   OH253930   4.517   6.130  11.364 -0.1338  0.0114  0.5991
 9912TIP3    H153931   4.470   6.194  11.417 -0.4846  1.3187 -1.1899
 9912TIP3    H253932   4.587   6.180  11.322  0.7378 -1.1932  0.5544
 9913TIP3   OH253933   6.211   4.368  10.746  0.1825  0.2643 -1.1428
 9913TIP3    H153934   6.170   4.430  10.685 -3.5531 -1.2634 -0.4202
 9913TIP3    H253935   6.200   4.283  10.705  1.4937 -0.3733 -0.2357
 9914TIP3   OH253936   2.694   3.065  11.650 -0.1956 -0.4020 -0.1778
 9914TIP3    H153937   2.607   3.100  11.670 -0.6868 -1.3533 -0.5682
 9914TIP3    H253938   2.744   3.141  11.621 -0.8155  0.2065  0.2877
 9915TIP3   OH253939   5.127   4.993  11.611 -0.0636  0.0037 -0.3391
 9915TIP3    H153940   5.099   5.049  11.684 -0.3124 -0.5647  0.0021
 9915TIP3    H253941   5.060   5.006  11.544 -0.4277 -0.3300 -0.0383
 9916TIP3   OH253942   1.494   3.465  12.521 -0.1187 -0.0419  0.0289
 9916TIP3    H153943   1.577   3.483  12.476 -0.2406  1.3841  0.3384
 9916TIP3    H253944   1.502   3.511  12.604 -1.0170 -0.3422  0.2840
 9917TIP3   OH253945   7.616   2.908  11.480 -0.4176  0.0899  0.2868
 9917TIP3    H153946   7.640   2.953  11.561 -1.3335 -0.8500  1.1136
 9917TIP3    H253947   7.692   2.919  11.422 -0.6442  2.7887  0.3683
 9918TIP3   OH253948   4.555   4.242  11.603 -0.4309  0.0024  0.5218
 9918TIP3    H153949   4.491   4.198  11.658 -2.2115  1.0340 -0.6062
 9918TIP3    H253950   4.541   4.336  11.619 -0.0319  0.2800 -0.6101
 9919TIP3   OH253951   3.824   0.060  10.947 -0.1620 -0.6196  0.1678
 9919TIP3    H153952   3.907   0.015  10.931 -0.7390 -2.5369  2.1384
 9919TIP3    H253953   3.772  -0.002  10.998 -2.1656  1.1931  0.4703
 9920TIP3   OH253954   4.903   0.425  10.654  0.0212  0.7708  0.0816
 9920TIP3    H153955   4.818   0.400  10.688 -0.4623  0.2668 -1.4358
 9920TIP3    H253956   4.886   0.454  10.564  1.5866 -0.5078 -0.6782
 9921TIP3   OH253957   6.860   5.398  12.426  0.2247  0.2508  0.0110
 9921TIP3    H153958   6.880   5.357  12.341  0.7107  0.5156 -0.0065
 9921TIP3    H253959   6.810   5.476  12.403  1.1875  0.8483 -0.1044
 9922TIP3   OH253960   6.549   0.978  11.014  0.9639 -0.0942  0.4452
 9922TIP3    H153961   6.517   1.068  11.023 -0.6542 -0.5464 -0.3653
 9922TIP3    H253962   6.639   0.981  11.046  1.1866  1.9566 -0.2314
 9923TIP3   OH253963   1.208   6.617  10.614 -0.5435  0.7442 -0.0282
 9923TIP3    H153964   1.189   6.523  10.611  0.9364  0.3928  0.8185
 9923TIP3    H253965   1.143   6.656  10.555 -1.9672 -0.6561  0.5284
 9924TIP3   OH253966   0.270   5.856  11.627  0.4117 -0.3706 -0.9636
 9924TIP3    H153967   0.280   5.808  11.709  0.8072 -0.0054 -0.7915
 9924TIP3    H253968   0.315   5.802  11.562  1.7327  0.2165 -0.5907
 9925TIP3   OH253969   3.885   2.096  11.818  0.5630  0.4695  0.1661
 9925TIP3    H153970   3.880   2.033  11.891  1.8056  1.2400  0.9670
 9925TIP3    H253971   3.874   2.043  11.740 -2.2123 -0.2134  0.9018
 9926TIP3   OH253972   2.700   6.107  11.238 -0.8104  0.8299  0.3119
 9926TIP3    H153973   2.645   6.115  11.160  0.1483  1.6941 -0.3036
 9926TIP3    H253974   2.713   6.013  11.249 -0.6830  0.7102 -0.7784
 9927TIP3   OH253975   3.295   4.968  13.116  0.6558  0.1574  0.0633
 9927TIP3    H153976   3.260   4.881  13.095  2.4459 -0.6628  0.3589
 9927TIP3    H253977   3.355   4.954  13.188  0.6884  1.7302  0.3937
 9928TIP3   OH253978   1.588   6.334  11.408 -0.3652 -0.0170  0.0475
 9928TIP3    H153979   1.670   6.367  11.373 -0.7004 -0.0031 -0.7544
 9928TIP3    H253980   1.542   6.299  11.332 -2.4133  2.6885 -0.0734
 9929TIP3   OH253981   7.446   4.269  10.582  0.6159  0.2241  0.0359
 9929TIP3    H153982   7.454   4.191  10.527 -0.6015  0.3866 -0.4130
 9929TIP3    H253983   7.355   4.268  10.612  0.7228  1.2006  0.4387
 9930TIP3   OH253984   0.177   2.655  11.057  0.4932 -0.1956  0.1440
 9930TIP3    H153985   0.245   2.609  11.009  0.9714  1.3317 -0.7257
 9930TIP3    H253986   0.140   2.590  11.116  0.1494 -2.0524 -2.0104
 9931TIP3   OH253987   2.675   0.322  12.311  0.7478  0.2868 -0.2380
 9931TIP3    H153988   2.695   0.311  12.404 -2.4963  0.2223  0.5766
 9931TIP3    H253989   2.721   0.249  12.268  1.0150 -0.6468  1.5212
 9932TIP3   OH253990   3.456   4.418  10.283 -0.4899 -0.2764  0.6186
 9932TIP3    H153991   3.447   4.355  10.355  1.9869 -1.6370 -0.1229
 9932TIP3    H253992   3.428   4.370  10.205  1.5693 -0.6256  0.0234
 9933TIP3   OH253993   4.879   3.692  10.841  0.0198 -0.0185 -0.0148
 9933TIP3    H153994   4.930   3.761  10.797  0.4362  0.5093  1.2475
 9933TIP3    H253995   4.796   3.734  10.862 -0.2420 -0.3224 -0.4339
 9934TIP3   OH253996   3.363   0.973  11.384 -0.0970  0.2791  0.1737
 9934TIP3    H153997   3.293   0.914  11.412 -0.3939 -0.1324 -1.3145
 9934TIP3    H253998   3.319   1.037  11.328  0.8052 -0.5086 -1.5133
 9935TIP3   OH253999   3.743   5.633  10.641  0.5537 -0.2427 -0.7413
 9935TIP3    H154000   3.806   5.674  10.581 -0.7111  2.6808 -0.2172
 9935TIP3    H254001   3.667   5.613  10.585 -1.0876  3.5273 -0.1413
 9936TIP3   OH254002   6.852   1.596  11.201 -0.1911  0.4113  0.2101
 9936TIP3    H154003   6.803   1.620  11.280 -4.0192 -0.6669 -1.6058
 9936TIP3    H254004   6.842   1.672  11.144 -0.4590 -0.1208 -0.4655
 9937TIP3   OH254005   4.714   3.258  12.626  0.1948 -0.1028  0.1453
 9937TIP3    H154006   4.682   3.295  12.543 -0.1769  0.0639  0.3577
 9937TIP3    H254007   4.710   3.163  12.613  1.7864 -0.1054 -0.6466
 9938TIP3   OH254008   2.584   3.140  11.927 -0.1684  0.1729  0.5801
 9938TIP3    H154009   2.528   3.204  11.972 -0.9457 -0.4403  0.5170
 9938TIP3    H254010   2.575   3.060  11.979  0.2629 -0.0708  0.2816
 9939TIP3   OH254011   0.357   5.023  13.200 -0.3461  0.2886  0.1958
 9939TIP3    H154012   0.387   4.959  13.135  1.5555 -0.0130  1.2941
 9939TIP3    H254013   0.299   4.973  13.257 -0.5589  0.0815 -0.2018
 9940TIP3   OH254014   1.129   4.192  13.119  0.0280  0.0577  0.2722
 9940TIP3    H154015   1.192   4.230  13.180  0.8857 -0.4364 -0.2847
 9940TIP3    H254016   1.131   4.249  13.043 -2.0630  1.4698  1.1904
 9941TIP3   OH254017   5.345   4.181  10.431  0.1002  0.1577  0.3145
 9941TIP3    H154018   5.411   4.206  10.367 -0.2245 -0.8839 -0.4589
 9941TIP3    H254019   5.358   4.241  10.504  1.6823  0.1879  0.0391
 9942TIP3   OH254020   4.797   6.039  10.717 -0.5391 -0.3034  0.4065
 9942TIP3    H154021   4.722   6.098  10.722  0.6888  1.2728  0.7137
 9942TIP3    H254022   4.763   5.956  10.751 -2.1786  0.3151  0.3911
 9943TIP3   OH254023   5.189   4.053  12.325  0.4059 -0.2394  0.3324
 9943TIP3    H154024   5.201   3.960  12.343 -1.4135 -0.5001  0.4142
 9943TIP3    H254025   5.149   4.055  12.238  0.5955  0.4740  0.2603
 9944TIP3   OH254026   5.657   1.652  12.073 -0.6345  0.0310  0.0325
 9944TIP3    H154027   5.694   1.684  11.991 -0.7935 -0.2588 -0.1530
 9944TIP3    H254028   5.565   1.679  12.070 -0.7988 -0.5489 -0.1794
 9945TIP3   OH254029   0.853   1.226  12.138  0.6135 -0.0604  0.1817
 9945TIP3    H154030   0.895   1.141  12.144  1.2166  0.2849  0.9568
 9945TIP3    H254031   0.872   1.256  12.049 -1.3360 -1.5965 -0.8482
 9946TIP3   OH254032   6.631   1.640  10.724 -0.2451 -0.2674 -0.5959
 9946TIP3    H154033   6.675   1.713  10.680  0.3900 -0.9173 -1.0695
 9946TIP3    H254034   6.600   1.677  10.807  0.9079  0.2942 -0.4000
 9947TIP3   OH254035   5.300   7.650  10.893 -0.4821  0.0042 -0.7378
 9947TIP3    H154036   5.244   7.588  10.846  0.4134 -1.2054 -0.2824
 9947TIP3    H254037   5.240   7.706  10.941 -1.3055 -1.7904  0.3980
 9948TIP3   OH254038   7.043   7.348  11.475  0.3692  0.2940 -0.6686
 9948TIP3    H154039   7.049   7.342  11.380 -0.3823  1.6953 -0.8196
 9948TIP3    H254040   7.090   7.428  11.497  0.4987  0.0014  0.1512
 9949TIP3   OH254041   1.635   4.937  11.312  0.0614 -0.4494 -0.0161
 9949TIP3    H154042   1.705   4.914  11.251  1.6542  0.9684  1.1629
 9949TIP3    H254043   1.606   5.024  11.283  0.7836  0.2063  1.1375
 9950TIP3   OH254044   3.819   2.938  13.018  0.5663  0.0979  0.6146
 9950TIP3    H154045   3.723   2.940  13.010  0.6170 -0.7595 -0.4677
 9950TIP3    H254046   3.840   3.012  13.075 -0.6694  0.8455  0.1443
 9951TIP3   OH254047   6.602   3.429  10.767  0.3357 -0.3195  0.2907
 9951TIP3    H154048   6.528   3.390  10.721  1.8063 -0.9764 -1.6645
 9951TIP3    H254049   6.653   3.472  10.699  0.6659  2.0052  1.8837
 9952TIP3   OH254050   6.964   5.554  13.142 -0.2399  0.2745  0.2818
 9952TIP3    H154051   6.923   5.480  13.097 -1.1765  0.2770  1.0949
 9952TIP3    H254052   7.021   5.513  13.208 -0.5188  0.2716  0.5229
 9953TIP3   OH254053   1.277   6.528  11.932  0.3859  0.1712  0.2024
 9953TIP3    H154054   1.295   6.622  11.933  1.2718  0.1131 -2.3223
 9953TIP3    H254055   1.357   6.488  11.899  0.0451 -1.5067  1.2896
 9954TIP3   OH254056   6.260   0.249  12.267 -0.6155  0.2055 -0.2145
 9954TIP3    H154057   6.344   0.224  12.304  0.4788  0.1906 -2.5397
 9954TIP3    H254058   6.217   0.166  12.245 -0.2959  0.2289 -0.9587
 9955TIP3   OH254059   0.429   4.926  11.861 -0.5791  0.0027  0.1217
 9955TIP3    H154060   0.444   4.895  11.771  0.6742  0.1341  0.2683
 9955TIP3    H254061   0.406   4.847  11.910 -0.5214 -0.1954 -0.1685
 9956TIP3   OH254062   0.046   4.596  12.228  0.0666  0.2912 -0.4160
 9956TIP3    H154063   0.131   4.559  12.203  0.3280  0.3704  0.3172
 9956TIP3    H254064  -0.012   4.574  12.156  0.3401 -1.1156 -0.2303
 9957TIP3   OH254065   2.744   2.399  11.701  0.6176  0.3452  0.7043
 9957TIP3    H154066   2.775   2.480  11.741  0.6688 -0.8238  3.2354
 9957TIP3    H254067   2.740   2.418  11.607 -0.1851  3.5122  1.2701
 9958TIP3   OH254068   1.156   0.314  12.607  0.6824  0.2058 -0.7759
 9958TIP3    H154069   1.160   0.314  12.703 -0.2039  0.4150 -0.7285
 9958TIP3    H254070   1.145   0.221  12.584 -1.2622  0.3274 -0.5368
 9959TIP3   OH254071   1.178   6.495  12.913  0.2496 -0.0515 -0.4128
 9959TIP3    H154072   1.103   6.545  12.944 -0.2370 -0.4183 -0.9872
 9959TIP3    H254073   1.212   6.451  12.990  0.5320  0.9575  0.0586
 9960TIP3   OH254074   4.289   6.373  10.870 -0.2883 -0.1857  0.1924
 9960TIP3    H154075   4.336   6.299  10.831  2.0963  0.9870  0.6280
 9960TIP3    H254076   4.211   6.334  10.910 -0.1387 -2.1437 -1.2967
 9961TIP3   OH254077   3.359   6.169  10.990 -0.2891 -0.2752 -0.0074
 9961TIP3    H154078   3.330   6.084  11.024 -1.1655  0.0455  0.0786
 9961TIP3    H254079   3.324   6.172  10.900  0.8607 -0.5496 -0.4812
 9962TIP3   OH254080   1.282   3.798  11.483  0.0224 -0.4095 -0.9379
 9962TIP3    H154081   1.189   3.820  11.471 -0.0605 -0.4904 -0.4800
 9962TIP3    H254082   1.317   3.870  11.535 -0.0564 -0.9308 -0.1415
 9963TIP3   OH254083   4.224   2.456  12.212 -0.0744  0.1889  0.2375
 9963TIP3    H154084   4.317   2.467  12.226  0.0901 -0.0645 -0.5828
 9963TIP3    H254085   4.182   2.514  12.276  0.6656  1.4262 -0.3673
 9964TIP3   OH254086   4.014   6.358  10.701  0.6809 -0.1391  0.2832
 9964TIP3    H154087   3.919   6.367  10.691  0.6836  0.6176  0.8599
 9964TIP3    H254088   4.034   6.404  10.783  1.5900 -0.0212  0.0034
 9965TIP3   OH254089   0.952   0.193  13.156 -0.6818 -0.3886  0.6636
 9965TIP3    H154090   1.040   0.190  13.118  0.4791  1.0935  3.0271
 9965TIP3    H254091   0.966   0.196  13.250 -3.3267 -0.9421  1.1590
 9966TIP3   OH254092   1.486   7.031  12.164 -0.2691 -0.3018  0.0288
 9966TIP3    H154093   1.489   7.009  12.071 -3.4023 -1.0791  0.0022
 9966TIP3    H254094   1.524   7.119  12.169 -0.7829  0.1098 -2.1197
 9967TIP3   OH254095   0.133   0.770  12.843  0.4329  0.0596  0.0920
 9967TIP3    H154096   0.196   0.699  12.858  0.2929 -0.1680 -0.3833
 9967TIP3    H254097   0.048   0.730  12.858  0.3726  0.2157  0.1640
 9968TIP3   OH254098   3.634   2.345  10.635 -0.5182 -0.2681  0.0394
 9968TIP3    H154099   3.696   2.414  10.614 -1.3573 -0.1350 -2.3202
 9968TIP3    H254100   3.688   2.273  10.668  0.6664  0.4865 -0.1984
 9969TIP3   OH254101   4.236   5.712  12.297 -0.4262  0.1900 -0.2406
 9969TIP3    H154102   4.211   5.797  12.261  0.6542  0.7109  0.1805
 9969TIP3    H254103   4.324   5.697  12.263 -0.7881 -0.9849 -0.6844
 9970TIP3   OH254104   0.691   0.021  10.700  0.0981 -0.3463 -0.5354
 9970TIP3    H154105   0.657   0.106  10.727 -0.0783 -0.9641  1.3300
 9970TIP3    H254106   0.613  -0.036  10.697  0.5289 -1.0791  0.9689
 9971TIP3   OH254107   1.472   1.684  10.501  0.2969  0.2331  0.6823
 9971TIP3    H154108   1.544   1.727  10.456 -1.5929  1.8980 -0.9696
 9971TIP3    H254109   1.478   1.592  10.475  0.2826  0.8409 -1.6862
 9972TIP3   OH254110   0.868   4.499  11.310  0.1328  0.3383 -0.0281
 9972TIP3    H154111   0.896   4.508  11.401  1.5600 -1.9610 -0.1427
 9972TIP3    H254112   0.849   4.406  11.300 -0.4320  0.6167 -1.9824
 9973TIP3   OH254113   2.303   2.709  12.221  0.1991 -0.1904 -0.2246
 9973TIP3    H154114   2.282   2.644  12.289 -0.2805  2.7834  2.7291
 9973TIP3    H254115   2.398   2.709  12.217  0.2400 -0.2816  0.5872
 9974TIP3   OH254116   6.109   2.145  11.337  0.5130 -0.3433  0.4053
 9974TIP3    H154117   6.028   2.196  11.335  0.7813  0.0694 -0.2102
 9974TIP3    H254118   6.094   2.079  11.405 -1.0669 -1.4773 -0.9759
 9975TIP3   OH254119   3.406   0.569  10.997 -0.1078  0.9417  0.1784
 9975TIP3    H154120   3.317   0.533  10.997  0.7086 -1.3803 -2.1941
 9975TIP3    H254121   3.417   0.605  10.909  1.9633 -0.7399 -0.3283
 9976TIP3   OH254122   7.284   6.798  11.216  0.2625 -0.0978 -0.1581
 9976TIP3    H154123   7.207   6.846  11.248  0.5717 -0.5076  1.2736
 9976TIP3    H254124   7.352   6.817  11.280  1.1112 -0.4651 -0.9298
 9977TIP3   OH254125   7.666   0.064  12.407 -0.2032  0.1453 -0.2083
 9977TIP3    H154126   7.585   0.044  12.360 -1.3426  1.3489  1.1646
 9977TIP3    H254127   7.637   0.089  12.495  1.5861  1.5813  0.0156
 9978TIP3   OH254128   4.788   5.791  10.457  0.1028  0.0895  0.3560
 9978TIP3    H154129   4.812   5.881  10.478 -0.7177  0.2784  0.5442
 9978TIP3    H254130   4.695   5.785  10.479  0.4631 -1.2264  1.7140
 9979TIP3   OH254131   3.768   7.209  10.721 -0.7521  0.0477 -0.0837
 9979TIP3    H154132   3.736   7.191  10.632 -3.3875  0.9499  0.5741
 9979TIP3    H254133   3.777   7.122  10.761  1.6792 -0.4556 -1.5197
 9980TIP3   OH254134   4.361   0.306  13.359 -0.1116 -0.1906  0.4959
 9980TIP3    H154135   4.327   0.389  13.393 -0.5372  0.2925 -1.0202
 9980TIP3    H254136   4.298   0.282  13.291  2.7011  0.9808 -2.8155
 9981TIP3   OH254137   2.115   3.372  10.785 -0.0617  0.0530 -0.2263
 9981TIP3    H154138   2.127   3.280  10.810 -2.5774 -0.4365 -0.4939
 9981TIP3    H254139   2.115   3.419  10.868 -3.0224 -0.8497  0.4263
 9982TIP3   OH254140   2.351   2.627  11.469  0.0450  0.0817  0.5955
 9982TIP3    H154141   2.381   2.714  11.496 -3.1819  2.0366 -1.3695
 9982TIP3    H254142   2.274   2.610  11.524 -0.2698 -0.7923 -0.0913
 9983TIP3   OH254143   2.190   3.336  12.284  0.0291 -0.1066 -0.3340
 9983TIP3    H154144   2.111   3.390  12.288 -0.8340 -1.3667  0.4582
 9983TIP3    H254145   2.172   3.271  12.216  0.5982 -0.0898 -0.5080
 9984TIP3   OH254146   0.366   7.004  11.333 -0.2658  0.1971 -0.3565
 9984TIP3    H154147   0.292   7.044  11.288 -0.7785  0.0813  0.3495
 9984TIP3    H254148   0.338   7.000  11.425  0.5987  0.1015 -0.0873
 9985TIP3   OH254149   7.040   0.338  10.696 -0.0486  0.7311  0.6985
 9985TIP3    H154150   7.130   0.330  10.663 -0.0245 -0.3258  0.9969
 9985TIP3    H254151   7.016   0.429  10.676  0.4147  0.5095 -1.0883
 9986TIP3   OH254152   7.086   4.659  10.983  0.1615  0.5927 -0.1914
 9986TIP3    H154153   7.004   4.615  11.002  0.8132 -0.2748  0.7629
 9986TIP3    H254154   7.063   4.729  10.923 -1.2954  0.4831  0.2100
 9987TIP3   OH254155   4.039   6.363  10.352  0.3006 -0.2183  0.2998
 9987TIP3    H154156   3.972   6.421  10.389  0.3218  0.7974 -1.1676
 9987TIP3    H254157   4.014   6.275  10.382 -1.2945  0.2228  0.3460
 9988TIP3   OH254158   6.536   4.810  12.195  0.4691  0.1210 -0.3545
 9988TIP3    H154159   6.491   4.885  12.157 -0.4071 -0.7123 -1.0250
 9988TIP3    H254160   6.496   4.734  12.152  2.2077 -0.6798 -0.6309
 9989TIP3   OH254161   2.751   0.808  11.913  0.2813 -0.0355 -0.2193
 9989TIP3    H154162   2.708   0.743  11.858 -1.5332  0.8869  0.0506
 9989TIP3    H254163   2.800   0.863  11.852 -0.3918 -0.0126 -0.7436
 9990TIP3   OH254164   3.027   6.791  11.050 -0.6252  0.3044 -0.3304
 9990TIP3    H154165   3.027   6.852  10.976  3.2270  0.3837 -0.5063
 9990TIP3    H254166   3.071   6.713  11.016 -2.2372 -1.2036  0.8897
 9991TIP3   OH254167   5.266   5.585  11.802  0.4628  0.0611 -0.1541
 9991TIP3    H154168   5.224   5.538  11.874  1.5549  1.1677  1.2511
 9991TIP3    H254169   5.322   5.519  11.760  1.1623 -0.1782  1.1197
 9992TIP3   OH254170   7.220   7.653  11.898 -0.3483  0.2664  0.2793
 9992TIP3    H154171   7.182   7.628  11.982  0.3816  1.5427  1.0086
 9992TIP3    H254172   7.310   7.679  11.918 -0.5307  1.7903 -0.6826
 9993TIP3   OH254173   1.092   2.571  13.191 -0.2813  0.5094 -0.5163
 9993TIP3    H154174   1.118   2.643  13.134  3.1055  2.4903  3.0451
 9993TIP3    H254175   1.016   2.605  13.239  0.8429  1.5016  0.6170
 9994TIP3   OH254176   6.495   5.684  10.851  0.6219 -0.2178 -0.2247
 9994TIP3    H154177   6.505   5.776  10.877  1.6431 -0.1498 -0.8254
 9994TIP3    H254178   6.425   5.686  10.786  0.8531  0.1879 -0.4679
 9995TIP3   OH254179   0.781   0.340  10.966 -0.0883  0.3883 -0.1812
 9995TIP3    H154180   0.855   0.368  10.913  0.0109 -1.8545 -1.3307
 9995TIP3    H254181   0.819   0.292  11.039 -0.3609 -1.3108 -1.1068
 9996TIP3   OH254182   1.852   4.875  11.142 -0.0810  0.3794 -0.4962
 9996TIP3    H154183   1.933   4.914  11.175  0.0466 -0.9202  0.7869
 9996TIP3    H254184   1.859   4.884  11.046  1.4886  0.4554 -0.4053
 9997TIP3   OH254185   1.775   2.126  10.820 -0.7206  0.1592  0.2614
 9997TIP3    H154186   1.835   2.092  10.886 -0.3532  0.7894  0.2613
 9997TIP3    H254187   1.722   2.190  10.867 -3.2653 -2.2531  0.9479
 9998TIP3   OH254188   5.718   6.020  10.923 -0.3173 -0.5193  0.1772
 9998TIP3    H154189   5.740   5.986  10.836  1.5636  0.2217  0.3362
 9998TIP3    H254190   5.787   6.083  10.943 -0.3553 -1.1261  2.4808
 9999TIP3   OH254191   2.904   5.565  12.110  0.1819 -0.3022  0.2431
 9999TIP3    H154192   2.913   5.622  12.034  1.2481 -1.7980 -0.8037
 9999TIP3    H254193   2.911   5.476  12.074 -0.4012 -1.0777  1.9501
10000TIP3   OH254194   3.058   3.739  10.218  0.3388 -0.0200 -0.2699
10000TIP3    H154195   3.127   3.804  10.232  0.3260 -0.2321  0.9159
10000TIP3    H254196   3.058   3.687  10.298  0.0446 -1.2019 -1.0206
10001TIP3   OH254197   3.163   0.551  13.154  0.3910 -0.2138  0.1120
10001TIP3    H154198   3.188   0.641  13.174  0.5849 -0.0885 -0.6749
10001TIP3    H254199   3.208   0.498  13.219  0.3285  0.2498  0.5384
10002TIP3   OH254200   5.278   0.098  10.455 -0.6168  0.4404  0.1742
10002TIP3    H154201   5.191   0.133  10.472 -2.0420 -2.3422 -0.7526
10002TIP3    H254202   5.298   0.124  10.365 -0.8707  0.3985  0.1056
10003TIP3   OH254203   4.922   6.072  10.457  0.4246  0.2848  0.1890
10003TIP3    H154204   4.993   6.127  10.425 -0.4958  0.1034 -2.4579
10003TIP3    H254205   4.856   6.135  10.489  1.2193  0.4951  1.4678
10004TIP3   OH254206   1.953   4.954  10.768  0.6127 -0.3605 -0.3262
10004TIP3    H154207   2.028   4.965  10.826  0.3493 -0.2516 -0.0009
10004TIP3    H254208   1.923   5.043  10.750  0.4372 -0.4108 -0.2863
10005TIP3   OH254209   6.207   7.038  10.603 -0.0816 -0.2599  0.1185
10005TIP3    H154210   6.216   6.953  10.560 -0.8251  0.3242 -1.2418
10005TIP3    H254211   6.164   7.093  10.538  1.3948  1.4811  0.5745
10006TIP3   OH254212   6.342   6.713  12.287  0.1734 -0.5075  0.5014
10006TIP3    H154213   6.307   6.687  12.372  0.2866  2.1853  1.4831
10006TIP3    H254214   6.266   6.747  12.240  0.5069  0.2541  0.4991
10007TIP3   OH254215   7.488   4.648  11.082 -0.4592 -0.0186  0.1079
10007TIP3    H154216   7.486   4.590  11.158 -1.6506  0.8363  0.7564
10007TIP3    H254217   7.579   4.678  11.077  0.4308 -2.5434 -0.7565
10008TIP3   OH254218   3.916   0.591  10.255  0.0306 -0.5184 -0.5753
10008TIP3    H154219   3.984   0.573  10.190 -0.6049 -0.6100 -1.2212
10008TIP3    H254220   3.867   0.509  10.262 -0.4425 -0.2414 -0.6288
10009TIP3   OH254221   1.935   7.396  12.750  0.9173 -0.0859 -0.1688
10009TIP3    H154222   1.905   7.308  12.773 -1.3957  0.5132 -0.6608
10009TIP3    H254223   1.953   7.437  12.834 -2.0168  0.2507  0.4093
10010TIP3   OH254224   3.475   1.745  12.519 -0.3074 -0.0118  0.1718
10010TIP3    H154225   3.551   1.803  12.512  0.4003 -0.8722  0.4828
10010TIP3    H254226   3.422   1.764  12.442  1.0849 -0.5890 -0.9751
10011TIP3   OH254227   4.013   1.137  10.931 -0.2356 -0.7172 -0.3781
10011TIP3    H154228   3.924   1.131  10.963  0.0622 -1.4857  0.3376
10011TIP3    H254229   4.020   1.068  10.865  0.0042 -1.0744  0.0150
10012TIP3   OH254230   7.115   0.527  11.807  0.4853  0.2625  0.0971
10012TIP3    H154231   7.194   0.502  11.760 -0.1127 -0.6640 -0.4621
10012TIP3    H254232   7.044   0.480  11.762 -0.6991  2.6947 -0.7456
10013TIP3   OH254233   3.834   0.313  12.241 -0.4310  0.2623  0.3868
10013TIP3    H154234   3.869   0.225  12.226 -0.1993  0.3393  0.4765
10013TIP3    H254235   3.903   0.359  12.289 -0.1383  0.8035 -0.5268
10014TIP3   OH254236   1.368   2.362  12.594  0.2368 -0.3488 -0.4673
10014TIP3    H154237   1.425   2.357  12.671 -0.2612 -2.2650 -0.1627
10014TIP3    H254238   1.287   2.402  12.626 -0.0832 -1.4175  0.1159
10015TIP3   OH254239   0.293   4.188  11.170 -0.0697  0.1387  0.0630
10015TIP3    H154240   0.303   4.198  11.075  1.8334  0.8375  0.2792
10015TIP3    H254241   0.313   4.096  11.188  0.3684  0.1883 -0.1523
10016TIP3   OH254242   0.279   5.645  11.166  0.0745 -0.1935  0.0568
10016TIP3    H154243   0.313   5.700  11.095 -1.6442 -0.7698 -1.2629
10016TIP3    H254244   0.316   5.559  11.150 -0.8377 -0.4805 -0.5408
10017TIP3   OH254245   4.226   1.169  11.763  0.3101  0.3071  0.5346
10017TIP3    H154246   4.134   1.192  11.755 -0.2256 -1.3890  1.3991
10017TIP3    H254247   4.266   1.202  11.682 -1.6295 -1.5611 -1.3199
10018TIP3   OH254248   5.184   4.415  12.760 -0.2172  0.4685 -0.2346
10018TIP3    H154249   5.233   4.336  12.737  1.2793  1.7736 -1.8145
10018TIP3    H254250   5.182   4.416  12.856  0.7148 -0.8989 -0.1856
10019TIP3   OH254251   4.145   0.255  13.210  0.4189  0.7446  0.4532
10019TIP3    H154252   4.082   0.244  13.282  1.5678  1.2918  1.5930
10019TIP3    H254253   4.093   0.290  13.138 -0.7287  0.4183  1.0851
10020TIP3   OH254254   0.753   4.299  12.512  0.0877 -0.0561 -0.5440
10020TIP3    H154255   0.696   4.225  12.531 -0.1421 -0.1023 -1.3839
10020TIP3    H254256   0.731   4.365  12.579  0.7523 -0.9715  0.6193
10021TIP3   OH254257   4.096   6.005  11.119 -0.1034  0.0211  0.3823
10021TIP3    H154258   4.037   6.054  11.176 -0.7803 -2.2406  1.7656
10021TIP3    H254259   4.175   5.991  11.170  0.8405  1.1831 -0.6826
10022TIP3   OH254260   1.871   6.477  11.517 -0.0957  0.3113 -0.3596
10022TIP3    H154261   1.964   6.501  11.525  0.6465 -1.7072 -2.0886
10022TIP3    H254262   1.833   6.547  11.463  1.2364 -0.4571 -2.4204
10023TIP3   OH254263   6.310   1.458  13.029 -0.3366 -0.0967  0.0176
10023TIP3    H154264   6.299   1.391  13.096 -2.4740 -0.7163 -0.8744
10023TIP3    H254265   6.370   1.521  13.068  1.2350 -2.1643  1.1369
10024TIP3   OH254266   4.431   2.526  11.386  0.2606 -0.2041 -0.6475
10024TIP3    H154267   4.414   2.596  11.324  0.8622  0.5749  0.0387
10024TIP3    H254268   4.374   2.545  11.460  1.1088  0.1152 -0.0588
10025TIP3   OH254269   7.145   4.764  13.246  0.0273 -0.2856 -0.3882
10025TIP3    H154270   7.116   4.778  13.336  2.5545  1.5291  0.2655
10025TIP3    H254271   7.065   4.747  13.197 -1.8034  1.6247  1.6980
10026TIP3   OH254272   2.820   6.236  10.757 -0.6500  0.0843 -0.7616
10026TIP3    H154273   2.834   6.310  10.816  1.2552  0.7263 -1.9205
10026TIP3    H254274   2.828   6.158  10.812  1.9599  0.6367 -0.2636
10027TIP3   OH254275   0.477   3.488  12.892 -0.4856  0.2311  0.3248
10027TIP3    H154276   0.563   3.475  12.932  0.2865 -0.4033 -1.4326
10027TIP3    H254277   0.457   3.405  12.850 -0.5627  1.2514 -1.7884
10028TIP3   OH254278   3.429   1.891  11.990  0.1540 -0.3841  0.1975
10028TIP3    H154279   3.514   1.871  11.951  0.6019  0.5762  0.6396
10028TIP3    H254280   3.442   1.975  12.034 -1.1900  0.0708 -0.2230
10029TIP3   OH254281   2.445   4.444  12.216  0.1683  0.1533  0.0123
10029TIP3    H154282   2.382   4.407  12.154 -0.2047  2.4512 -1.0667
10029TIP3    H254283   2.391   4.488  12.281  0.5082 -2.9536  2.6454
10030TIP3   OH254284   1.559   6.732  10.592  0.5203  0.4381 -0.4303
10030TIP3    H154285   1.593   6.657  10.641  1.3996  2.7435  2.8422
10030TIP3    H254286   1.619   6.804  10.612 -2.5217  3.0873  0.1255
10031TIP3   OH254287   1.623   4.083  11.023 -0.3819 -0.1580  0.2139
10031TIP3    H154288   1.567   4.027  11.075 -1.2203  0.4571 -0.0080
10031TIP3    H254289   1.583   4.170  11.029 -0.4342 -0.0474 -1.3219
10032TIP3   OH254290   7.666   3.601  10.834 -0.5106 -0.1596 -0.4285
10032TIP3    H154291   7.607   3.665  10.872  0.7211  1.1281 -0.6088
10032TIP3    H254292   7.688   3.543  10.906  0.6070  1.3491  0.5037
10033TIP3   OH254293   4.849   5.158  12.574  0.0559 -0.6127  0.1643
10033TIP3    H154294   4.919   5.125  12.631 -0.1019 -0.6246  0.3530
10033TIP3    H254295   4.768   5.128  12.616 -0.0555 -0.8516 -0.2131
10034TIP3   OH254296   1.955   5.114  12.085  0.2159 -0.1822 -0.4578
10034TIP3    H154297   1.897   5.134  12.012 -0.2754 -0.6971 -0.2116
10034TIP3    H254298   2.033   5.076  12.044  0.3784  0.4805 -0.7848
10035TIP3   OH254299   2.168   5.038  11.937  0.4284 -0.2417 -0.0293
10035TIP3    H154300   2.260   5.025  11.915  1.1901  1.6917  1.6178
10035TIP3    H254301   2.121   4.971  11.888  2.3880  0.5105 -3.2234
10036TIP3   OH254302   5.429   4.940  10.807 -0.2729 -0.2926 -0.0593
10036TIP3    H154303   5.401   5.016  10.858  0.1070  0.7439 -1.3314
10036TIP3    H254304   5.453   4.874  10.872 -0.3242  0.7811  1.0800
10037TIP3   OH254305   7.338   1.949  11.071 -0.9816 -0.2854 -0.2949
10037TIP3    H154306   7.288   2.018  11.027 -0.7698 -0.9060 -1.5415
10037TIP3    H254307   7.276   1.876  11.080 -0.2028 -1.2585 -2.3416
10038TIP3   OH254308   5.195   0.714  12.198 -0.0152  0.0065  0.5491
10038TIP3    H154309   5.122   0.682  12.145  1.6051 -1.4411 -0.9447
10038TIP3    H254310   5.196   0.658  12.275 -0.9524  0.5709  0.9868
10039TIP3   OH254311   3.595   5.468  10.459  0.2834 -0.1470 -0.3793
10039TIP3    H154312   3.522   5.477  10.398 -0.0505 -3.0432 -0.5432
10039TIP3    H254313   3.667   5.434  10.406  0.2086 -2.0019  0.6345
10040TIP3   OH254314   2.709   5.445  12.293  0.0840  0.1219 -0.5674
10040TIP3    H154315   2.767   5.429  12.367 -0.4364 -2.6727 -0.6524
10040TIP3    H254316   2.755   5.509  12.239  2.3863 -0.8862  0.1061
10041TIP3   OH254317   5.522   3.831  10.842 -0.1011 -0.0081  0.5603
10041TIP3    H154318   5.441   3.781  10.856 -0.5000  0.8104  1.2939
10041TIP3    H254319   5.493   3.911  10.798  0.5663 -0.5063 -0.8406
10042TIP3   OH254320   1.576   1.927  13.171 -0.9487 -0.4427 -0.3874
10042TIP3    H154321   1.671   1.916  13.166 -0.7082 -0.5222  2.7562
10042TIP3    H254322   1.561   2.018  13.146  0.2492  0.2405  1.2527
10043TIP3   OH254323   3.696   1.323  12.152  0.6166  0.1742 -0.8648
10043TIP3    H154324   3.655   1.401  12.115 -0.4478 -0.4620 -1.1012
10043TIP3    H254325   3.747   1.354  12.227 -1.4386  0.8561  0.3179
10044TIP3   OH254326   3.428   4.934  11.923  0.1573 -0.3330  0.2691
10044TIP3    H154327   3.509   4.901  11.963  0.7599 -1.1412 -1.5261
10044TIP3    H254328   3.398   4.862  11.868 -0.3208  0.9155 -1.1694
10045TIP3   OH254329   4.879   5.583  12.891  0.1255  0.0461 -0.2934
10045TIP3    H154330   4.801   5.538  12.925  0.1841  0.0660 -0.1292
10045TIP3    H254331   4.846   5.642  12.823 -0.4128  2.1868  1.6862
10046TIP3   OH254332   1.705   5.885  12.119 -0.1849  0.5326 -0.3704
10046TIP3    H154333   1.657   5.906  12.040  0.1526  2.4363 -0.1333
10046TIP3    H254334   1.786   5.935  12.111  1.5852 -2.1247 -0.5058
10047TIP3   OH254335   1.791   0.391  12.977  0.6127  0.1869  0.2769
10047TIP3    H154336   1.836   0.314  13.013  0.3845  0.3222  0.8686
10047TIP3    H254337   1.772   0.446  13.054  0.7048  0.7993 -0.1305
10048TIP3   OH254338   7.477   2.491  12.531  0.3728 -0.1111 -0.2344
10048TIP3    H154339   7.565   2.487  12.495  0.1563  2.4169 -1.2177
10048TIP3    H254340   7.442   2.575  12.501 -1.5145  0.0450  2.1030
10049TIP3   OH254341   3.944   5.308  10.515  0.1241 -0.0708 -0.2287
10049TIP3    H154342   3.913   5.398  10.515 -0.9555 -0.4012  1.2910
10049TIP3    H254343   4.010   5.305  10.584  0.6548 -0.2894 -0.7418
10050TIP3   OH254344   4.669   2.935  10.773  0.0875 -0.1839 -0.2235
10050TIP3    H154345   4.710   3.012  10.813 -2.1707  0.2921  1.3525
10050TIP3    H254346   4.691   2.941  10.680  2.2814  0.7967  0.2954
10051TIP3   OH254347   6.849   7.161  10.656 -0.6021  0.4293 -0.5058
10051TIP3    H154348   6.800   7.195  10.731 -2.2027 -0.1254 -1.2488
10051TIP3    H254349   6.932   7.209  10.657 -0.5680  0.4022  1.6199
10052TIP3   OH254350   6.846   5.422  12.021 -0.4607  0.4389 -0.0091
10052TIP3    H154351   6.865   5.375  12.102  0.4375 -1.5151 -1.2964
10052TIP3    H254352   6.771   5.478  12.043 -1.1058 -1.0369  1.8083
10053TIP3   OH254353   0.671   1.378  12.508 -0.0464 -0.9499  0.0452
10053TIP3    H154354   0.587   1.382  12.554  0.0052 -0.7604  0.1246
10053TIP3    H254355   0.677   1.462  12.462  1.3848  0.2632  2.2846
10054TIP3   OH254356   1.830   5.403  12.097  0.0692  0.4796  1.1119
10054TIP3    H154357   1.776   5.340  12.050  1.0964 -0.3048  0.9289
10054TIP3    H254358   1.865   5.460  12.029 -0.1201  0.6574  1.1652
10055TIP3   OH254359   4.748   3.525  11.042 -0.2362  0.3009 -0.0608
10055TIP3    H154360   4.828   3.474  11.032  0.4905  1.4847 -0.5429
10055TIP3    H254361   4.754   3.593  10.974 -1.4623  0.6516  0.1500
10056TIP3   OH254362   7.528   2.529  11.261 -0.3588  0.0800 -0.5054
10056TIP3    H154363   7.456   2.582  11.225 -1.1413 -1.6998 -1.7078
10056TIP3    H254364   7.495   2.440  11.258  1.8413 -0.7774 -0.9089
10057TIP3   OH254365   5.106   2.694  12.082 -0.0202 -0.1320 -0.0251
10057TIP3    H154366   5.147   2.609  12.068 -1.0089 -0.3930 -1.7979
10057TIP3    H254367   5.170   2.758  12.050  0.1114 -0.3352 -0.1681
10058TIP3   OH254368   0.319   5.662  11.850  0.7556 -0.0691  0.2113
10058TIP3    H154369   0.414   5.660  11.864  1.0043 -0.7317 -1.2887
10058TIP3    H254370   0.281   5.627  11.930  1.8375 -0.6886  0.4695
10059TIP3   OH254371   2.531   2.198  12.377 -0.0497 -0.5431  0.0289
10059TIP3    H154372   2.550   2.176  12.285  2.2998  1.4342 -0.0297
10059TIP3    H254373   2.605   2.251  12.405 -2.6201  2.4113  1.8192
10060TIP3   OH254374   4.727   6.149  11.618  0.1762  0.3553  0.7319
10060TIP3    H154375   4.639   6.174  11.590  0.7066  0.8225 -0.6296
10060TIP3    H254376   4.764   6.229  11.653  0.1963  0.2625  0.9204
10061TIP3   OH254377   0.242   2.574  11.452  0.5041 -0.5715 -0.1445
10061TIP3    H154378   0.219   2.535  11.536  1.3398 -0.7157  0.0241
10061TIP3    H254379   0.337   2.571  11.449  0.4661 -2.3172 -1.9108
10062TIP3   OH254380   4.604   1.866  12.813  0.2411 -0.2722  0.5472
10062TIP3    H154381   4.513   1.843  12.832  0.5138  0.1504  2.6060
10062TIP3    H254382   4.649   1.782  12.802 -0.2218 -0.5020  0.4001
10063TIP3   OH254383   0.422   6.040  12.122 -0.1160 -0.0476 -0.3323
10063TIP3    H154384   0.506   6.005  12.094  0.5019 -0.2101  1.5945
10063TIP3    H254385   0.364   5.963  12.123  0.7626 -0.7781  2.0936
10064TIP3   OH254386   4.042   5.625  10.780  0.1463  0.2169  0.0109
10064TIP3    H154387   4.040   5.717  10.753  1.3967  0.0222 -0.8837
10064TIP3    H254388   4.116   5.589  10.731  0.7592 -0.8520  1.6740
10065TIP3   OH254389   2.831   2.465  10.485  0.1423  0.3169  0.2771
10065TIP3    H154390   2.914   2.426  10.458  0.4782  1.3461 -0.2574
10065TIP3    H254391   2.834   2.465  10.580 -1.0086 -3.2826  0.4676
10066TIP3   OH254392   2.710   1.669  12.830 -0.0298 -0.1941  0.0161
10066TIP3    H154393   2.682   1.636  12.744 -0.5318 -2.9383  1.1345
10066TIP3    H254394   2.797   1.631  12.843 -0.8735 -1.6777  1.6150
10067TIP3   OH254395   7.403   0.953  12.923 -0.1349 -0.2927 -0.9295
10067TIP3    H154396   7.372   0.906  12.845  0.1669  0.3396 -1.4282
10067TIP3    H254397   7.407   1.044  12.896  3.3528 -0.4233 -1.3085
10068TIP3   OH254398   7.267   2.534  13.442 -0.1497  0.1153  0.5181
10068TIP3    H154399   7.244   2.444  13.465  0.1235 -0.2005 -0.4046
10068TIP3    H254400   7.344   2.525  13.385 -0.7049  0.8689 -0.3730
10069TIP3   OH254401   5.481   6.828  11.367 -0.5557  0.0666  0.0374
10069TIP3    H154402   5.471   6.842  11.462 -0.4399  1.6649 -0.1468
10069TIP3    H254403   5.566   6.785  11.358 -0.4024  0.2298  0.6428
10070TIP3   OH254404   7.264   0.736  11.032 -0.3558  0.4478 -0.4508
10070TIP3    H154405   7.317   0.679  10.977 -1.4498 -0.7622 -0.2888
10070TIP3    H254406   7.326   0.775  11.094  0.4719 -0.2008 -0.8591
10071TIP3   OH254407   2.473   1.629  11.758  0.2425  0.0808 -0.0237
10071TIP3    H154408   2.494   1.713  11.718 -1.2530  0.0535 -0.9295
10071TIP3    H254409   2.479   1.645  11.852 -0.8982  1.4493 -0.1552
10072TIP3   OH254410   7.435   2.005  11.668  0.4918  0.1180  0.6469
10072TIP3    H154411   7.390   1.994  11.752 -0.0755  0.6174  0.4183
10072TIP3    H254412   7.385   1.952  11.607 -1.1629  2.3398 -0.0736
10073TIP3   OH254413   2.958   1.432  11.540  0.2916 -0.5078 -0.5513
10073TIP3    H154414   2.941   1.474  11.456 -1.1807 -1.2311 -0.6390
10073TIP3    H254415   2.947   1.339  11.524  0.4696 -0.6925  0.3422
10074TIP3   OH254416   1.672   6.244  10.562  0.3612 -0.1420  0.0820
10074TIP3    H154417   1.725   6.291  10.497  0.9719 -1.1158 -0.1593
10074TIP3    H254418   1.736   6.193  10.612 -0.0550  0.8757  1.7310
10075TIP3   OH254419   6.741   2.999  12.078 -0.0028  0.5249 -0.5844
10075TIP3    H154420   6.798   3.047  12.019 -0.1178  1.9532  0.4122
10075TIP3    H254421   6.792   2.922  12.104  0.8707  0.9882 -0.8955
10076TIP3   OH254422   7.414   2.287  11.308 -0.8971  0.0764  0.1540
10076TIP3    H154423   7.470   2.223  11.353 -0.2986 -0.0266 -0.7168
10076TIP3    H254424   7.336   2.292  11.363 -0.4043 -0.4269  0.9330
10077TIP3   OH254425   6.305   2.122  10.893 -0.2244 -0.1303  0.4177
10077TIP3    H154426   6.284   2.216  10.900  1.2335  0.1754  0.9901
10077TIP3    H254427   6.280   2.086  10.978  0.2309 -0.0345  0.5962
10078TIP3   OH254428   0.445   4.685  13.252 -0.7765 -0.3600 -0.1163
10078TIP3    H154429   0.439   4.591  13.234  0.9113 -0.6952  0.8803
10078TIP3    H254430   0.354   4.713  13.262 -1.3751 -1.6124 -1.6513
10079TIP3   OH254431   7.483   6.801  12.429  0.3257 -0.1223 -0.2853
10079TIP3    H154432   7.516   6.722  12.472  0.7242 -1.1288 -2.3171
10079TIP3    H254433   7.530   6.872  12.472  1.2533 -1.1245  0.4429
10080TIP3   OH254434   2.261   1.086  10.836  0.3347 -0.2381 -0.0818
10080TIP3    H154435   2.254   1.122  10.925  1.0366 -0.9603  0.2775
10080TIP3    H254436   2.317   1.147  10.789  0.9766 -0.5019  0.3324
10081TIP3   OH254437   1.876   3.679  11.727  0.0524 -0.1056 -0.3817
10081TIP3    H154438   1.926   3.680  11.809 -0.2274  1.0128 -0.2123
10081TIP3    H254439   1.786   3.664  11.755 -0.1200  0.8006 -0.4302
10082TIP3   OH254440   6.080   3.262  10.665 -0.0179 -0.6476 -0.0774
10082TIP3    H154441   6.056   3.320  10.738  0.7927 -2.3572  1.6471
10082TIP3    H254442   5.996   3.229  10.633 -0.3788 -0.2619  0.4450
10083TIP3   OH254443   3.474   1.031  12.362 -0.4435  0.1384 -0.5028
10083TIP3    H154444   3.397   0.984  12.328 -0.2181 -0.7538  0.1810
10083TIP3    H254445   3.482   1.001  12.452  1.4645 -0.7733 -0.9209
10084TIP3   OH254446   4.551   0.621  11.985 -0.4072 -0.2153 -0.3445
10084TIP3    H154447   4.564   0.591  11.895 -2.2912 -1.7395 -0.1805
10084TIP3    H254448   4.462   0.593  12.007 -0.5149  1.3557  1.5375
10085TIP3   OH254449   4.461   2.737  11.670 -0.8676  0.0066 -0.1701
10085TIP3    H154450   4.378   2.783  11.672 -0.7970  0.1283 -0.0084
10085TIP3    H254451   4.517   2.790  11.613  0.3261  2.0490  2.6763
10086TIP3   OH254452   2.521   4.862  12.112 -0.2884  0.6236  0.0309
10086TIP3    H154453   2.591   4.859  12.177 -0.0820 -2.2694 -0.1977
10086TIP3    H254454   2.444   4.889  12.162  0.1422 -0.2869  1.2311
10087TIP3   OH254455   2.637   4.770  11.675  0.2127  0.4671  0.0353
10087TIP3    H154456   2.588   4.691  11.696 -0.4551  1.1252  1.0399
10087TIP3    H254457   2.585   4.815  11.608  0.2308  0.4110 -0.0163
10088TIP3   OH254458   4.410   2.368  10.445 -0.2808  0.3342  0.0100
10088TIP3    H154459   4.406   2.299  10.511 -0.2882  1.0258  0.7348
10088TIP3    H254460   4.491   2.349  10.396 -0.5597 -0.4888 -0.1399
10089TIP3   OH254461   5.698   6.551  11.833 -0.2121  0.0715  0.2211
10089TIP3    H154462   5.658   6.503  11.761  0.7559  2.2215 -1.8855
10089TIP3    H254463   5.684   6.643  11.811  0.0711  0.8369  2.8621
10090TIP3   OH254464   2.648   1.685  13.171 -0.4800 -0.2335 -0.2210
10090TIP3    H154465   2.591   1.708  13.098 -0.5451  3.4701  0.7642
10090TIP3    H254466   2.590   1.684  13.247 -0.0986 -2.1647  0.0941
10091TIP3   OH254467   3.288   5.858  12.064  0.1246  0.2498  0.5291
10091TIP3    H154468   3.309   5.765  12.073  1.4100  0.6204  1.5904
10091TIP3    H254469   3.226   5.876  12.135  0.8364  0.4680  1.1034
10092TIP3   OH254470   2.378   0.046  11.291  0.1072 -0.6583 -0.2615
10092TIP3    H154471   2.418   0.017  11.210 -0.5088  0.9387 -1.1803
10092TIP3    H254472   2.392   0.141  11.293 -1.0735 -0.4703  0.8156
10093TIP3   OH254473   5.821   1.184  13.059  0.9958  0.0974 -0.4348
10093TIP3    H154474   5.908   1.148  13.045  0.9969  0.0295 -0.2534
10093TIP3    H254475   5.832   1.278  13.043  1.2883  0.2145  0.3958
10094TIP3   OH254476   0.480   5.470  12.295 -0.6795 -0.2838 -0.5307
10094TIP3    H154477   0.407   5.470  12.356 -1.5207 -0.0858 -1.5153
10094TIP3    H254478   0.553   5.507  12.345 -1.4596  0.2871  0.2128
10095TIP3   OH254479   2.593   4.077  13.090  0.0893 -0.2876  0.0934
10095TIP3    H154480   2.618   4.159  13.048 -0.4264  0.0647  0.4552
10095TIP3    H254481   2.583   4.099  13.183  1.2353 -1.0561  0.4211
10096TIP3   OH254482   2.171   2.075  10.881 -0.0609  0.6774  0.0310
10096TIP3    H154483   2.223   2.107  10.955 -1.1533  3.6639 -0.3297
10096TIP3    H254484   2.081   2.072  10.914 -0.1297 -1.5271 -0.1984
10097TIP3   OH254485   6.929   5.572  11.036 -0.3962 -0.0430  0.4218
10097TIP3    H154486   6.926   5.492  11.088  0.9989 -0.9449 -0.8055
10097TIP3    H254487   6.959   5.639  11.097  1.8122 -1.2021  0.7180
10098TIP3   OH254488   2.375   0.334  11.282  0.3701 -0.2372 -0.2281
10098TIP3    H154489   2.410   0.400  11.343 -0.2874  0.7993 -0.9315
10098TIP3    H254490   2.340   0.386  11.209 -2.6090 -1.1498  0.3991
10099TIP3   OH254491   2.023   6.099  11.449  0.1707 -0.2665 -0.1515
10099TIP3    H154492   2.055   6.046  11.376 -1.0782 -1.2453 -0.0178
10099TIP3    H254493   1.948   6.147  11.414  1.6684  2.0333 -0.4679
10100TIP3   OH254494   2.523   2.290  10.776 -0.4805 -0.0115  0.6305
10100TIP3    H154495   2.555   2.297  10.686  1.3873 -0.1315  1.2381
10100TIP3    H254496   2.577   2.222  10.816 -1.9081 -0.6148  1.6061
10101TIP3   OH254497   2.078   0.042  11.629 -0.4907  0.5112  0.2186
10101TIP3    H154498   2.139   0.109  11.600 -0.7646  1.4231  1.6322
10101TIP3    H254499   2.123  -0.001  11.702 -0.5333 -0.5224 -0.3375
10102TIP3   OH254500   7.642   6.100  11.822  0.1848 -0.2898 -0.0747
10102TIP3    H154501   7.718   6.137  11.867  0.1834 -0.0296 -0.2825
10102TIP3    H254502   7.601   6.043  11.887  1.3466 -1.5477 -0.3985
10103TIP3   OH254503   2.256   1.459  10.264  0.2383 -0.0159 -0.0091
10103TIP3    H154504   2.175   1.495  10.228  1.6375  3.3447 -0.1134
10103TIP3    H254505   2.258   1.489  10.355  0.3335 -2.0530  0.7178
10104TIP3   OH254506   6.076   0.985  11.601 -0.4515  0.3067  0.4750
10104TIP3    H154507   6.099   0.894  11.586  0.8287  0.6681  0.1111
10104TIP3    H254508   6.020   1.008  11.526  0.1099  0.1179 -0.0138
10105TIP3   OH254509   5.576   3.445  11.976  0.1244 -0.1576  0.2383
10105TIP3    H154510   5.603   3.462  12.066  0.7694 -2.5957  0.5695
10105TIP3    H254511   5.524   3.521  11.951  1.0910  1.1934  2.1819
10106TIP3   OH254512   6.432   5.716  11.903 -0.2473 -0.7088 -1.2913
10106TIP3    H154513   6.499   5.784  11.898 -1.8876  1.2720  1.2236
10106TIP3    H254514   6.366   5.742  11.838 -1.6602  1.2046  0.7610
10107TIP3   OH254515   6.913   6.390  12.412 -0.0893 -0.0231 -0.1343
10107TIP3    H154516   6.944   6.305  12.443  0.2967  0.6686  1.5035
10107TIP3    H254517   6.864   6.426  12.486 -2.0213  0.3273 -1.5140
10108TIP3   OH254518   4.946   1.579  13.013 -0.1349 -0.4218 -0.0473
10108TIP3    H154519   4.967   1.649  12.951 -1.0010 -0.8226 -0.8043
10108TIP3    H254520   5.027   1.568  13.063  0.4924  0.1211 -0.8963
10109TIP3   OH254521   3.857   3.241  12.441 -0.7397 -0.1154 -0.3811
10109TIP3    H154522   3.879   3.334  12.441  0.2808 -0.3242  0.5516
10109TIP3    H254523   3.942   3.197  12.435 -1.1189 -0.9782  0.3563
10110TIP3   OH254524   6.347   5.180  11.153  0.2691 -0.2611 -0.0486
10110TIP3    H154525   6.309   5.251  11.205  0.0478 -1.9534  2.2703
10110TIP3    H254526   6.415   5.222  11.100 -1.9266  2.1645 -1.1885
10111TIP3   OH254527   2.303   6.940  10.882 -0.5885 -0.1736  0.4624
10111TIP3    H154528   2.306   6.936  10.977 -0.0623 -0.4045  0.4386
10111TIP3    H254529   2.394   6.951  10.855 -0.7024 -0.3691 -0.0257
10112TIP3   OH254530   7.505   5.429  11.267 -0.2665  0.6420  0.7162
10112TIP3    H154531   7.583   5.442  11.213 -1.4173 -0.5277 -1.3521
10112TIP3    H254532   7.538   5.388  11.347  1.0062 -3.0397 -1.4589
10113TIP3   OH254533   0.140   6.503  11.954 -0.6784 -0.2946  0.0706
10113TIP3    H154534   0.214   6.498  11.893  0.1387 -2.2415  1.1539
10113TIP3    H254535   0.063   6.505  11.897  0.0394 -2.3131 -1.0769
10114TIP3   OH254536   4.307   7.166  11.971 -0.8205  0.1270  0.3819
10114TIP3    H154537   4.361   7.169  11.893 -0.0867 -1.8807  0.7469
10114TIP3    H254538   4.223   7.130  11.941 -0.5883 -0.5035  0.4653
10115TIP3   OH254539   3.194   6.400  12.083 -0.0512 -0.7406 -0.3322
10115TIP3    H154540   3.111   6.428  12.043 -0.0753  1.9644  1.3477
10115TIP3    H254541   3.262   6.434  12.025 -0.1144  0.6405  0.3753
10116TIP3   OH254542   0.326   2.510  12.318  0.1402 -0.2988  0.6428
10116TIP3    H154543   0.350   2.516  12.225 -1.6898  0.1956  0.1531
10116TIP3    H254544   0.332   2.417  12.339  0.7578 -0.3904  0.0786
10117TIP3   OH254545   3.817   5.456  10.804  0.2369 -0.2374  0.2230
10117TIP3    H154546   3.911   5.463  10.822  0.4062 -2.2435  0.3150
10117TIP3    H254547   3.803   5.517  10.731  1.3633  0.9206  0.9220
10118TIP3   OH254548   2.698   0.388  10.705  0.2595  0.3661 -0.0216
10118TIP3    H154549   2.659   0.470  10.735 -1.6805 -0.4968 -0.0025
10118TIP3    H254550   2.627   0.324  10.711  0.9979 -0.8101 -2.3255
10119TIP3   OH254551   1.041   5.950  11.295 -0.3057 -0.0559  0.0690
10119TIP3    H154552   1.121   5.921  11.340  0.4247  0.7885 -0.6657
10119TIP3    H254553   1.030   6.041  11.323 -1.2651 -0.2861  0.4936
10120TIP3   OH254554   5.133   4.555  13.161 -0.3990 -0.3846  0.1976
10120TIP3    H154555   5.193   4.624  13.191 -0.1053 -0.6070  0.1225
10120TIP3    H254556   5.190   4.488  13.125 -0.7659  0.5706 -2.3823
10121TIP3   OH254557   5.701   3.542  10.412 -0.4733 -0.1268 -0.5243
10121TIP3    H154558   5.690   3.449  10.397 -1.2883 -0.3848  1.3452
10121TIP3    H254559   5.660   3.585  10.337 -2.8496 -1.2530  0.0663
10122TIP3   OH254560   2.959   7.325  11.583 -0.4080  0.3002  0.6214
10122TIP3    H154561   2.966   7.265  11.509 -0.2416  0.6449  0.3556
10122TIP3    H254562   2.993   7.276  11.658  0.0686  0.1942  0.3352
10123TIP3   OH254563   5.813   3.687  11.789  0.1947  0.4341 -0.2168
10123TIP3    H154564   5.835   3.599  11.818  0.3691  0.3311 -0.6581
10123TIP3    H254565   5.890   3.717  11.741 -0.0196  0.6706 -0.4196
10124TIP3   OH254566   2.244   7.539  11.765  0.3347  0.0035 -0.2052
10124TIP3    H154567   2.274   7.532  11.674  1.3747 -0.3353  0.1441
10124TIP3    H254568   2.314   7.497  11.816 -0.4861 -0.2802  0.7069
10125TIP3   OH254569   2.463   1.947  12.458  0.0987 -0.2811  0.0528
10125TIP3    H154570   2.488   2.037  12.439  0.5285 -0.4614 -0.2262
10125TIP3    H254571   2.511   1.925  12.538  0.4371 -0.4542 -0.1973
10126TIP3   OH254572   1.541   6.208  12.029  0.2514  0.1508 -0.7093
10126TIP3    H154573   1.512   6.283  11.977 -1.3665  1.0046  1.2626
10126TIP3    H254574   1.480   6.138  12.007 -1.4187  0.9675  1.0316
10127TIP3   OH254575   0.062   0.697  11.646  0.0156 -0.4002  0.1855
10127TIP3    H154576   0.107   0.625  11.602 -0.5601  0.1869 -1.4175
10127TIP3    H254577  -0.019   0.658  11.679 -1.0295 -0.2127 -2.0004
10128TIP3   OH254578   4.148   2.184  12.145  0.1302 -0.7790 -0.2105
10128TIP3    H154579   4.056   2.208  12.136 -0.3430 -1.5159  1.9428
10128TIP3    H254580   4.195   2.268  12.145 -0.6444 -0.3380 -0.3837
10129TIP3   OH254581   7.665   5.690  12.681  0.1982 -0.1412  0.4711
10129TIP3    H154582   7.757   5.669  12.662 -0.1641 -1.0631 -0.3795
10129TIP3    H254583   7.619   5.606  12.674 -0.8926  0.4870 -0.2969
10130TIP3   OH254584   0.515   2.420  12.506 -0.3508 -0.4378 -0.3783
10130TIP3    H154585   0.487   2.391  12.593 -0.5882  1.3349  0.1891
10130TIP3    H254586   0.491   2.349  12.447  1.3314 -2.4353  1.1963
10131TIP3   OH254587   3.427   2.091  12.504 -0.4751  0.4123 -0.3627
10131TIP3    H154588   3.387   2.015  12.547  2.7090 -0.8048  0.7221
10131TIP3    H254589   3.491   2.053  12.444  0.4811  2.2236 -0.5452
10132TIP3   OH254590   5.139   4.628  12.309 -0.3796  0.3468  0.6258
10132TIP3    H154591   5.103   4.673  12.232 -0.5662 -0.2237  0.3752
10132TIP3    H254592   5.197   4.562  12.273 -0.4953  0.0541  0.9762
10133TIP3   OH254593   2.684   3.955  10.614  0.2840  0.0559 -0.2211
10133TIP3    H154594   2.652   3.904  10.539  0.1404 -0.2552  0.0503
10133TIP3    H254595   2.605   3.977  10.664  0.3684  0.3589 -0.2179
10134TIP3   OH254596   4.240   3.989  10.869 -0.0870  0.4338 -0.6412
10134TIP3    H154597   4.287   4.027  10.795 -0.7769  0.7464 -0.9249
10134TIP3    H254598   4.309   3.947  10.922  0.4128  0.2323 -1.4333
10135TIP3   OH254599   2.682   2.631  10.322 -0.1026 -0.3871  0.6382
10135TIP3    H154600   2.740   2.575  10.374 -0.9599 -0.8029  1.1564
10135TIP3    H254601   2.722   2.718  10.328  0.0524 -0.5087  1.6593
10136TIP3   OH254602   1.468   4.591  10.491  0.0541 -0.3955  0.0057
10136TIP3    H154603   1.492   4.592  10.399 -1.3038 -0.0931 -0.3634
10136TIP3    H254604   1.463   4.684  10.515 -2.3464 -0.3507 -0.4069
10137TIP3   OH254605   2.584   3.607  12.739  0.4634 -0.1690  0.0588
10137TIP3    H154606   2.497   3.637  12.713  0.4735  0.5287  0.8045
10137TIP3    H254607   2.568   3.525  12.785  0.0113  0.7871  1.6774
10138TIP3   OH254608   1.395   2.591  11.483 -0.2132  0.1819  0.0682
10138TIP3    H154609   1.431   2.678  11.466 -1.9160  0.8409 -0.4006
10138TIP3    H254610   1.422   2.539  11.407  0.3036  0.4769  0.0459
10139TIP3   OH254611   4.984   7.410  12.065  0.4585  0.2978 -0.2414
10139TIP3    H154612   5.000   7.416  12.159  0.7295  1.3912 -0.3510
10139TIP3    H254613   4.977   7.500  12.036 -1.1384 -0.0460 -1.0338
10140TIP3   OH254614   1.587   5.920  11.865 -0.2209 -0.3852 -0.3363
10140TIP3    H154615   1.604   5.998  11.811 -0.9303  1.1235  1.4881
10140TIP3    H254616   1.510   5.879  11.824  0.3461 -0.3217 -1.5038
10141TIP3   OH254617   7.445   2.443  10.226 -0.2412 -0.4137  0.3427
10141TIP3    H154618   7.372   2.413  10.173 -0.9993 -1.4977  1.9102
10141TIP3    H254619   7.481   2.363  10.265 -0.2969  0.3695  2.1284
10142TIP3   OH254620   3.165   2.281  12.038 -0.2914 -0.1031 -0.1764
10142TIP3    H154621   3.230   2.350  12.048  1.8357 -1.9051 -0.7571
10142TIP3    H254622   3.152   2.275  11.943  0.8439 -1.5779 -0.2696
10143TIP3   OH254623   3.538   3.247  11.171  1.5847  0.1433  0.6436
10143TIP3    H154624   3.533   3.190  11.093  1.2144 -0.7909  1.3261
10143TIP3    H254625   3.513   3.333  11.139  0.3078 -0.4590 -0.0514
10144TIP3   OH254626   2.603   3.037  11.347  0.0848 -0.1470 -0.4699
10144TIP3    H154627   2.650   2.955  11.366  1.2682  0.5191 -0.4363
10144TIP3    H254628   2.643   3.069  11.266 -0.3552  0.4142 -0.4707
10145TIP3   OH254629   2.292   3.851  12.238 -0.1431 -0.2350  0.2762
10145TIP3    H154630   2.317   3.791  12.168 -4.0697  0.8705 -2.4048
10145TIP3    H254631   2.236   3.798  12.296 -1.8380  0.1545 -0.9077
10146TIP3   OH254632   0.101   3.987  12.774 -0.2569  0.3717  0.0494
10146TIP3    H154633   0.119   3.898  12.802  3.9613  1.2439  0.7948
10146TIP3    H254634   0.129   3.991  12.683  2.2431  1.4573  0.7876
10147TIP3   OH254635   4.764   0.049  10.927  0.2660 -0.1369 -0.0319
10147TIP3    H154636   4.703   0.072  10.998  0.8677  0.0292  0.4429
10147TIP3    H254637   4.711   0.053  10.848 -0.0130  1.4934  0.1922
10148TIP3   OH254638   5.563   4.642  13.055  0.2259  0.3258 -0.4818
10148TIP3    H154639   5.637   4.587  13.030 -0.9410 -2.8318  2.3063
10148TIP3    H254640   5.604   4.724  13.083  2.5856 -0.8593 -0.1562
10149TIP3   OH254641   4.595   0.967  11.572 -0.1324 -0.5614  0.1190
10149TIP3    H154642   4.519   0.981  11.629 -0.4199 -0.8605 -0.1884
10149TIP3    H254643   4.609   1.052  11.529 -1.3312 -0.9345 -1.0777
10150TIP3   OH254644   0.939   6.448  11.764  0.3701 -0.1414 -0.2574
10150TIP3    H154645   1.006   6.385  11.741  1.4942  1.4203 -1.5025
10150TIP3    H254646   0.911   6.485  11.681  1.1802  2.3734  0.4916
10151TIP3   OH254647   4.295   3.722  13.096 -0.6092  0.9487 -0.2515
10151TIP3    H154648   4.200   3.712  13.106 -0.3891  0.4255  1.5925
10151TIP3    H254649   4.332   3.670  13.167  1.1414 -0.5906 -2.1572
10152TIP3   OH254650   7.612   5.018  11.282 -0.3979  0.3653 -0.5897
10152TIP3    H154651   7.544   5.020  11.349  0.0264 -1.1346 -0.0841
10152TIP3    H254652   7.570   5.059  11.205 -2.1302 -1.1377 -0.5162
10153TIP3   OH254653   1.285   6.008  11.392 -0.0494 -0.3775  0.1985
10153TIP3    H154654   1.272   6.096  11.359  0.1373 -0.7045 -0.7812
10153TIP3    H254655   1.368   5.980  11.354 -0.7846 -1.4844 -0.6669
10154TIP3   OH254656   1.343   6.963  11.492  0.1506 -0.5976  0.2769
10154TIP3    H154657   1.311   6.908  11.564  0.6859 -1.0052  0.2104
10154TIP3    H254658   1.407   6.908  11.447  0.1711 -0.1688 -0.2220
10155TIP3   OH254659   1.093   7.159  11.734 -0.3559 -0.1313  0.0333
10155TIP3    H154660   1.141   7.234  11.697 -0.7050  0.3788  0.6057
10155TIP3    H254661   1.147   7.131  11.808 -1.0772  0.6409  0.8721
10156TIP3   OH254662   7.637   1.450  11.993  0.5602 -0.0242 -0.5904
10156TIP3    H154663   7.657   1.446  12.087 -0.7957  0.1819 -0.2711
10156TIP3    H254664   7.618   1.359  11.969  0.5282 -0.0202 -0.5794
10157TIP3   OH254665   6.940   2.334  11.926 -0.1360 -0.0039 -0.5032
10157TIP3    H154666   6.984   2.400  11.873 -0.2049 -0.4092 -1.0691
10157TIP3    H254667   6.949   2.252  11.876 -0.2153 -0.3866  0.0978
10158TIP3   OH254668   1.644   6.873  11.001  0.1840  0.0732 -0.1795
10158TIP3    H154669   1.598   6.953  10.978 -0.2311 -0.3807 -0.9765
10158TIP3    H254670   1.730   6.903  11.031  0.3725  0.7715 -1.3440
10159TIP3   OH254671   3.683   3.784  11.409  0.0715 -0.4103  0.3911
10159TIP3    H154672   3.671   3.762  11.502  1.9083 -0.6952  0.5891
10159TIP3    H254673   3.741   3.860  11.409  0.0585 -0.3868 -0.5313
10160TIP3   OH254674   5.776   1.619  10.715 -0.2177 -0.6882 -0.4259
10160TIP3    H154675   5.807   1.530  10.730  2.0516  0.3918  2.1916
10160TIP3    H254676   5.856   1.671  10.703 -1.3494  1.2495 -0.1226
10161TIP3   OH254677   7.461   3.763  12.305  0.9643  0.1041 -0.2120
10161TIP3    H154678   7.465   3.753  12.400  1.5010 -0.3231 -0.2752
10161TIP3    H254679   7.375   3.803  12.289 -0.6226 -2.8696  0.1823
10162TIP3   OH254680   5.784   6.642  10.732  0.4615  0.3628 -0.0013
10162TIP3    H154681   5.771   6.572  10.667  1.3240 -1.7101  1.9181
10162TIP3    H254682   5.699   6.684  10.739 -0.2761 -0.9148 -0.7946
10163TIP3   OH254683   6.459   6.030  12.004  0.0153 -0.3492  1.1615
10163TIP3    H154684   6.367   6.027  12.032 -0.5950  0.0135 -0.6623
10163TIP3    H254685   6.487   6.119  12.025 -0.3934 -0.1218  0.7632
10164TIP3   OH254686   5.318   5.302  11.694  0.4458 -0.0240  0.3048
10164TIP3    H154687   5.242   5.299  11.635  0.0398 -1.1478  0.8539
10164TIP3    H254688   5.394   5.301  11.636  0.0534  0.9700 -0.2500
10165TIP3   OH254689   1.602   5.074  12.049  0.1019 -0.1607  0.0316
10165TIP3    H154690   1.576   5.077  12.141 -0.9332  1.7217 -0.2625
10165TIP3    H254691   1.521   5.089  12.000  0.9449  1.0145 -1.0921
10166TIP3   OH254692   3.089   0.526  11.287 -0.7151 -0.0200  0.5722
10166TIP3    H154693   3.172   0.558  11.251 -0.2202 -1.9381 -0.1036
10166TIP3    H254694   3.101   0.532  11.382  0.3723 -0.6060  0.4936
10167TIP3   OH254695   1.758   5.192  11.172 -0.2543  0.6142  0.2694
10167TIP3    H154696   1.848   5.216  11.150  0.5092 -0.9235  1.5237
10167TIP3    H254697   1.749   5.215  11.265 -0.9953  0.3247  0.2738
10168TIP3   OH254698   4.918   6.881  12.391  0.1899 -0.3792 -0.2301
10168TIP3    H154699   4.839   6.840  12.426 -0.0590  0.1272 -0.1862
10168TIP3    H254700   4.981   6.809  12.383 -0.3713 -0.8438 -0.5587
10169TIP3   OH254701   7.642   2.169  13.164 -0.5817  0.0099 -0.1919
10169TIP3    H154702   7.618   2.213  13.083 -2.6007  0.5613  0.6359
10169TIP3    H254703   7.596   2.085  13.160 -0.3189 -0.1548  0.1678
10170TIP3   OH254704   4.840   4.808  11.139  0.6117 -0.5209  0.0520
10170TIP3    H154705   4.897   4.795  11.214  1.1080 -0.9667 -0.3918
10170TIP3    H254706   4.760   4.759  11.160  0.0374  0.7660  1.0306
10171TIP3   OH254707   2.220   4.263  12.376  0.3337 -0.0954  0.3158
10171TIP3    H154708   2.258   4.216  12.450 -0.4036 -0.1565  0.6644
10171TIP3    H254709   2.194   4.348  12.413 -4.0999 -1.6373  1.3380
10172TIP3   OH254710   3.017   1.747  11.194 -0.8801 -0.2614  0.3497
10172TIP3    H154711   3.108   1.732  11.166 -0.8421  0.1798  0.2266
10172TIP3    H254712   2.988   1.662  11.228 -0.3004 -0.3126  0.7341
10173TIP3   OH254713   2.802   7.029  12.172  0.1593 -0.1871 -0.1332
10173TIP3    H154714   2.796   6.993  12.083  0.6607  1.0293 -0.6932
10173TIP3    H254715   2.722   7.001  12.215 -0.8259  0.4621 -1.4643
10174TIP3   OH254716   2.602   3.362  11.634 -0.5000 -0.1713 -0.6393
10174TIP3    H154717   2.533   3.314  11.589  0.6475 -2.5243 -0.0146
10174TIP3    H254718   2.680   3.346  11.582  0.0187  0.6136 -0.1185
10175TIP3   OH254719   3.064   4.886  12.374 -0.2242 -0.4493 -1.0228
10175TIP3    H154720   3.031   4.929  12.295  1.3675 -0.5682 -1.8083
10175TIP3    H254721   3.080   4.796  12.348 -0.5040 -0.7122 -0.3044
10176TIP3   OH254722   5.282   2.351  11.519 -0.1187 -0.0593  0.7194
10176TIP3    H154723   5.240   2.374  11.602  0.6929 -1.8511  1.6750
10176TIP3    H254724   5.257   2.259  11.504  3.0788 -1.1003  1.1623
10177TIP3   OH254725   4.358   0.414  11.461 -0.5323  0.3442 -0.5072
10177TIP3    H154726   4.374   0.504  11.490  0.5694 -0.3153  1.0750
10177TIP3    H254727   4.276   0.390  11.504 -0.2477  0.2350 -0.0154
10178TIP3   OH254728   7.070   6.896  12.684  0.0475 -0.1190  0.1485
10178TIP3    H154729   7.049   6.811  12.724  1.3822 -1.1368 -1.1684
10178TIP3    H254730   7.034   6.961  12.744  0.6386 -1.5725  2.1748
10179TIP3   OH254731   3.012   0.475  12.343  0.1340 -0.0642 -0.1301
10179TIP3    H154732   2.959   0.525  12.405 -0.2595  0.0946 -0.5838
10179TIP3    H254733   2.957   0.468  12.265  0.6778 -0.1290 -0.5152
10180TIP3   OH254734   0.911   0.651  10.928 -0.3878  0.0716  0.4869
10180TIP3    H154735   0.856   0.722  10.960 -0.2308 -0.7922  2.9128
10180TIP3    H254736   0.990   0.655  10.983 -0.2883 -1.8090  0.5541
10181TIP3   OH254737   2.929   3.251  12.499  0.2740 -0.2597 -0.2302
10181TIP3    H154738   3.021   3.260  12.526  0.1084 -0.6760  0.5026
10181TIP3    H254739   2.884   3.322  12.544  0.2836  0.1596 -0.8678
10182TIP3   OH254740   2.720   0.592  10.488 -0.6199  0.0058 -0.8680
10182TIP3    H154741   2.640   0.581  10.540 -0.4549  0.0502 -0.6019
10182TIP3    H254742   2.788   0.609  10.553 -0.3712 -0.1540 -1.0846
10183TIP3   OH254743   6.464   6.357  11.515 -0.8939  0.1349 -0.2487
10183TIP3    H154744   6.509   6.348  11.599 -0.7524  2.6662  0.0149
10183TIP3    H254745   6.533   6.382  11.453 -1.0070 -1.6421 -1.1672
10184TIP3   OH254746   2.262   5.621  12.211 -0.2899  0.1845  0.1574
10184TIP3    H154747   2.341   5.671  12.230 -0.9022  1.8604 -1.4002
10184TIP3    H254748   2.194   5.664  12.262 -0.5588  0.0716 -0.1014
10185TIP3   OH254749   2.382   1.714  11.296  0.4878 -0.2119  0.1679
10185TIP3    H154750   2.336   1.792  11.328 -1.7222 -2.0780  1.8661
10185TIP3    H254751   2.352   1.704  11.206  1.9573  1.6493 -0.6008
10186TIP3   OH254752   0.577   0.132  11.783  0.6406 -0.4496  0.5954
10186TIP3    H154753   0.499   0.174  11.819  0.6780  0.8964 -0.8194
10186TIP3    H254754   0.649   0.167  11.836  0.4076 -0.9974  1.3027
10187TIP3   OH254755   6.862   1.038  13.218 -0.1527 -0.2262 -0.2157
10187TIP3    H154756   6.948   1.078  13.227 -0.0371 -0.3363 -0.7918
10187TIP3    H254757   6.861   0.967  13.282  0.2235 -0.2877 -0.2783
10188TIP3   OH254758   1.418   2.370  12.115 -0.0208  0.3313  0.3375
10188TIP3    H154759   1.357   2.402  12.182  1.3921  0.7147  1.4927
10188TIP3    H254760   1.363   2.320  12.055 -1.4396  0.5029  1.4350
10189TIP3   OH254761   1.285   4.413  10.591  0.2043  0.4585  0.1898
10189TIP3    H154762   1.329   4.486  10.547 -2.4869  2.0553 -0.0599
10189TIP3    H254763   1.285   4.437  10.683 -0.6842  0.8116  0.1066
10190TIP3   OH254764   5.994   5.609  11.201  0.2747  0.5855 -0.4564
10190TIP3    H154765   5.933   5.649  11.139  0.0037  0.1910 -0.4433
10190TIP3    H254766   5.941   5.587  11.277  0.6774  1.4513  0.1014
10191TIP3   OH254767   7.467   4.516  11.316  0.3943  0.0538 -0.1822
10191TIP3    H154768   7.443   4.423  11.319 -0.5147  0.0768 -3.3823
10191TIP3    H254769   7.563   4.516  11.318  0.3901 -0.8850  0.5712
10192TIP3   OH254770   4.891   4.372  12.871 -0.0058 -0.0031  0.2031
10192TIP3    H154771   4.824   4.305  12.855 -0.9593  1.0674 -0.4698
10192TIP3    H254772   4.885   4.390  12.965  0.1936 -0.7819  0.3709
10193TIP3   OH254773   5.588   5.743  10.983 -0.0722 -0.7115  0.4192
10193TIP3    H154774   5.566   5.792  10.904  2.0577  0.6937  0.6229
10193TIP3    H254775   5.503   5.724  11.024 -1.1727 -0.7027 -1.7079
10194TIP3   OH254776   2.560   1.354  12.235  0.1444 -0.9743  0.0868
10194TIP3    H154777   2.506   1.426  12.266  0.1486 -0.9408  0.0165
10194TIP3    H254778   2.567   1.295  12.310  0.4189 -0.7398  0.2445
10195TIP3   OH254779   7.406   0.150  11.172  0.2026 -0.2104 -0.2011
10195TIP3    H154780   7.434   0.120  11.086  0.5698 -1.0540  0.2008
10195TIP3    H254781   7.367   0.236  11.156  4.0883  1.6533 -0.6676
10196TIP3   OH254782   1.157   5.535  12.694 -0.8975  0.1397  0.4836
10196TIP3    H154783   1.253   5.533  12.696 -0.8748  0.5563  0.0307
10196TIP3    H254784   1.132   5.443  12.703 -0.4858  0.1136  1.4935
10197TIP3   OH254785   6.007   6.373  10.731 -0.2961  0.0192 -0.0836
10197TIP3    H154786   5.971   6.416  10.809 -1.4531  0.8202 -1.0149
10197TIP3    H254787   5.941   6.307  10.709 -1.1884  1.3587 -1.6925
10198TIP3   OH254788   5.068   0.137  12.696  0.5490 -0.0362  0.1967
10198TIP3    H154789   5.020   0.199  12.752 -0.8485 -0.7297 -0.1982
10198TIP3    H254790   5.158   0.142  12.728 -0.1243 -0.1305  2.2861
10199TIP3   OH254791   1.319   1.606  11.295 -0.3190  0.0717 -0.2439
10199TIP3    H154792   1.282   1.674  11.238 -0.6946 -0.4437 -0.6214
10199TIP3    H254793   1.246   1.579  11.351 -0.2623 -0.2729 -0.3362
10200TIP3   OH254794   2.418   0.864  10.552 -0.3557  0.2866  0.1096
10200TIP3    H154795   2.398   0.904  10.467  2.7889  1.5597 -0.1810
10200TIP3    H254796   2.511   0.883  10.565  0.5657 -4.1557  1.5416
10201TIP3   OH254797   0.399   6.189  10.933 -0.2583 -1.1296 -0.0672
10201TIP3    H154798   0.398   6.224  11.022 -0.4918  1.6270 -1.0550
10201TIP3    H254799   0.333   6.120  10.933 -1.2059 -0.2843  1.5967
10202TIP3   OH254800   7.206   4.977  11.908  0.2344  0.3027 -0.1525
10202TIP3    H154801   7.261   4.992  11.986  0.6796 -2.0993  0.0723
10202TIP3    H254802   7.173   5.063  11.886  0.8271  1.2119  2.1673
10203TIP3   OH254803   2.122   3.953  12.008 -0.2387 -0.4963 -0.3768
10203TIP3    H154804   2.167   3.946  12.092  0.1400 -0.1695 -0.5513
10203TIP3    H254805   2.192   3.953  11.943 -0.4077  1.0934 -0.5973
10204TIP3   OH254806   6.969   6.762  11.838  0.1667 -0.1698 -0.3064
10204TIP3    H154807   7.018   6.819  11.779 -0.3786  0.3695 -0.2402
10204TIP3    H254808   6.886   6.746  11.793 -0.0481 -0.1699  0.0840
10205TIP3   OH254809   2.276   0.226  11.535  0.0801  0.6158 -0.8661
10205TIP3    H154810   2.359   0.178  11.541 -0.3334 -0.1516 -1.1745
10205TIP3    H254811   2.259   0.232  11.441 -0.8331 -0.3154 -0.7667
10206TIP3   OH254812   1.535   0.474  12.403  0.6026 -0.1043  0.2250
10206TIP3    H154813   1.480   0.473  12.324  0.9599  0.9244 -0.0476
10206TIP3    H254814   1.613   0.423  12.378  0.9890  0.7206 -0.3082
10207TIP3   OH254815   6.741   2.939  11.575 -0.5705 -0.4305 -0.4561
10207TIP3    H154816   6.758   2.913  11.485  0.4122 -0.1824 -0.3547
10207TIP3    H254817   6.648   2.959  11.577 -0.3226  1.0340 -1.7945
10208TIP3   OH254818   0.932   4.360  11.804 -0.1640 -0.5051 -0.1102
10208TIP3    H154819   0.930   4.411  11.885  0.2598 -0.3529 -0.1943
10208TIP3    H254820   1.024   4.336  11.792  0.0406  0.7632 -1.3516
10209TIP3   OH254821   4.890   4.908  12.053  0.2006 -0.4087 -0.3109
10209TIP3    H154822   4.848   4.841  11.999 -0.3161 -1.1573  0.9696
10209TIP3    H254823   4.832   4.918  12.128  1.1083  0.2789  0.3206
10210TIP3   OH254824   0.725   7.329  12.677  0.0289 -0.0210  0.1630
10210TIP3    H154825   0.790   7.352  12.610  0.5571  1.6643  1.1796
10210TIP3    H254826   0.750   7.381  12.753 -1.0963 -1.1924  1.3933
10211TIP3   OH254827   4.922   3.343  12.000  0.0345 -0.5199 -0.2814
10211TIP3    H154828   4.881   3.257  12.005  0.7564 -0.7970  1.6368
10211TIP3    H254829   4.852   3.401  11.971 -1.3316 -1.2185  1.4583
10212TIP3   OH254830   5.686   6.173  11.217 -0.8189 -0.2466 -0.3225
10212TIP3    H154831   5.749   6.207  11.154 -3.6775  1.4177 -2.5108
10212TIP3    H254832   5.643   6.101  11.171 -0.8024 -1.1459  1.0038
10213TIP3   OH254833   5.988   7.007  12.936 -0.0962 -0.3016 -0.0152
10213TIP3    H154834   6.048   7.082  12.927  1.0077 -1.1218  0.2698
10213TIP3    H254835   5.940   7.025  13.017 -0.8427  0.7585 -0.6630
10214TIP3   OH254836   6.641   6.446  11.309  0.4160 -0.2310  0.0705
10214TIP3    H154837   6.626   6.502  11.233 -0.8054  0.7591  0.9957
10214TIP3    H254838   6.686   6.502  11.372  2.8221 -1.4806 -0.4226
10215TIP3   OH254839   1.012   3.789  11.621  0.3620  0.4480 -1.0460
10215TIP3    H154840   0.945   3.829  11.566  0.9111  0.9701 -1.3540
10215TIP3    H254841   0.976   3.704  11.644 -1.4496  1.6248  0.7959
10216TIP3   OH254842   7.654   2.675  13.187  0.8969 -0.4788 -0.2354
10216TIP3    H154843   7.723   2.726  13.144  1.3884 -1.9834 -1.2992
10216TIP3    H254844   7.653   2.708  13.277 -0.2960  2.8952 -1.3385
10217TIP3   OH254845   6.393   3.919  13.158 -0.0034 -0.0243  0.0266
10217TIP3    H154846   6.373   3.825  13.164 -0.9360  0.2393  1.6472
10217TIP3    H254847   6.425   3.931  13.069 -0.2603 -1.8132 -0.3459
10218TIP3   OH254848   1.268   5.955  11.664  0.4405  0.4347 -0.6390
10218TIP3    H154849   1.339   5.893  11.683  0.8532  1.0079 -0.2939
10218TIP3    H254850   1.271   5.966  11.569  1.4414  1.1828 -0.5371
10219TIP3   OH254851   6.425   4.080  12.533 -0.2541  0.2931  0.2705
10219TIP3    H154852   6.416   3.990  12.567  1.1706 -0.1468 -0.4577
10219TIP3    H254853   6.451   4.068  12.442  0.8357  1.4349  0.4106
10220TIP3   OH254854   4.934   2.811  10.598  0.0569 -0.6879  0.3099
10220TIP3    H154855   5.013   2.864  10.584 -0.7681  0.3867 -0.4706
10220TIP3    H254856   4.954   2.758  10.675  1.3649 -0.0930  0.4046
10221TIP3   OH254857   5.456   2.836  12.567 -0.7844  0.3218  0.1186
10221TIP3    H154858   5.493   2.797  12.647 -0.9789 -0.7502 -0.3049
10221TIP3    H254859   5.532   2.871  12.520 -0.1417 -2.4615 -1.0713
10222TIP3   OH254860   6.456   2.810  12.654  0.6333  0.3429 -0.6184
10222TIP3    H154861   6.489   2.899  12.663 -0.7358  0.7777  0.6625
10222TIP3    H254862   6.411   2.793  12.737  0.7078 -1.4803 -0.9090
10223TIP3   OH254863   7.647   5.831  12.391  0.2485 -0.4253 -0.3425
10223TIP3    H154864   7.717   5.883  12.429 -0.8855  0.4791  0.5827
10223TIP3    H254865   7.567   5.866  12.430 -0.9196 -0.0637 -2.8499
10224TIP3   OH254866   5.104   6.815  11.522 -0.6503 -0.4398  0.1453
10224TIP3    H154867   5.142   6.856  11.600 -2.1226  1.9351 -0.2819
10224TIP3    H254868   5.089   6.888  11.462  1.2578 -2.2659 -2.8264
10225TIP3   OH254869   6.910   1.149  12.486  0.2655  0.0972  0.3891
10225TIP3    H154870   6.968   1.074  12.481 -1.2257 -1.1975  1.5221
10225TIP3    H254871   6.875   1.147  12.575 -0.4127  1.6848  0.1983
10226TIP3   OH254872   1.009   7.620  12.326  0.1047  0.3981  0.0867
10226TIP3    H154873   1.077   7.570  12.281 -2.7259 -2.2485 -1.6673
10226TIP3    H254874   0.988   7.691  12.265  0.4385  0.4709  0.0549
10227TIP3   OH254875   3.617   4.562  11.988  0.0246 -0.4153 -0.5883
10227TIP3    H154876   3.605   4.507  12.066  1.1960 -1.2715 -0.9792
10227TIP3    H254877   3.546   4.537  11.929  0.0958 -0.9493 -0.4471
10228TIP3   OH254878   1.604   0.463  10.313 -0.1787 -0.2338  0.3105
10228TIP3    H154879   1.553   0.397  10.267 -0.2845 -1.4426  2.0522
10228TIP3    H254880   1.574   0.457  10.404 -1.7899  3.7271  0.2742
10229TIP3   OH254881   5.652   2.139  13.178 -0.1477 -0.2108 -0.2162
10229TIP3    H154882   5.703   2.067  13.140  0.9865 -0.1374  1.1242
10229TIP3    H254883   5.694   2.218  13.145  1.5742 -0.1204  1.9862
10230TIP3   OH254884   1.864   1.143  11.559  0.3099  0.0559 -0.6064
10230TIP3    H154885   1.915   1.162  11.637 -0.2352 -0.1384 -0.1970
10230TIP3    H254886   1.809   1.220  11.546 -0.3524 -0.3346 -0.1864
10231TIP3   OH254887   0.583   6.595  12.274  0.1882  0.1735  0.0586
10231TIP3    H154888   0.647   6.605  12.204  0.6444 -0.5913  0.3615
10231TIP3    H254889   0.501   6.574  12.229  0.8456 -2.0726 -0.1806
10232TIP3   OH254890   0.304   1.339  10.371  0.1230 -0.2438 -0.4140
10232TIP3    H154891   0.229   1.370  10.421 -0.5714 -1.4095 -0.6863
10232TIP3    H254892   0.292   1.377  10.284  0.8744  1.0898  0.0377
10233TIP3   OH254893   2.007   0.737  12.446 -0.4798 -0.1858  0.2370
10233TIP3    H154894   2.018   0.707  12.536 -1.5804 -0.8828  0.1552
10233TIP3    H254895   1.921   0.704  12.419  0.4341 -1.2381 -1.5655
10234TIP3   OH254896   6.365   0.297  12.945  0.2861  0.4392 -0.0494
10234TIP3    H154897   6.424   0.366  12.914  1.0010  0.3312  1.0233
10234TIP3    H254898   6.286   0.344  12.971  0.2613  0.6980 -0.5752
10235TIP3   OH254899   1.303   1.339  12.311 -0.1644  0.5068  0.2179
10235TIP3    H154900   1.280   1.248  12.329 -0.8708  0.4960 -0.6692
10235TIP3    H254901   1.238   1.390  12.358  0.7735  0.5945  1.4673
10236TIP3   OH254902   2.593   4.466  11.888 -0.6650 -0.1157 -0.3230
10236TIP3    H154903   2.655   4.463  11.961 -1.1487  1.3340  0.1880
10236TIP3    H254904   2.517   4.416  11.918 -1.2113  1.1794  0.5496
10237TIP3   OH254905   3.648   6.543  12.288  0.2801  0.4267 -0.0996
10237TIP3    H154906   3.626   6.469  12.344 -0.1413  1.3276  0.9664
10237TIP3    H254907   3.744   6.545  12.288  0.3351 -0.9464 -1.2886
10238TIP3   OH254908   6.222   0.261  11.795  0.2383 -0.1558  0.8291
10238TIP3    H154909   6.188   0.203  11.863  0.8005 -0.8364  0.5336
10238TIP3    H254910   6.237   0.204  11.720  0.6740  0.3948  0.4919
10239TIP3   OH254911   1.913   1.610  12.307 -0.5303  0.0756 -0.4335
10239TIP3    H154912   1.822   1.617  12.335 -0.0055  1.4515  1.0771
10239TIP3    H254913   1.957   1.565  12.380 -0.0376 -0.8573 -1.2821
10240TIP3   OH254914   2.464   2.603  10.518 -0.2841 -0.3914  0.4129
10240TIP3    H154915   2.436   2.624  10.429  1.2654  0.2081  0.0373
10240TIP3    H254916   2.509   2.519  10.510 -0.6923 -0.6444  0.7462
10241TIP3   OH254917   5.974   2.049  12.514  0.2225  0.0092 -0.5498
10241TIP3    H154918   6.012   2.112  12.576 -1.3918  0.7930 -0.2841
10241TIP3    H254919   6.036   1.977  12.512  2.3185  1.7146 -1.0880
10242TIP3   OH254920   7.094   1.291  10.787 -0.3990  0.1225  0.3981
10242TIP3    H154921   7.140   1.297  10.871 -0.8729  0.4272  0.6402
10242TIP3    H254922   7.020   1.233  10.805 -0.4599  0.1306  0.1704
10243TIP3   OH254923   1.640   0.731  10.727  0.2138  0.0654  0.1873
10243TIP3    H154924   1.699   0.667  10.686 -0.4426 -0.8805  0.6739
10243TIP3    H254925   1.568   0.741  10.665  0.5542  0.7205 -0.1109
10244TIP3   OH254926   0.652   1.296  11.940 -0.0616 -0.1018  0.0399
10244TIP3    H154927   0.735   1.342  11.926  0.9971 -2.0388 -0.4733
10244TIP3    H254928   0.600   1.315  11.861  1.0483 -1.1060 -0.9842
10245TIP3   OH254929   5.175   7.382  11.704 -0.1282 -0.3347 -0.2316
10245TIP3    H154930   5.191   7.455  11.644  1.4029 -0.6040 -0.1772
10245TIP3    H254931   5.146   7.311  11.647 -1.2930  0.1819 -0.3236
10246TIP3   OH254932   5.804   4.707  12.773  0.9195 -0.2235 -0.3940
10246TIP3    H154933   5.808   4.667  12.860  0.0296 -0.2437 -0.3552
10246TIP3    H254934   5.773   4.796  12.789  0.9225 -0.1711 -0.6728
10247TIP3   OH254935   2.120   2.067  12.177 -0.2600  0.5799  0.2813
10247TIP3    H154936   2.188   2.013  12.137 -0.2723  0.0872  0.9123
10247TIP3    H254937   2.048   2.005  12.194 -0.4653  0.8955  0.5660
10248TIP3   OH254938   3.666   1.415  12.517  0.1762  0.0871 -0.6841
10248TIP3    H154939   3.664   1.500  12.473  1.9766  0.4086 -0.2182
10248TIP3    H254940   3.706   1.356  12.452 -1.4206 -0.5475 -1.1565
10249TIP3   OH254941   7.118   6.189  11.521 -0.1215 -0.1483 -0.3003
10249TIP3    H154942   7.093   6.203  11.430 -0.5850  0.7033 -0.0555
10249TIP3    H254943   7.147   6.098  11.525  1.5782  0.2750 -1.6823
10250TIP3   OH254944   1.277   1.063  12.365  0.3356  0.0554  0.0004
10250TIP3    H154945   1.235   0.994  12.315 -1.0344  0.5530  0.4253
10250TIP3    H254946   1.307   1.020  12.445 -0.1420 -0.1238  0.0811
10251TIP3   OH254947   6.065   6.353  11.930 -0.1178  0.6932 -0.4420
10251TIP3    H154948   6.077   6.384  12.020  0.2498 -2.6598  0.7807
10251TIP3    H254949   6.148   6.371  11.887  0.3740  0.5952  0.4575
10252TIP3   OH254950   0.246   7.353  11.251  0.0680  0.4480 -0.4592
10252TIP3    H154951   0.160   7.358  11.209 -0.1764 -2.2985 -0.4805
10252TIP3    H254952   0.308   7.347  11.177 -0.1406 -1.7640 -0.5146
10253TIP3   OH254953   1.979   3.513  12.253  0.1240  0.3262  0.6545
10253TIP3    H154954   1.970   3.564  12.173 -0.6785  2.3372  1.9318
10253TIP3    H254955   1.896   3.467  12.262 -0.4210  1.3413  1.0769
10254TIP3   OH254956   7.399   4.895  13.241  0.6013 -0.2448 -0.1869
10254TIP3    H154957   7.455   4.825  13.276 -0.7725 -1.3794 -0.1701
10254TIP3    H254958   7.311   4.873  13.273  0.2584  1.9977  0.5489
10255TIP3   OH254959   7.373   0.685  12.399  0.0411 -0.2465 -0.5093
10255TIP3    H154960   7.383   0.633  12.479 -0.6152 -0.1777 -0.3802
10255TIP3    H254961   7.411   0.631  12.330  2.1283  0.3607  0.0811
10256TIP3   OH254962   5.385   7.546  10.590  0.0795 -0.0207 -0.2061
10256TIP3    H154963   5.417   7.605  10.522  0.4649  0.0497  0.0311
10256TIP3    H254964   5.463   7.525  10.642 -0.3698  0.6532  0.7619
10257TIP3   OH254965   6.525   6.037  12.427  0.1349 -0.1082 -0.1471
10257TIP3    H154966   6.601   6.040  12.484 -0.7098  1.1697  0.9955
10257TIP3    H254967   6.548   6.094  12.353  0.3668  0.1061  0.0879
10258TIP3   OH254968   3.270   7.488  11.443 -0.4486  0.3882  0.0661
10258TIP3    H154969   3.189   7.529  11.412 -1.4554 -1.7197 -0.2428
10258TIP3    H254970   3.262   7.490  11.539 -0.6259  0.6250  0.0475
10259TIP3   OH254971   6.560   0.379  12.135  0.0230 -0.4829  0.2009
10259TIP3    H154972   6.541   0.313  12.202 -0.5384  0.5018  1.0406
10259TIP3    H254973   6.478   0.388  12.086 -0.7604  1.3915  1.7268
10260TIP3   OH254974   5.711   7.285  12.255 -0.2363 -0.1161 -0.9194
10260TIP3    H154975   5.643   7.228  12.290  0.4438  0.0852  0.8464
10260TIP3    H254976   5.702   7.367  12.304  1.6319 -0.2931 -0.1778
10261TIP3   OH254977   6.179   6.135  12.595 -0.0197 -0.4908  0.4706
10261TIP3    H154978   6.112   6.069  12.576  0.8488 -0.6838 -2.4636
10261TIP3    H254979   6.262   6.087  12.590  0.6809  0.7717 -2.3749
10262TIP3   OH254980   1.561   4.384  10.728 -0.1483  0.0500  0.1471
10262TIP3    H154981   1.535   4.462  10.679 -0.7735 -0.1104  0.2153
10262TIP3    H254982   1.479   4.335  10.742  0.1756 -0.4255  0.4399
10263TIP3   OH254983   3.813   6.400  10.970  0.1016 -0.1744  0.0971
10263TIP3    H154984   3.797   6.306  10.959  1.7113 -0.2456 -2.3645
10263TIP3    H254985   3.726   6.439  10.977 -0.6565 -1.7007 -0.4150
10264TIP3   OH254986   1.229   2.689  12.057 -0.2580 -0.7424  0.3621
10264TIP3    H154987   1.200   2.778  12.078 -1.6804 -0.8432 -0.9812
10264TIP3    H254988   1.159   2.633  12.090  0.2719 -1.3183  0.5210
10265TIP3   OH254989   4.085   4.999  10.195 -0.7437  0.2159 -0.4491
10265TIP3    H154990   3.993   4.992  10.172 -1.2805 -0.1631  1.6266
10265TIP3    H254991   4.099   4.932  10.262  1.7073 -1.5547 -2.5231
10266TIP3   OH254992   5.904   7.457  11.781 -0.9992  0.2432  0.4727
10266TIP3    H154993   5.956   7.519  11.730 -0.7340  0.4244  0.9617
10266TIP3    H254994   5.926   7.371  11.744 -1.3979  0.4357 -0.2293
10267TIP3   OH254995   6.763   6.579  11.525 -0.2627 -0.0045 -0.5644
10267TIP3    H154996   6.838   6.639  11.517 -0.2002 -0.0569 -0.3836
10267TIP3    H254997   6.802   6.498  11.557 -0.5262  0.2567  0.4608
10268TIP3   OH254998   1.089   2.243  13.147  0.5086 -0.2781 -0.0531
10268TIP3    H154999   1.020   2.308  13.160  0.7172  0.2004 -1.2203
10268TIP3    H255000   1.148   2.283  13.084  2.2836 -0.3673  1.4751
10269TIP3   OH255001   4.463   3.188  10.686 -0.4561 -0.2316  0.3660
10269TIP3    H155002   4.413   3.113  10.720 -0.8826 -0.6634 -1.1424
10269TIP3    H255003   4.511   3.221  10.762 -1.7923 -0.8075  1.5029
10270TIP3   OH255004   6.917   5.679  10.610 -0.3297  0.1420  0.4496
10270TIP3    H155005   6.855   5.641  10.671 -2.8761  1.9686 -0.7825
10270TIP3    H255006   6.937   5.609  10.548 -1.5391 -0.3674  0.6222
10271TIP3   OH255007   1.758   5.906  11.156 -0.3770 -0.0356 -0.4093
10271TIP3    H155008   1.796   5.986  11.118  0.3754  0.1790  0.7215
10271TIP3    H255009   1.822   5.838  11.137 -1.2038 -0.4748 -1.7152
10272TIP3   OH255010   6.804   5.649  11.610  0.2122  0.3416  0.8238
10272TIP3    H155011   6.775   5.727  11.657  1.0081  1.3426 -0.2934
10272TIP3    H255012   6.784   5.667  11.518  0.3589 -0.8090  0.5470
10273TIP3   OH255013   1.549   3.286  11.892 -0.1420 -0.0876  0.4737
10273TIP3    H155014   1.636   3.251  11.908 -0.1309  0.8275  2.7426
10273TIP3    H255015   1.530   3.262  11.801  1.1704 -3.0234  0.8529
10274TIP3   OH255016   1.575   3.969  12.991  0.5418 -0.2134  0.4798
10274TIP3    H155017   1.656   3.939  12.950  0.3519  1.4692 -1.2864
10274TIP3    H255018   1.543   4.038  12.932 -0.0833  1.9456  3.1459
10275TIP3   OH255019   6.727   2.778  11.039 -0.0345 -0.1890 -0.2580
10275TIP3    H155020   6.800   2.776  10.977  0.0867 -2.3056 -0.1018
10275TIP3    H255021   6.661   2.833  10.997  1.7368  2.0747 -0.2534
10276TIP3   OH255022   3.268   1.528  10.474  0.0534  0.1504 -0.2272
10276TIP3    H155023   3.222   1.612  10.476 -1.4688 -0.6516  0.4709
10276TIP3    H255024   3.203   1.466  10.441 -0.0598 -1.3924  2.5887
10277TIP3   OH255025   7.103   2.145  11.613 -0.2876  0.1700  0.1774
10277TIP3    H155026   7.028   2.182  11.568  0.1142  0.1754 -0.4965
10277TIP3    H255027   7.171   2.212  11.606 -0.0519 -0.0499  0.3201
10278TIP3   OH255028   7.133   3.111  12.428  0.1575 -0.6305 -0.5692
10278TIP3    H155029   7.070   3.173  12.391 -1.1230 -2.2897 -1.3018
10278TIP3    H255030   7.079   3.045  12.471  1.4565 -1.5791 -0.3341
10279TIP3   OH255031   7.519   4.784  11.915 -0.0328 -0.5553 -0.2732
10279TIP3    H155032   7.537   4.829  11.833  0.2678  1.1922  0.6994
10279TIP3    H255033   7.572   4.831  11.980 -4.1096  1.6619  1.8789
10280TIP3   OH255034   5.882   4.672  10.510 -0.2135 -0.2636  0.2533
10280TIP3    H155035   5.804   4.671  10.567  0.5629  0.4702  1.3858
10280TIP3    H255036   5.915   4.583  10.513 -0.4383 -0.3393  0.5884
10281TIP3   OH255037   5.465   4.915  10.332 -0.8371 -0.0753  0.3811
10281TIP3    H155038   5.471   4.871  10.416 -2.5022  1.4335  1.3573
10281TIP3    H255039   5.456   4.845  10.268 -3.4089 -1.2016  1.8671
10282TIP3   OH255040   6.276   2.911  11.868 -0.2284 -0.1600 -0.3214
10282TIP3    H155041   6.286   3.006  11.873  0.1101 -0.1357 -1.1706
10282TIP3    H255042   6.231   2.887  11.948  0.4933  0.6069  0.3326
10283TIP3   OH255043   6.000   6.748  12.865  0.5095  0.2546  0.1746
10283TIP3    H155044   6.072   6.754  12.803 -0.4353  1.6918 -0.8523
10283TIP3    H255045   5.996   6.835  12.906 -1.6395  0.7822 -0.9989
10284TIP3   OH255046   1.429   5.124  11.195 -0.1810  0.1704 -0.3876
10284TIP3    H155047   1.425   5.209  11.239 -0.0618  0.4057 -0.8351
10284TIP3    H255048   1.355   5.075  11.231 -1.6822  1.2656 -1.8411
10285TIP3   OH255049   5.329   2.884  10.437  0.3231 -0.2696  0.4546
10285TIP3    H155050   5.303   2.929  10.517 -0.9655 -0.8673  0.3916
10285TIP3    H255051   5.276   2.805  10.435  0.4368 -0.3407 -0.9112
10286TIP3   OH255052   1.591   3.985  12.279 -0.7412 -0.0424  0.1143
10286TIP3    H155053   1.576   4.077  12.299  0.6737 -0.4243  3.5172
10286TIP3    H255054   1.515   3.960  12.226 -0.4193  3.3415 -2.2991
10287TIP3   OH255055   2.852   5.346  13.373 -0.2683  0.0833 -0.5244
10287TIP3    H155056   2.764   5.327  13.339 -0.3331  0.5286 -0.6113
10287TIP3    H255057   2.837   5.373  13.464 -0.0393 -1.7112  0.0800
10288TIP3   OH255058   4.043   5.857  12.102  0.1899  0.3590  0.5382
10288TIP3    H155059   4.022   5.924  12.167 -0.3413  1.0110 -0.2841
10288TIP3    H255060   4.015   5.775  12.142 -1.0808  0.8630  0.7376
10289TIP3   OH255061   5.367   2.099  11.676 -0.5138 -0.0329  0.7870
10289TIP3    H155062   5.370   2.026  11.615  1.9212 -0.0468  0.8216
10289TIP3    H255063   5.384   2.176  11.622  1.4581 -0.0244  1.3397
10290TIP3   OH255064   1.322   5.252  11.817 -0.1931  0.5778  0.7064
10290TIP3    H155065   1.299   5.264  11.909 -2.2268 -1.0920  0.4994
10290TIP3    H255066   1.254   5.300  11.769  0.8375  1.4239  0.0338
10291TIP3   OH255067   1.119   5.093  12.230 -0.4593 -0.6231  0.1419
10291TIP3    H155068   1.076   5.157  12.287 -2.6440 -1.0466 -0.9431
10291TIP3    H255069   1.111   5.010  12.276 -1.2873 -0.7868 -0.2832
10292TIP3   OH255070   1.336   4.665  12.111  0.4458  0.0891  0.1150
10292TIP3    H155071   1.361   4.754  12.135  1.1448  0.1798 -0.8933
10292TIP3    H255072   1.241   4.668  12.103  0.5129  0.9040 -0.5057
10293TIP3   OH255073   2.843   6.104  11.815  0.0868 -0.0394 -0.1153
10293TIP3    H155074   2.777   6.167  11.844 -0.9791 -0.8618 -0.6679
10293TIP3    H255075   2.817   6.082  11.725  1.7584  0.4334 -0.7428
10294TIP3   OH255076   3.113   1.300  12.150 -1.0933 -0.0261 -0.1116
10294TIP3    H155077   3.057   1.260  12.083 -1.0424 -0.5812  0.1683
10294TIP3    H255078   3.075   1.386  12.166 -1.7558 -0.3269 -0.0602
10295TIP3   OH255079   5.948   3.580  10.503  0.3903 -0.3205 -0.3475
10295TIP3    H155080   5.864   3.574  10.458  0.7105  0.6896 -1.1181
10295TIP3    H255081   5.989   3.495  10.488 -0.6688 -1.0086  0.4487
10296TIP3   OH255082   6.683   5.548  12.786 -0.1791  0.2234 -0.0073
10296TIP3    H155083   6.636   5.465  12.786  0.7077 -0.3172 -2.1500
10296TIP3    H255084   6.772   5.526  12.814  0.0005  0.4960 -0.3642
10297TIP3   OH255085   6.541   4.259  11.598 -0.3597 -0.0851 -0.5355
10297TIP3    H155086   6.522   4.171  11.565 -0.5883  0.0519 -0.7730
10297TIP3    H255087   6.585   4.303  11.526  1.6993 -0.6776  0.3002
10298TIP3   OH255088   3.855   2.671  11.122  0.7737  0.4567  0.3603
10298TIP3    H155089   3.836   2.598  11.064  0.0639  1.3229 -0.5228
10298TIP3    H255090   3.856   2.632  11.210  1.8210 -0.8588 -0.2001
10299TIP3   OH255091   2.559   0.370  13.330 -0.4431 -0.4248  0.3465
10299TIP3    H155092   2.644   0.359  13.288 -0.0699 -0.2886  1.0622
10299TIP3    H255093   2.496   0.345  13.262  0.1543 -0.3235 -0.2560
10300TIP3   OH255094   5.106   1.229  10.626  0.2812 -0.1492  0.0401
10300TIP3    H155095   5.070   1.315  10.645  1.9170  0.5197  0.3305
10300TIP3    H255096   5.149   1.240  10.540 -0.4562 -0.9996 -0.4532
10301TIP3   OH255097   6.878   5.831  11.139  0.1692  0.4986 -0.0755
10301TIP3    H155098   6.919   5.889  11.074 -1.4700  2.6004  0.6420
10301TIP3    H255099   6.952   5.789  11.184  1.4913  2.4719 -0.2767
10302TIP3   OH255100   6.494   0.917  10.722 -0.0122  0.4243 -0.0558
10302TIP3    H155101   6.529   0.956  10.803 -0.3195  0.1463  0.2147
10302TIP3    H255102   6.570   0.881  10.678 -0.0014 -0.5664  0.7393
10303TIP3   OH255103   0.385   6.325  11.397 -0.1004  0.2844  0.6121
10303TIP3    H155104   0.475   6.295  11.384 -0.2136  0.3603 -0.4345
10303TIP3    H255105   0.337   6.247  11.425 -0.2293 -0.3813 -1.3194
10304TIP3   OH255106   0.106   6.671  10.634  0.5169  0.1253  0.1595
10304TIP3    H155107   0.170   6.635  10.695 -0.3952 -0.1449  0.9728
10304TIP3    H255108   0.097   6.762  10.659 -0.5996 -0.2174  1.1232
10305TIP3   OH255109   3.093   3.533  11.045 -0.4862 -0.3747 -0.0777
10305TIP3    H155110   3.019   3.590  11.024 -0.4981 -0.6544 -0.8233
10305TIP3    H255111   3.100   3.473  10.970  0.0624 -0.7977  0.2976
10306TIP3   OH255112   0.668   1.272  11.300  0.3483  0.4037  0.6316
10306TIP3    H155113   0.615   1.234  11.229 -2.2897 -0.1207  2.7297
10306TIP3    H255114   0.752   1.226  11.293 -0.7315 -1.5697 -0.5496
10307TIP3   OH255115   0.497   4.441  10.529  0.0257  0.6138  0.2560
10307TIP3    H155116   0.414   4.427  10.574 -1.3848 -0.1782 -2.3789
10307TIP3    H255117   0.551   4.366  10.556 -1.2590 -0.5684 -0.3128
10308TIP3   OH255118   2.214   4.059  11.733 -0.2627 -0.0747 -0.3696
10308TIP3    H155119   2.214   4.059  11.637 -1.5535 -0.9131 -0.4020
10308TIP3    H255120   2.301   4.027  11.757  0.2088  0.5207 -1.2546
10309TIP3   OH255121   0.684   1.856  10.576  0.3872 -0.6104  0.7494
10309TIP3    H155122   0.662   1.772  10.617 -2.0611 -0.0324  0.7523
10309TIP3    H255123   0.604   1.908  10.583  1.0137  0.7951 -1.5980
10310TIP3   OH255124   0.354   3.924  11.157 -0.7352 -0.5357 -0.0438
10310TIP3    H155125   0.320   3.870  11.086 -1.0132 -1.7697  0.9884
10310TIP3    H255126   0.432   3.877  11.188  0.2296  0.7392 -0.4545
10311TIP3   OH255127   6.479   2.911  11.623  0.3152  0.1148  0.1280
10311TIP3    H155128   6.431   2.980  11.576  0.4467  0.6680  0.7849
10311TIP3    H255129   6.435   2.905  11.708 -0.1358 -1.1116 -0.1689
10312TIP3   OH255130   5.987   5.972  12.502 -0.4198  0.2839 -0.3531
10312TIP3    H155131   5.905   5.999  12.461 -0.5564  0.1311 -0.1816
10312TIP3    H255132   5.976   5.878  12.518 -0.6035  0.4590  0.5753
10313TIP3   OH255133   5.604   5.129  11.250  0.0905  0.5065  0.7703
10313TIP3    H155134   5.637   5.043  11.223  2.6579  1.0656  1.8360
10313TIP3    H255135   5.648   5.191  11.191 -1.4174  1.1477  0.2729
10314TIP3   OH255136   0.464   7.313  11.057 -0.4299  0.0948  0.1899
10314TIP3    H155137   0.453   7.406  11.035  0.2769  0.0511 -0.4103
10314TIP3    H255138   0.559   7.300  11.057 -0.3529  0.0626  3.3488
10315TIP3   OH255139   4.248   6.527  10.348  0.0391 -0.0241  0.7099
10315TIP3    H155140   4.263   6.548  10.256  0.4411 -1.7386  0.3614
10315TIP3    H255141   4.174   6.466  10.347  0.6014 -0.7325  1.4420
10316TIP3   OH255142   6.100   2.848  12.578  0.0030 -0.4366  0.4037
10316TIP3    H155143   6.096   2.758  12.610  1.3241  0.3203  2.9594
10316TIP3    H255144   6.139   2.841  12.491 -2.8427 -2.5362 -0.8757
10317TIP3   OH255145   1.639   0.199  12.410 -0.2372 -0.2636  0.2767
10317TIP3    H155146   1.718   0.166  12.366  0.9678  2.5588  0.0869
10317TIP3    H255147   1.567   0.155  12.366  1.1583 -3.1387  0.6009
10318TIP3   OH255148   7.028   4.792  10.606  0.7213  0.2325 -0.3590
10318TIP3    H155149   6.983   4.861  10.654  1.6746  1.0195 -0.5794
10318TIP3    H255150   6.989   4.711  10.639  0.2301  0.8295  0.5608
10319TIP3   OH255151   4.962   3.175  12.428  0.0020  0.7856  0.1333
10319TIP3    H155152   5.043   3.127  12.411 -0.8435 -0.5374 -0.3333
10319TIP3    H255153   4.933   3.144  12.514  0.0013  1.2676  0.3076
10320TIP3   OH255154   7.582   6.892  10.813 -0.2953  0.3775 -0.1389
10320TIP3    H155155   7.503   6.873  10.863  1.2936  0.2559  2.5292
10320TIP3    H255156   7.566   6.978  10.773 -1.4197  0.7902  1.1399
10321TIP3   OH255157   7.394   7.375  12.602  0.0255  0.3292 -0.1949
10321TIP3    H155158   7.425   7.417  12.682 -0.8039  2.8264 -1.0772
10321TIP3    H255159   7.302   7.357  12.618 -0.2476  1.2109 -0.6789
10322TIP3   OH255160   4.354   1.364  12.292 -0.2583  0.0542  0.6415
10322TIP3    H155161   4.419   1.324  12.234  0.2504  0.0240  1.2282
10322TIP3    H255162   4.381   1.456  12.299  0.5699 -0.2722  2.0309
10323TIP3   OH255163   2.791   5.948  12.441 -0.5076 -0.0006  0.0787
10323TIP3    H155164   2.727   5.987  12.381 -1.0496 -0.9387  0.0280
10323TIP3    H255165   2.853   6.018  12.459 -2.5616  1.5354  1.6015
10324TIP3   OH255166   0.484   0.349  12.131 -0.1987  0.1916  0.1029
10324TIP3    H155167   0.416   0.310  12.076 -0.8416  1.3359  0.0501
10324TIP3    H255168   0.459   0.441  12.139  1.0873  0.5364  0.4859
10325TIP3   OH255169   6.246   5.489  11.991  0.1730  0.4577 -0.8871
10325TIP3    H155170   6.291   5.573  11.982  1.0562  0.2313  0.9353
10325TIP3    H255171   6.317   5.424  11.993 -0.4140 -0.1923 -0.8687
10326TIP3   OH255172   6.752   0.935  11.936  0.1615  0.0668 -0.0227
10326TIP3    H155173   6.747   0.852  11.982  0.5491 -0.7606 -1.3940
10326TIP3    H255174   6.670   0.941  11.888  0.3287  0.2465 -0.2924
10327TIP3   OH255175   5.086   5.462  11.975  0.0292 -0.2533 -0.2109
10327TIP3    H155176   5.028   5.426  11.907 -0.5255 -0.2894  0.2747
10327TIP3    H255177   5.106   5.388  12.032  0.2210 -0.1480 -0.1387
10328TIP3   OH255178   4.776   1.844  11.210  0.4204  0.0511  0.5293
10328TIP3    H155179   4.714   1.834  11.283  0.7073 -1.8775  0.5795
10328TIP3    H255180   4.789   1.938  11.202 -0.8424  0.3940  1.9313
10329TIP3   OH255181   6.877   7.339  12.321  0.6422  0.6257  0.0808
10329TIP3    H155182   6.799   7.285  12.305  0.3187  0.5710  1.6953
10329TIP3    H255183   6.919   7.299  12.397  1.1137  1.8961  0.5148
10330TIP3   OH255184   6.316   5.826  11.653  0.0447 -0.6627  0.3709
10330TIP3    H155185   6.289   5.767  11.582  0.2818 -1.5103  0.9725
10330TIP3    H255186   6.394   5.870  11.618 -0.1763 -0.6406 -0.1112
10331TIP3   OH255187   4.235   3.992  11.951  0.6626 -0.5561  0.3771
10331TIP3    H155188   4.191   4.076  11.935  1.2751 -0.3248 -0.1685
10331TIP3    H255189   4.226   3.944  11.869 -0.7588 -1.5447  1.0927
10332TIP3   OH255190   1.015   0.770  12.954 -0.0898  0.4087 -0.1725
10332TIP3    H155191   0.946   0.833  12.934  1.3281  2.0494 -0.1856
10332TIP3    H255192   1.001   0.747  13.046 -1.7727 -0.7940 -0.7018
10333TIP3   OH255193   2.317   6.139  12.249 -0.6057  0.6907  0.0163
10333TIP3    H155194   2.233   6.099  12.228  0.1734 -0.1125 -1.7844
10333TIP3    H255195   2.382   6.086  12.203  0.7444  2.2938 -0.0501
10334TIP3   OH255196   0.942   2.964  12.069  0.1987 -0.0991 -0.5289
10334TIP3    H155197   0.898   2.963  11.984 -1.8753 -1.0641  0.4825
10334TIP3    H255198   0.913   3.045  12.110 -1.5605 -1.2200  0.5475
10335TIP3   OH255199   3.412   5.537  11.576 -0.2775  0.5128  0.1107
10335TIP3    H155200   3.468   5.459  11.580 -0.4017  0.4356  0.4000
10335TIP3    H255201   3.324   5.503  11.566 -0.5630  0.5202  2.1163
10336TIP3   OH255202   4.799   7.509  11.179 -0.2474  0.4399  0.2426
10336TIP3    H155203   4.810   7.536  11.088  0.3562  0.0009  0.1724
10336TIP3    H255204   4.730   7.443  11.177 -0.7269  0.9465  0.2046
10337TIP3   OH255205   7.532   5.634  10.759 -0.1741 -0.1736  0.5271
10337TIP3    H155206   7.482   5.715  10.755  0.1698  0.0092 -0.8438
10337TIP3    H255207   7.481   5.572  10.705  1.1591  0.1067 -1.1538
10338TIP3   OH255208   1.866   6.355  10.910 -0.3540  0.2128  0.4653
10338TIP3    H155209   1.784   6.404  10.912 -0.8461 -0.5555 -0.3562
10338TIP3    H255210   1.926   6.411  10.860 -1.6163 -1.0070 -2.6452
10339TIP3   OH255211   3.381   1.290  12.441 -0.0260 -0.4925  0.2341
10339TIP3    H155212   3.354   1.261  12.528  2.0514 -0.2209  1.0350
10339TIP3    H255213   3.427   1.215  12.403  0.0597 -0.2373 -0.1732
10340TIP3   OH255214   6.163   2.810  12.138  0.1367  0.2068  0.2048
10340TIP3    H155215   6.068   2.822  12.149  0.3633  1.3001  1.0517
10340TIP3    H255216   6.202   2.847  12.217  1.2634 -0.5981  0.0503
10341TIP3   OH255217   1.601   2.131  11.495  0.4578 -0.4656 -0.1106
10341TIP3    H155218   1.624   2.219  11.526 -1.9025 -0.6875  2.8281
10341TIP3    H255219   1.524   2.145  11.440 -1.6421 -0.7027  2.5352
10342TIP3   OH255220   3.053   3.666  11.430  0.3696 -0.0212 -0.6131
10342TIP3    H155221   3.148   3.678  11.431  0.5285 -0.7005  2.4048
10342TIP3    H255222   3.019   3.756  11.429  1.0220  0.2378 -1.2320
10343TIP3   OH255223   2.575   7.262  12.886 -0.6710  0.1786 -0.0675
10343TIP3    H155224   2.645   7.200  12.909 -0.9777  0.7127  2.6992
10343TIP3    H255225   2.621   7.344  12.869 -0.5758  0.6209  2.1026
10344TIP3   OH255226   4.567   4.974  12.383 -0.1737 -0.1708 -0.1403
10344TIP3    H155227   4.504   4.934  12.322 -0.2900 -0.3360  0.0904
10344TIP3    H255228   4.515   5.039  12.431 -0.9115 -2.3257  2.1574
10345TIP3   OH255229   5.141   1.562  11.550 -0.1362  0.8100  0.1391
10345TIP3    H155230   5.098   1.480  11.574 -0.6643  0.8408 -0.6435
10345TIP3    H255231   5.073   1.613  11.507  0.4782  1.1796 -0.4257
10346TIP3   OH255232   1.402   1.311  10.648 -0.2178  0.1615 -0.5135
10346TIP3    H155233   1.378   1.352  10.565 -0.8592  0.2667 -0.2821
10346TIP3    H255234   1.490   1.343  10.667 -0.2172  0.4251 -0.9700
10347TIP3   OH255235   0.783   2.706  11.961 -0.6947  0.2738 -0.2766
10347TIP3    H155236   0.869   2.737  11.991 -0.5867 -0.7303  0.4773
10347TIP3    H255237   0.801   2.666  11.875 -0.3229 -0.3373  0.0795
10348TIP3   OH255238   2.900   0.919  11.725 -0.2351 -0.3033  0.6321
10348TIP3    H155239   2.855   0.911  11.641 -0.3548 -0.2901  0.6946
10348TIP3    H255240   2.972   0.979  11.709  0.3718 -1.1194  0.2724
10349TIP3   OH255241   1.335   1.426  13.158  0.3658  0.1522 -0.1726
10349TIP3    H155242   1.425   1.406  13.183  1.5352  1.7889 -2.6089
10349TIP3    H255243   1.317   1.510  13.199  1.0213  1.1467 -1.8061
10350TIP3   OH255244   3.762   2.171  10.802 -0.3088 -0.1662  0.1578
10350TIP3    H155245   3.839   2.132  10.843 -1.4060 -1.4960  1.0371
10350TIP3    H255246   3.741   2.246  10.857  2.0511  2.1019 -1.7666
10351TIP3   OH255247   1.763   2.499  10.461  0.1099 -0.3927 -0.0943
10351TIP3    H155248   1.847   2.480  10.419  1.1499  0.8005  1.3635
10351TIP3    H255249   1.741   2.418  10.508 -0.1174 -1.0741 -1.3311
10352TIP3   OH255250   7.525   2.092  12.305 -0.0231  0.1263  0.1842
10352TIP3    H155251   7.493   2.009  12.340 -0.3475  0.0419 -0.3037
10352TIP3    H255252   7.478   2.103  12.222 -2.0668  2.1047  1.4943
10353TIP3   OH255253   7.007   0.056  12.419  0.0534  0.2403 -0.1423
10353TIP3    H155254   7.059  -0.023  12.409  1.4841  1.3286 -2.3118
10353TIP3    H255255   7.047   0.103  12.492 -0.0407 -0.4823  0.3741
10354TIP3   OH255256   1.492   4.846  10.578  0.2776 -0.2653  0.3473
10354TIP3    H155257   1.471   4.904  10.651 -1.0129  1.2078 -1.0993
10354TIP3    H255258   1.587   4.844  10.574  0.3569  0.0760  1.6903
10355TIP3   OH255259   5.870   6.226  11.016  0.0226  0.1776 -0.6687
10355TIP3    H155260   5.865   6.321  11.020  1.9632  0.3631  3.7873
10355TIP3    H255261   5.957   6.208  10.978  0.6101  0.3356  0.5581
10356TIP3   OH255262   3.785   5.385  11.223  0.0776  0.3292  0.5328
10356TIP3    H155263   3.766   5.468  11.267 -1.2604  0.0357  0.5538
10356TIP3    H255264   3.710   5.371  11.166  0.0980 -1.0487  0.8166
10357TIP3   OH255265   7.125   2.365  10.180 -0.7471 -0.3736  0.5308
10357TIP3    H155266   7.076   2.443  10.204 -1.0053 -0.8406  1.5918
10357TIP3    H255267   7.067   2.292  10.204  0.3863 -0.9322  1.7127
10358TIP3   OH255268   6.462   2.395  10.687 -0.4339 -0.0602  0.2280
10358TIP3    H155269   6.373   2.428  10.697  0.4083  2.8903 -0.8198
10358TIP3    H255270   6.456   2.325  10.623 -1.9230  0.4838 -0.2514
10359TIP3   OH255271   1.198   2.713  10.502 -0.3257 -0.0831  0.3344
10359TIP3    H155272   1.269   2.691  10.441  1.3809  1.3930  1.6584
10359TIP3    H255273   1.158   2.629  10.524  0.5379 -0.8832 -1.0112
10360TIP3   OH255274   6.955   0.647  13.059 -0.1171  0.2952  0.4596
10360TIP3    H155275   6.945   0.552  13.063  0.3373  0.1751 -0.7827
10360TIP3    H255276   6.975   0.673  13.149 -0.9803 -0.6876  0.9554
10361TIP3   OH255277   4.831   4.335  11.190 -0.1088 -0.0739  0.4890
10361TIP3    H155278   4.815   4.283  11.269  2.2748 -0.5994  0.7182
10361TIP3    H255279   4.759   4.397  11.187  0.6681  1.3252  4.2570
10362TIP3   OH255280   5.127   5.310  11.497 -0.0287 -0.1168  0.3240
10362TIP3    H155281   5.067   5.383  11.512 -0.0318  0.1520 -0.8933
10362TIP3    H255282   5.082   5.253  11.436  0.2195 -0.8498  0.8120
10363TIP3   OH255283   4.606   6.665  12.783 -0.6237 -0.0806 -0.4397
10363TIP3    H155284   4.600   6.573  12.807  0.8672  0.0638  0.6477
10363TIP3    H255285   4.668   6.702  12.846 -0.8074  1.5561 -1.1671
10364TIP3   OH255286   6.610   6.854  11.205 -0.0889  0.2161  0.1258
10364TIP3    H155287   6.571   6.802  11.275 -0.1736 -1.6267 -1.2062
10364TIP3    H255288   6.698   6.817  11.194  0.2252  1.0336 -0.1949
10365TIP3   OH255289   1.947   7.660  12.030  0.1790 -0.5617  0.2390
10365TIP3    H155290   2.035   7.670  12.066  0.1222 -1.1849  0.5525
10365TIP3    H255291   1.950   7.578  11.981  0.2593  0.2562 -1.2122
10366TIP3   OH255292   5.108   7.176  12.461  0.3357 -0.0169  0.0673
10366TIP3    H155293   5.130   7.097  12.411  0.1082 -0.5802  0.8373
10366TIP3    H255294   5.167   7.174  12.536 -0.8110 -0.3714  0.9900
10367TIP3   OH255295   6.676   1.201  10.574 -0.4984 -0.0097  0.1410
10367TIP3    H155296   6.707   1.244  10.654  0.7319 -0.1728 -0.2211
10367TIP3    H255297   6.696   1.263  10.504  1.0341 -1.0083 -0.3529
10368TIP3   OH255298   7.555   7.213  10.983 -0.4234  0.6128 -0.0227
10368TIP3    H155299   7.466   7.240  10.961 -0.0338  1.0287 -1.1695
10368TIP3    H255300   7.589   7.175  10.902  1.2195  2.5404 -0.3195
10369TIP3   OH255301   4.075   1.440  12.419  0.4338  0.0801 -0.8199
10369TIP3    H155302   4.096   1.534  12.421  2.4619 -0.3452  0.7786
10369TIP3    H255303   4.120   1.408  12.341  0.9487  0.1886 -0.5704
10370TIP3   OH255304   2.111   4.720  11.071  0.2155  0.3206  0.0584
10370TIP3    H155305   2.065   4.730  11.154 -0.6191 -0.3253 -0.3179
10370TIP3    H255306   2.045   4.690  11.009  0.3013  2.8613 -1.4184
10371TIP3   OH255307   1.101   1.030  12.054  0.0558 -0.2561 -0.1498
10371TIP3    H155308   1.041   0.990  11.992  0.7683 -1.7229  0.0793
10371TIP3    H255309   1.169   1.069  12.000 -0.6963  0.7846 -0.3767
10372TIP3   OH255310   1.318   6.649  11.009  0.0706 -0.8411  0.2518
10372TIP3    H155311   1.349   6.570  10.963  2.1053  1.0185 -1.8393
10372TIP3    H255312   1.299   6.711  10.939  1.5044  1.5366  1.8481
10373TIP3   OH255313   3.607   2.050  11.530  0.3797 -0.0927  0.2458
10373TIP3    H155314   3.619   1.991  11.456  1.0461  0.2479  0.0695
10373TIP3    H255315   3.584   1.993  11.604  1.3081 -0.6035  0.1494
10374TIP3   OH255316   2.581   5.441  13.518  0.4064 -0.1227  0.4836
10374TIP3    H155317   2.575   5.351  13.549 -0.2659  0.1451  1.1832
10374TIP3    H255318   2.537   5.440  13.433  0.4110 -0.4657  0.4850
10375TIP3   OH255319   7.253   4.425  12.087  0.5285 -0.5382 -0.4253
10375TIP3    H155320   7.327   4.372  12.114 -0.1756  0.0306  3.1994
10375TIP3    H255321   7.290   4.512  12.073  0.8011 -0.6082 -0.1639
10376TIP3   OH255322   2.142   1.823  10.571  0.2243  0.5285 -0.1852
10376TIP3    H155323   2.154   1.844  10.479 -1.3859 -0.4888 -0.6667
10376TIP3    H255324   2.107   1.903  10.610 -0.6897  0.4411 -0.8195
10377TIP3   OH255325   2.725   5.539  11.301 -0.0329  0.1639 -0.4998
10377TIP3    H155326   2.637   5.550  11.338 -1.5080 -2.6011 -2.8186
10377TIP3    H255327   2.759   5.461  11.343  0.5652  0.1838 -0.9420
10378TIP3   OH255328   1.088   3.325  12.502  0.2075  0.3568  0.3939
10378TIP3    H155329   1.007   3.322  12.553 -0.7571  0.8132 -1.0365
10378TIP3    H255330   1.158   3.327  12.567 -0.8120 -1.9382  1.6865
10379TIP3   OH255331   0.116   7.627  11.104  0.1439 -0.4699 -0.2566
10379TIP3    H155332   0.063   7.615  11.183 -0.8226  0.7914 -0.6746
10379TIP3    H255333   0.182   7.692  11.129 -1.5672  1.7087 -1.0372
10380TIP3   OH255334   1.766   5.640  12.621 -0.4087  0.3707 -0.1455
10380TIP3    H155335   1.785   5.622  12.713  0.5418 -0.1786 -0.4373
10380TIP3    H255336   1.786   5.733  12.611  0.7198  0.1498 -0.0779
10381TIP3   OH255337   1.206   6.804  11.670 -0.1128 -0.0980 -0.3863
10381TIP3    H155338   1.129   6.806  11.727  0.6051  0.1632  0.5880
10381TIP3    H255339   1.192   6.727  11.614 -1.2616  0.1668 -0.4908
10382TIP3   OH255340   2.329   0.907  11.094  0.3495 -0.2491  0.2768
10382TIP3    H155341   2.298   0.924  11.183  0.2202  0.3125  0.1302
10382TIP3    H255342   2.373   0.989  11.069 -0.0948 -0.2115 -0.3783
10383TIP3   OH255343   0.572   6.087  12.426 -0.3556  0.0001 -0.3094
10383TIP3    H155344   0.497   6.126  12.471 -0.3884 -0.1078 -0.2697
10383TIP3    H255345   0.611   6.159  12.376  0.1681  0.3225  0.5341
10384TIP3   OH255346   1.628   2.234  12.229  0.3241 -0.0397 -0.5584
10384TIP3    H155347   1.554   2.174  12.226 -0.6593  1.0355  0.8154
10384TIP3    H255348   1.599   2.310  12.178  0.6951  0.1714 -0.4605
10385TIP3   OH255349   3.661   4.179  11.120 -0.0108 -0.4098 -0.8793
10385TIP3    H155350   3.677   4.213  11.032  1.0576  1.1758 -0.1101
10385TIP3    H255351   3.740   4.129  11.141 -0.0574 -0.3801 -0.6307
10386TIP3   OH255352   2.519   6.162  11.039 -1.2184 -0.2093 -0.3550
10386TIP3    H155353   2.526   6.248  10.999 -1.7471  0.2880  0.5857
10386TIP3    H255354   2.426   6.154  11.062 -1.3431 -1.3594 -1.1281
10387TIP3   OH255355   4.737   1.785  10.294 -0.0284  0.1783  0.2785
10387TIP3    H155356   4.749   1.691  10.306 -0.2201  0.0998 -0.1285
10387TIP3    H255357   4.657   1.793  10.241  1.7438  0.4218 -2.5525
10388TIP3   OH255358   2.476   7.226  11.300 -0.2523  0.3242 -0.5048
10388TIP3    H155359   2.449   7.245  11.210 -0.4680 -1.4919 -0.8633
10388TIP3    H255360   2.448   7.303  11.349 -1.0531  0.9255 -1.8172
10389TIP3   OH255361   0.750   6.726  11.664 -0.3219  0.0188  0.2739
10389TIP3    H155362   0.719   6.637  11.649 -2.4306  0.9295 -1.4085
10389TIP3    H255363   0.681   6.766  11.718 -0.2096  1.0455 -0.3278
10390TIP3   OH255364   3.591   3.981  12.428  0.0986  0.4458 -0.1660
10390TIP3    H155365   3.576   3.893  12.394 -0.5017  0.3514  0.3265
10390TIP3    H255366   3.685   3.984  12.447  0.0591 -0.2138  0.1549
10391TIP3   OH255367   7.495   1.078  11.233  0.4129 -0.4570  0.3465
10391TIP3    H155368   7.406   1.112  11.227  0.7460  0.2220 -1.7802
10391TIP3    H255369   7.547   1.138  11.180  2.1813 -0.7589  1.6596
10392TIP3   OH255370   5.507   4.331  10.261 -0.0681  0.4741  0.3448
10392TIP3    H155371   5.560   4.345  10.183 -0.0971 -1.5468 -0.0916
10392TIP3    H255372   5.435   4.395  10.253  1.7116  2.6314  0.5041
10393TIP3   OH255373   4.450   2.464  11.057 -0.1803  0.3845 -0.7813
10393TIP3    H155374   4.448   2.489  11.149 -0.0006  1.1204 -0.9686
10393TIP3    H255375   4.446   2.547  11.009 -0.3290  0.0098 -1.4390
10394TIP3   OH255376   5.056   2.279  12.381 -0.1440  0.2466 -0.0996
10394TIP3    H155377   5.124   2.327  12.333 -0.4748  0.1484 -0.6632
10394TIP3    H255378   5.100   2.252  12.462  0.1402  1.2258  0.0924
10395TIP3   OH255379   5.278   3.675  11.263  0.2535 -0.1326  0.4526
10395TIP3    H155380   5.251   3.604  11.205  0.1950  1.8887 -2.1750
10395TIP3    H255381   5.197   3.720  11.285  0.5976  1.7289 -1.6732
10396TIP3   OH255382   1.786   7.083  11.372 -0.1480 -0.0629 -0.0757
10396TIP3    H155383   1.847   7.156  11.372 -1.9913  1.5747 -0.9849
10396TIP3    H255384   1.730   7.099  11.448 -0.2093 -0.8734  0.0609
10397TIP3   OH255385   5.257   0.118  11.265 -0.4516 -0.2986 -0.3104
10397TIP3    H155386   5.218   0.057  11.202  0.0803 -1.0019  0.0206
10397TIP3    H255387   5.286   0.192  11.212  0.7827 -1.2671 -1.0541
10398TIP3   OH255388   1.754   5.289  11.457  0.1190  0.5220 -0.4855
10398TIP3    H155389   1.672   5.262  11.498  0.4058  1.0711  0.4592
10398TIP3    H255390   1.821   5.235  11.498  0.3363  0.6239 -0.7007
10399TIP3   OH255391   5.985   6.704  11.141 -0.2904 -0.3596  0.3171
10399TIP3    H155392   6.040   6.625  11.144  1.2711  0.5075 -2.1792
10399TIP3    H255393   6.045   6.773  11.114 -2.0920  1.2606  0.2658
10400TIP3   OH255394   0.770   4.002  10.644 -0.4464  0.3445 -0.1856
10400TIP3    H155395   0.707   3.989  10.715 -2.5762  1.8436 -1.6752
10400TIP3    H255396   0.750   3.932  10.581  0.2723  0.0598 -0.1077
10401TIP3   OH255397   6.115   5.717  11.498 -0.5039 -0.0021 -0.0448
10401TIP3    H155398   6.038   5.770  11.514 -2.2615 -2.6377  0.9549
10401TIP3    H255399   6.081   5.632  11.470  2.0999 -0.7679 -1.2373
10402TIP3   OH255400   5.359   6.925  10.725  0.1355 -0.2796 -0.2343
10402TIP3    H155401   5.299   6.998  10.714  1.7268  1.8654  3.5344
10402TIP3    H255402   5.305   6.853  10.756 -0.7956  0.9933  1.1920
10403TIP3   OH255403   7.008   4.862  12.148 -0.0798  0.5105 -0.3119
10403TIP3    H155404   6.947   4.793  12.175 -0.0818  0.2763 -0.9172
10403TIP3    H255405   7.045   4.831  12.065  0.3253  0.9867 -0.3141
10404TIP3   OH255406   1.122   1.509  11.453  0.1462  0.2872  0.1404
10404TIP3    H155407   1.059   1.570  11.491  0.2443 -0.5150  1.7213
10404TIP3    H255408   1.129   1.439  11.519  2.9151  0.4947  0.1976
10405TIP3   OH255409   4.093   3.126  10.725  0.0021  0.3332  0.3623
10405TIP3    H155410   4.114   3.035  10.749  3.0984  0.6677 -0.5585
10405TIP3    H255411   4.133   3.137  10.639 -0.7497  2.4466  0.2336
10406TIP3   OH255412   0.132   1.143  10.882  0.4847 -0.0654 -0.5311
10406TIP3    H155413   0.208   1.087  10.900  0.0934  0.3486  2.9802
10406TIP3    H255414   0.165   1.209  10.821  3.0025  0.0836  0.8543
10407TIP3   OH255415   4.292   3.543  11.399 -0.5500 -0.4442 -0.1999
10407TIP3    H155416   4.297   3.468  11.341 -2.4082 -0.7699  0.0132
10407TIP3    H255417   4.270   3.506  11.485 -1.1543  0.3015 -0.0233
10408TIP3   OH255418   4.350   0.082  11.169 -0.5863  0.1350 -0.1400
10408TIP3    H155419   4.441   0.113  11.169 -0.2905 -0.5238 -2.1131
10408TIP3    H255420   4.321   0.089  11.260  1.7410 -0.4996  0.7237
10409TIP3   OH255421   4.502   3.971  11.779 -0.3586  0.3674  0.3626
10409TIP3    H155422   4.498   3.983  11.874 -1.2450 -0.1697  0.3984
10409TIP3    H255423   4.411   3.966  11.751 -0.1242 -2.1431 -0.1619
10410TIP3   OH255424   0.579   2.740  10.545 -0.1456  0.2647  0.1778
10410TIP3    H155425   0.535   2.756  10.462 -1.2136  1.4473  0.9329
10410TIP3    H255426   0.664   2.704  10.520  0.6145  2.9684 -1.5686
10411TIP3   OH255427   3.682   4.982  10.538 -0.5219 -0.2751 -0.2714
10411TIP3    H155428   3.595   4.989  10.577 -0.7029 -0.1530 -0.6923
10411TIP3    H255429   3.684   5.051  10.471  0.7596  1.3747  1.3556
10412TIP3   OH255430   2.336   4.722  12.808 -0.0677  0.4740 -0.6787
10412TIP3    H155431   2.348   4.804  12.855 -1.8963  0.0331  0.6477
10412TIP3    H255432   2.396   4.729  12.733  2.4453  1.4910  1.2584
10413TIP3   OH255433   3.568   3.484  11.738 -0.0017 -0.3924 -0.1247
10413TIP3    H155434   3.539   3.404  11.782 -1.7860 -0.3033 -1.0657
10413TIP3    H255435   3.573   3.461  11.645 -2.3766  1.0120 -0.6763
10414TIP3   OH255436   6.085   2.390  10.871 -0.5122  0.3170  0.4770
10414TIP3    H155437   6.114   2.369  10.960 -1.4221 -0.4087  0.6321
10414TIP3    H255438   5.992   2.367  10.871 -0.6037  0.6330 -0.5678
10415TIP3   OH255439   2.923   5.697  10.390  0.3320 -0.6664  0.1133
10415TIP3    H155440   3.018   5.693  10.400  0.4415  1.7839  0.4478
10415TIP3    H255441   2.901   5.615  10.345  2.6543 -1.0228 -0.5043
10416TIP3   OH255442   5.691   3.278  10.296 -0.0114 -0.3326  0.0524
10416TIP3    H155443   5.640   3.205  10.330  3.1065 -2.1541  1.3082
10416TIP3    H255444   5.697   3.261  10.202 -1.3251 -0.2907 -0.0578
10417TIP3   OH255445   4.776   7.224  12.102  0.0667  0.1855 -0.1332
10417TIP3    H155446   4.842   7.276  12.056  0.7128 -0.0697  0.4794
10417TIP3    H255447   4.825   7.177  12.169 -0.4735 -1.3561 -0.7660
10418TIP3   OH255448   6.731   2.996  13.277  0.5061 -0.1609 -0.7712
10418TIP3    H155449   6.804   3.022  13.221  0.9353 -0.2585 -0.2751
10418TIP3    H255450   6.684   2.929  13.228  1.2347 -0.6841 -0.7637
10419TIP3   OH255451   6.470   3.045  12.140 -0.0825 -0.3734 -0.6921
10419TIP3    H155452   6.405   3.069  12.074 -0.4235 -2.2481 -1.0934
10419TIP3    H255453   6.551   3.031  12.091  0.3944  0.9019 -0.3257
10420TIP3   OH255454   1.549   2.176  13.098  0.0655 -0.0880  0.4260
10420TIP3    H155455   1.586   2.260  13.071  0.4529  0.5437  2.6463
10420TIP3    H255456   1.469   2.199  13.146  0.2655 -0.9292  1.2005
10421TIP3   OH255457   7.201   5.311  12.124  0.0794  0.0480  0.2059
10421TIP3    H155458   7.248   5.388  12.156 -0.7903  0.5999  0.1805
10421TIP3    H255459   7.268   5.242  12.120  1.0478  1.0073 -0.5764
10422TIP3   OH255460   1.221   5.044  11.364  0.0599 -0.5505  0.0636
10422TIP3    H155461   1.153   5.080  11.422 -0.8065 -0.9975 -0.6408
10422TIP3    H255462   1.172   5.004  11.293  1.1017 -0.3854 -0.7644
10423TIP3   OH255463   7.566   4.621  12.565 -0.2267 -0.6235 -0.6476
10423TIP3    H155464   7.651   4.611  12.608 -0.5197 -1.5230 -0.2686
10423TIP3    H255465   7.566   4.555  12.496 -0.2420  0.0156 -1.2684
10424TIP3   OH255466   6.429   7.606  10.740 -0.1711  0.0451 -0.1197
10424TIP3    H155467   6.336   7.587  10.751 -0.2593 -0.4560 -1.4875
10424TIP3    H255468   6.434   7.702  10.740 -0.7777  0.0873 -0.5832
10425TIP3   OH255469   2.584   6.757  10.433 -0.4869 -0.1147 -0.2405
10425TIP3    H155470   2.584   6.851  10.448 -2.0968 -0.3834  1.8065
10425TIP3    H255471   2.491   6.733  10.430 -0.1054 -1.7468  0.0414
10426TIP3   OH255472   4.603   3.077  10.490 -0.3559  0.1541 -0.0516
10426TIP3    H155473   4.553   3.121  10.558 -0.1704  0.1462  0.0922
10426TIP3    H255474   4.643   3.148  10.439 -2.3356  0.2424 -1.5843
10427TIP3   OH255475   4.576   6.506  11.244 -0.0668 -0.4159  0.5171
10427TIP3    H155476   4.622   6.423  11.232  0.5040  0.2747 -3.4043
10427TIP3    H255477   4.639   6.562  11.289  1.5204 -0.7006 -1.2057
10428TIP3   OH255478   4.390   5.106  10.541  0.4413 -0.0086  0.5572
10428TIP3    H155479   4.410   5.064  10.458 -1.0910  1.9004 -0.8840
10428TIP3    H255480   4.314   5.058  10.575 -1.1876  1.3184 -0.9911
10429TIP3   OH255481   3.788   2.702  11.979  0.5333  0.6123  0.0790
10429TIP3    H155482   3.799   2.618  12.024 -2.5575  1.1718  2.1957
10429TIP3    H255483   3.825   2.767  12.040  0.8515  0.9993 -0.5115
10430TIP3   OH255484   2.681   5.442  10.688  0.1300 -0.0123 -0.2477
10430TIP3    H155485   2.692   5.532  10.717 -1.5369 -0.1153  0.8797
10430TIP3    H255486   2.764   5.419  10.646  0.2897  2.2941 -1.3162
10431TIP3   OH255487   0.081   4.153  10.339  0.3531  0.3473 -0.2303
10431TIP3    H155488   0.134   4.193  10.407 -1.5157 -2.1927  3.0213
10431TIP3    H255489   0.129   4.075  10.313  0.4179  0.5913 -0.8681
10432TIP3   OH255490   6.679   0.078  11.402  0.2846  0.0115 -0.5340
10432TIP3    H155491   6.598   0.117  11.371 -0.6539 -1.4255 -0.0113
10432TIP3    H255492   6.679  -0.011  11.365  2.9884  0.8107 -2.7946
10433TIP3   OH255493   1.378   4.808  11.396 -0.8222  0.3460 -0.3724
10433TIP3    H155494   1.320   4.882  11.414 -0.2539  0.6812  0.0952
10433TIP3    H255495   1.453   4.847  11.351  0.7766  0.5458  2.2211
10434TIP3   OH255496   3.753   3.009  12.055 -0.3002  0.0731  0.7530
10434TIP3    H155497   3.709   2.983  11.974  1.0047  1.1040 -0.3570
10434TIP3    H255498   3.695   3.074  12.094  0.6986  2.5141 -1.4379
10435TIP3   OH255499   4.747   5.240  10.444  0.5087  0.2848 -0.0344
10435TIP3    H155500   4.757   5.151  10.410 -0.9955 -0.2360  0.7580
10435TIP3    H255501   4.778   5.296  10.373 -1.4667 -0.7817 -1.8869
10436TIP3   OH255502   6.933   1.346  12.304 -0.4492  0.0838 -0.0074
10436TIP3    H155503   7.021   1.323  12.274  0.2622 -1.1785  2.6565
10436TIP3    H255504   6.912   1.277  12.367 -3.0005  0.8485  0.0573
10437TIP3   OH255505   0.509   3.041  10.318 -0.5941  0.2942  0.2536
10437TIP3    H155506   0.448   2.971  10.298 -0.3457  0.0171  0.4605
10437TIP3    H255507   0.460   3.102  10.374 -0.4283 -0.3552  1.1287
10438TIP3   OH255508   6.559   6.367  11.818  0.3408  0.4544  0.5542
10438TIP3    H155509   6.472   6.329  11.831 -0.2468  0.9210 -1.5910
10438TIP3    H255510   6.551   6.456  11.854 -0.1900  0.6209  0.0405
10439TIP3   OH255511   7.407   1.620  12.138  1.0900 -0.0597 -0.0660
10439TIP3    H155512   7.472   1.689  12.126  0.6694  0.2214 -0.7671
10439TIP3    H255513   7.453   1.539  12.118  1.1010  0.1767 -1.0108
   7.68049   7.68049  30.00000
