Title
55513
    1DOPE     N    1   4.735   3.266  17.240  0.1384  0.0139 -0.7284
    1DOPE   HN1    2   4.782   3.242  17.330 -0.7182  0.5951 -0.1105
    1DOPE   HN2    3   4.633   3.244  17.238 -0.0282  0.7708 -1.4614
    1DOPE   HN3    4   4.774   3.197  17.172 -1.5089 -1.4138 -0.3034
    1DOPE   C12    5   4.754   3.406  17.193 -0.4173 -0.6427  0.0318
    1DOPE  H12A    6   4.838   3.392  17.122 -0.4146 -0.1867 -0.0568
    1DOPE  H12B    7   4.771   3.476  17.278  1.4397  0.9386 -1.5491
    1DOPE   C11    8   4.632   3.458  17.109  0.2330  0.4901  0.0973
    1DOPE  H11A    9   4.627   3.405  17.012 -1.3997 -1.5167  1.2099
    1DOPE  H11B   10   4.661   3.563  17.086 -0.0356  0.7633  0.9739
    1DOPE     P   11   4.410   3.540  17.234 -0.1096 -0.3090 -0.1057
    1DOPE   O13   12   4.471   3.672  17.243  0.6715 -0.0248 -0.1320
    1DOPE   O14   13   4.351   3.490  17.359  0.0165 -0.4466 -0.0512
    1DOPE   O11   14   4.303   3.544  17.120  0.0638 -0.1223  0.3781
    1DOPE   O12   15   4.513   3.429  17.186 -0.0349  0.0310  0.4244
    1DOPE    C1   16   4.303   3.461  17.002 -0.2402 -0.4706  0.7118
    1DOPE    HA   17   4.239   3.374  17.026 -1.0956 -0.5063 -1.5087
    1DOPE    HB   18   4.406   3.419  16.994 -0.0666  0.1051 -0.2332
    1DOPE    C2   19   4.253   3.529  16.878 -0.6405  0.2640 -0.7314
    1DOPE    HS   20   4.146   3.504  16.861 -0.3623 -0.2228 -1.9131
    1DOPE   O21   21   4.334   3.491  16.768 -0.0244 -0.0308 -0.3036
    1DOPE   C21   22   4.313   3.370  16.719 -0.0240  0.1546  0.4987
    1DOPE   O22   23   4.219   3.302  16.750 -0.0994  0.0045 -0.0909
    1DOPE   C22   24   4.409   3.339  16.608  0.0007  0.0233 -0.3242
    1DOPE   H2R   25   4.510   3.373  16.640 -1.3323  1.5959  2.5863
    1DOPE   H2S   26   4.372   3.387  16.515  0.7824  1.1998 -0.0479
    1DOPE    C3   27   4.255   3.692  16.884  0.5780 -0.1029 -0.0578
    1DOPE    HX   28   4.256   3.731  16.780  0.8957 -1.0943 -0.4328
    1DOPE    HY   29   4.356   3.715  16.926  0.9315 -1.7097  0.0299
    1DOPE   O31   30   4.151   3.746  16.971 -0.0140 -0.1706  0.0188
    1DOPE   C31   31   4.042   3.759  16.902 -0.2878 -0.8714 -0.3416
    1DOPE   O32   32   4.015   3.719  16.786  0.0012  0.5900 -0.5750
    1DOPE   C32   33   3.937   3.848  16.978 -0.1310  0.2173 -0.6092
    1DOPE   H2X   34   3.914   3.778  17.060  0.6342 -1.5337 -1.8351
    1DOPE   H2Y   35   3.999   3.931  17.020 -1.1128  0.3876  0.5621
    1DOPE   C23   36   4.414   3.179  16.605 -0.3003  0.7278  0.4447
    1DOPE   H3R   37   4.313   3.131  16.609 -0.6663  1.3138 -1.0683
    1DOPE   H3S   38   4.475   3.138  16.687 -0.2135  2.5016  1.3267
    1DOPE   C24   39   4.482   3.142  16.477 -0.1830  0.7091 -0.3896
    1DOPE   H4R   40   4.584   3.185  16.475  0.0073  0.2656 -0.2991
    1DOPE   H4S   41   4.427   3.174  16.386  0.1942  1.4329 -0.3669
    1DOPE   C25   42   4.489   2.979  16.473 -0.8172  0.3314  0.2881
    1DOPE   H5R   43   4.386   2.939  16.471 -0.8535  0.4296 -1.1195
    1DOPE   H5S   44   4.546   2.942  16.561 -1.4577 -0.6481  0.3107
    1DOPE   C26   45   4.548   2.918  16.341 -0.6656  0.4094  0.4168
    1DOPE   H6R   46   4.571   2.810  16.358 -0.5033  0.5276  0.9783
    1DOPE   H6S   47   4.649   2.960  16.327  0.1624 -0.6215  2.7313
    1DOPE   C27   48   4.462   2.935  16.218  0.0019 -0.5356  0.5337
    1DOPE   H7R   49   4.423   3.039  16.208  0.4020 -0.2636  1.5813
    1DOPE   H7S   50   4.372   2.872  16.232  0.0512 -0.7985 -0.2980
    1DOPE   C28   51   4.527   2.906  16.079 -0.5623 -0.1824 -0.1323
    1DOPE   H8R   52   4.561   2.800  16.084 -1.6032 -0.4990  0.5016
    1DOPE   H8S   53   4.618   2.968  16.066 -0.9344  0.4370  0.1986
    1DOPE   C29   54   4.431   2.902  15.964 -0.4413 -0.1943 -0.1307
    1DOPE   H9R   55   4.346   2.833  15.978 -0.2386  0.0563  2.8693
    1DOPE  C210   56   4.435   2.986  15.857  0.1940  0.8461 -0.0847
    1DOPE  H10R   57   4.354   2.987  15.783 -0.1045 -1.5590  0.1459
    1DOPE  C211   58   4.551   3.077  15.823 -0.1967 -0.1739 -0.2583
    1DOPE  H11R   59   4.648   3.024  15.825  0.4562  0.9918  0.1011
    1DOPE  H11S   60   4.568   3.166  15.888 -0.4039  0.0034 -0.4468
    1DOPE  C212   61   4.543   3.135  15.674 -0.0597  0.0289  0.1908
    1DOPE  H12R   62   4.438   3.155  15.641 -1.0159 -0.3903  2.7204
    1DOPE  H12S   63   4.573   3.049  15.611  0.1447  0.2828 -0.0645
    1DOPE  C213   64   4.630   3.265  15.663  0.3457  0.1494 -0.4801
    1DOPE  H13R   65   4.718   3.263  15.731 -1.5390  0.6298  2.1333
    1DOPE  H13S   66   4.578   3.361  15.686 -1.6051 -0.1708 -3.0583
    1DOPE  C214   67   4.685   3.285  15.520  0.0457  0.0167 -0.2617
    1DOPE  H14R   68   4.749   3.198  15.492  0.9741  0.2562  1.0071
    1DOPE  H14S   69   4.751   3.374  15.519  1.3098 -0.8878 -1.6652
    1DOPE  C215   70   4.575   3.305  15.420 -0.1263 -0.2714 -0.1421
    1DOPE  H15R   71   4.538   3.409  15.434 -2.3392 -1.2111  1.5956
    1DOPE  H15S   72   4.489   3.236  15.434 -0.2533 -0.3192 -1.0914
    1DOPE  C216   73   4.625   3.298  15.276 -0.5071  0.2519 -0.0441
    1DOPE  H16R   74   4.670   3.198  15.258 -2.9903 -1.3777  2.1220
    1DOPE  H16S   75   4.706   3.371  15.255 -2.3220  1.5389 -3.4744
    1DOPE  C217   76   4.520   3.315  15.166 -0.9606 -0.0495  0.4662
    1DOPE  H17R   77   4.469   3.413  15.178  0.8409  0.9355  0.4877
    1DOPE  H17S   78   4.439   3.240  15.178 -0.4459 -0.9166 -1.1912
    1DOPE  C218   79   4.596   3.308  15.040 -0.2469 -0.1500  0.2208
    1DOPE  H18R   80   4.631   3.204  15.025  1.5570  0.5344 -0.6150
    1DOPE  H18S   81   4.688   3.371  15.039  0.5023 -1.1671 -1.8047
    1DOPE  H18T   82   4.529   3.332  14.955 -1.6127 -0.9888  1.0277
    1DOPE   C33   83   3.813   3.895  16.909  0.2375 -0.0811  0.0468
    1DOPE   H3X   84   3.752   3.944  16.988  1.6867  1.7412  0.0930
    1DOPE   H3Y   85   3.758   3.802  16.883  1.9231 -1.8564  2.3374
    1DOPE   C34   86   3.846   3.995  16.798 -0.3657 -0.2874  0.4563
    1DOPE   H4X   87   3.900   4.084  16.838  2.2441 -1.0034 -1.2149
    1DOPE   H4Y   88   3.925   3.933  16.750 -1.9374 -1.9990 -0.0190
    1DOPE   C35   89   3.735   4.027  16.696  0.9241  0.1306 -0.0843
    1DOPE   H5X   90   3.675   4.108  16.742 -0.5773 -0.0365 -1.6758
    1DOPE   H5Y   91   3.660   3.950  16.670  0.3242  0.9347 -0.7724
    1DOPE   C36   92   3.799   4.068  16.565  0.2993  0.0878 -0.4757
    1DOPE   H6X   93   3.865   3.989  16.524  0.2581  1.3673 -3.1839
    1DOPE   H6Y   94   3.866   4.155  16.581 -1.2691  1.2711 -0.0583
    1DOPE   C37   95   3.703   4.114  16.448 -0.1926  0.0485  0.2259
    1DOPE   H7X   96   3.648   4.019  16.434  0.0236 -0.4330  2.3508
    1DOPE   H7Y   97   3.632   4.187  16.492 -0.0030 -1.1993  2.7771
    1DOPE   C38   98   3.774   4.131  16.314  0.0362  0.0975  0.7552
    1DOPE   H8X   99   3.705   4.148  16.228  1.0689 -0.7839 -0.2744
    1DOPE   H8Y  100   3.838   4.044  16.291  0.2707  0.2090  0.9801
    1DOPE   C39  101   3.854   4.259  16.316 -0.2770  0.2291 -0.1165
    1DOPE   H9X  102   3.831   4.325  16.401  1.1035 -1.5747  1.7449
    1DOPE  C310  103   3.960   4.292  16.243  0.1826 -0.8646 -0.0700
    1DOPE  H10X  104   4.000   4.393  16.258  0.2554 -1.0290  0.8650
    1DOPE  C311  105   4.026   4.213  16.130  0.1387  0.3501 -0.2187
    1DOPE  H11X  106   4.086   4.135  16.181 -0.0612  1.3638  1.6517
    1DOPE  H11Y  107   3.952   4.174  16.057 -0.7820  1.6650 -0.0205
    1DOPE  C312  108   4.126   4.301  16.062 -0.5438  0.0099 -0.0202
    1DOPE  H12X  109   4.191   4.352  16.137  0.9734  0.5332 -1.6201
    1DOPE  H12Y  110   4.075   4.373  15.995 -1.0912 -1.0415 -0.7553
    1DOPE  C313  111   4.216   4.227  15.964 -0.1803 -0.6939 -0.2629
    1DOPE  H13X  112   4.294   4.299  15.929 -1.2675 -0.6264 -2.7658
    1DOPE  H13Y  113   4.275   4.143  16.007 -0.0817 -0.4790  0.0286
    1DOPE  C314  114   4.134   4.162  15.849 -0.0488 -0.3164 -0.6049
    1DOPE  H14X  115   4.075   4.242  15.799  0.9928  1.1731  0.4416
    1DOPE  H14Y  116   4.050   4.103  15.890 -1.0394  1.7030  0.4254
    1DOPE  C315  117   4.215   4.075  15.754 -0.1433  0.5713 -0.3235
    1DOPE  H15X  118   4.151   4.032  15.673  0.5719  0.0334 -0.6185
    1DOPE  H15Y  119   4.251   3.979  15.797 -0.6124  2.0170  3.7134
    1DOPE  C316  120   4.320   4.156  15.678  0.4105 -0.0743 -0.1906
    1DOPE  H16X  121   4.350   4.100  15.587 -0.6608  2.0853 -1.9829
    1DOPE  H16Y  122   4.416   4.156  15.734  0.3830 -2.0816 -0.0911
    1DOPE  C317  123   4.299   4.306  15.645  0.1761  0.2960 -0.1313
    1DOPE  H17X  124   4.221   4.318  15.567  0.8534 -0.0590 -0.8789
    1DOPE  H17Y  125   4.271   4.366  15.734 -1.9698 -2.3874  1.1440
    1DOPE  C318  126   4.432   4.369  15.601 -0.0418 -1.2240  0.0220
    1DOPE  H18X  127   4.418   4.475  15.568  1.6502 -0.9741  0.0224
    1DOPE  H18Y  128   4.499   4.372  15.690 -0.2366 -1.8101  0.1928
    1DOPE  H18Z  129   4.483   4.308  15.524 -1.9761 -0.6544 -1.8126
    2DOPE     N  130   3.444   4.318  16.830  0.1049  0.0417  0.2280
    2DOPE   HN1  131   3.502   4.260  16.894  0.5362 -2.5618 -2.3150
    2DOPE   HN2  132   3.376   4.372  16.887  1.9241  0.5550  2.0464
    2DOPE   HN3  133   3.382   4.260  16.770  0.8256 -1.5655  0.9716
    2DOPE   C12  134   3.527   4.416  16.762 -0.7810 -0.5460  0.0704
    2DOPE  H12A  135   3.459   4.492  16.718  0.2651 -1.1191 -2.7472
    2DOPE  H12B  136   3.592   4.365  16.687  0.1727  0.4413  0.2035
    2DOPE   C11  137   3.628   4.480  16.862  0.1065  0.0953  0.8152
    2DOPE  H11A  138   3.577   4.542  16.939 -0.1013  0.0292  0.7309
    2DOPE  H11B  139   3.688   4.551  16.801 -0.6335  0.2209  0.2204
    2DOPE     P  140   3.833   4.434  17.007 -0.0523  0.2232  0.3273
    2DOPE   O13  141   3.901   4.324  17.081  0.1029  0.4989 -0.0574
    2DOPE   O14  142   3.791   4.544  17.092  0.4590 -0.3450 -0.0707
    2DOPE   O11  143   3.934   4.488  16.906  0.3843 -0.4136 -0.4922
    2DOPE   O12  144   3.710   4.382  16.918  0.2650 -0.5852 -0.3762
    2DOPE    C1  145   4.001   4.416  16.804 -0.1904  0.3606 -0.0451
    2DOPE    HA  146   3.939   4.330  16.771 -1.9713  1.3761  0.5200
    2DOPE    HB  147   4.103   4.378  16.829  0.7112  3.0332  0.6625
    2DOPE    C2  148   4.025   4.500  16.671 -0.2515  0.7861 -0.3410
    2DOPE    HS  149   4.103   4.577  16.693  0.7078  0.0379 -1.0377
    2DOPE   O21  150   3.894   4.554  16.626 -0.8611  0.6643  0.1140
    2DOPE   C21  151   3.900   4.678  16.584  0.6090  0.0347  0.0965
    2DOPE   O22  152   3.995   4.752  16.593  0.5433 -0.4112 -0.4370
    2DOPE   C22  153   3.768   4.730  16.529 -0.0543  0.2366 -0.0182
    2DOPE   H2R  154   3.783   4.827  16.478  1.5778 -0.0106 -0.0753
    2DOPE   H2S  155   3.695   4.743  16.612  0.1942  0.1456  0.2196
    2DOPE    C3  156   4.082   4.406  16.564 -0.1277  1.2545 -0.3492
    2DOPE    HX  157   4.087   4.464  16.469  3.9134 -0.6634 -1.5142
    2DOPE    HY  158   4.002   4.331  16.547 -0.9510  1.9750  0.2707
    2DOPE   O31  159   4.205   4.339  16.604  0.0002  0.7326 -0.5930
    2DOPE   C31  160   4.277   4.290  16.499 -0.4750 -0.6527  0.5770
    2DOPE   O32  161   4.268   4.311  16.381  0.3853 -0.0638 -0.2867
    2DOPE   C32  162   4.383   4.189  16.550 -0.1760 -0.0399 -0.4961
    2DOPE   H2X  163   4.485   4.230  16.537  0.4346 -1.5930 -0.7661
    2DOPE   H2Y  164   4.374   4.185  16.661 -0.1157  1.6264 -0.4068
    2DOPE   C23  165   3.715   4.641  16.411  0.4543 -0.6524  0.1967
    2DOPE   H3R  166   3.607   4.659  16.396  0.6495  0.2123 -0.2606
    2DOPE   H3S  167   3.713   4.537  16.449  1.3256 -0.8531 -0.2805
    2DOPE   C24  168   3.790   4.659  16.277  0.1484  0.1410 -0.1550
    2DOPE   H4R  169   3.889   4.609  16.276  0.9921  1.5564  2.2265
    2DOPE   H4S  170   3.809   4.761  16.238  0.7094  0.3372  0.5978
    2DOPE   C25  171   3.709   4.592  16.166  0.3688 -0.7227  0.0175
    2DOPE   H5R  172   3.602   4.615  16.186  1.5122  2.7260  3.3435
    2DOPE   H5S  173   3.719   4.483  16.183  2.5818 -0.3922  1.2637
    2DOPE   C26  174   3.744   4.613  16.019  0.0068 -0.3180  0.2866
    2DOPE   H6R  175   3.839   4.558  16.000 -0.2194 -0.7998  0.5036
    2DOPE   H6S  176   3.742   4.718  15.985  1.0383  0.2298  1.8022
    2DOPE   C27  177   3.644   4.542  15.922  0.0345  0.3424  0.7170
    2DOPE   H7R  178   3.654   4.596  15.825 -1.7933 -0.2977  0.1270
    2DOPE   H7S  179   3.542   4.567  15.959 -0.2461 -0.6258  0.6077
    2DOPE   C28  180   3.647   4.389  15.911  0.3058 -0.3162 -0.3892
    2DOPE   H8R  181   3.547   4.343  15.896  0.1296  0.1916 -0.7783
    2DOPE   H8S  182   3.683   4.332  16.000  0.9178  0.9395  0.2026
    2DOPE   C29  183   3.733   4.349  15.793  0.3925 -0.5287 -0.6209
    2DOPE   H9R  184   3.779   4.440  15.752 -0.4368  1.4753  2.5076
    2DOPE  C210  185   3.773   4.227  15.757 -0.0316  0.1106  0.4186
    2DOPE  H10R  186   3.858   4.227  15.687  0.3285  2.2760  0.7788
    2DOPE  C211  187   3.745   4.095  15.822 -0.2398 -0.2549 -0.5733
    2DOPE  H11R  188   3.658   4.102  15.890 -0.1020 -0.0033 -0.4227
    2DOPE  H11S  189   3.830   4.069  15.889 -0.3145  1.9503  0.4603
    2DOPE  C212  190   3.735   3.970  15.740  0.1304 -0.5637 -0.4732
    2DOPE  H12R  191   3.646   3.976  15.674 -1.5077 -1.0169  1.5778
    2DOPE  H12S  192   3.717   3.892  15.817 -0.6897 -1.5940 -1.6770
    2DOPE  C213  193   3.870   3.938  15.675  0.3747  1.0080  0.4637
    2DOPE  H13R  194   3.955   3.919  15.744 -0.7826 -2.6347  1.0933
    2DOPE  H13S  195   3.891   4.025  15.610 -2.0169  2.2548  1.2445
    2DOPE  C214  196   3.868   3.821  15.574 -0.4927 -0.2300 -0.7982
    2DOPE  H14R  197   3.828   3.737  15.635  0.9519 -1.2631 -1.2116
    2DOPE  H14S  198   3.970   3.790  15.543 -0.2844 -1.9130  1.3151
    2DOPE  C215  199   3.782   3.831  15.455  0.1407  0.1413 -0.8230
    2DOPE  H15R  200   3.809   3.914  15.386 -0.4589  1.8898  0.9454
    2DOPE  H15S  201   3.678   3.848  15.488  0.6091  2.8669 -0.5293
    2DOPE  C216  202   3.775   3.690  15.383  0.0082  0.0555  0.1384
    2DOPE  H16R  203   3.771   3.596  15.442  3.3456 -1.5760 -1.9446
    2DOPE  H16S  204   3.861   3.668  15.318 -0.5316  0.5074 -0.7524
    2DOPE  C217  205   3.653   3.676  15.293 -0.6646 -0.1981 -0.5626
    2DOPE  H17R  206   3.659   3.761  15.221  0.6038 -0.4635 -0.7946
    2DOPE  H17S  207   3.559   3.689  15.351 -2.0608  0.6646 -2.8474
    2DOPE  C218  208   3.646   3.548  15.209  0.3388 -0.3372 -0.2551
    2DOPE  H18R  209   3.737   3.527  15.150 -1.0027 -1.8756 -1.9222
    2DOPE  H18S  210   3.570   3.552  15.127 -0.1412  1.2552  0.2340
    2DOPE  H18T  211   3.633   3.459  15.275  0.0668  0.4536  0.7814
    2DOPE   C33  212   4.370   4.053  16.473  0.5759 -0.1689  0.1759
    2DOPE   H3X  213   4.447   3.979  16.502 -0.2617 -0.8491  0.7282
    2DOPE   H3Y  214   4.387   4.066  16.364 -0.3399 -3.9058 -0.5566
    2DOPE   C34  215   4.240   3.979  16.502  0.1610 -0.3201 -0.4193
    2DOPE   H4X  216   4.224   3.989  16.612  1.9423  0.4745 -0.1983
    2DOPE   H4Y  217   4.152   4.032  16.458  0.7475  1.3697  0.3345
    2DOPE   C35  218   4.248   3.829  16.455  0.0136  0.0246 -0.8360
    2DOPE   H5X  219   4.182   3.773  16.524  2.2901  0.2863  1.7412
    2DOPE   H5Y  220   4.353   3.796  16.469  0.1160  0.5009 -0.4588
    2DOPE   C36  221   4.218   3.802  16.306 -0.2081 -0.1204  0.2442
    2DOPE   H6X  222   4.108   3.816  16.293 -0.4861 -2.9866 -1.4194
    2DOPE   H6Y  223   4.236   3.696  16.278 -1.6019 -0.6878  1.3472
    2DOPE   C37  224   4.293   3.884  16.190 -0.1131 -0.1367 -0.0452
    2DOPE   H7X  225   4.258   3.986  16.217  3.5733  0.5903  2.8018
    2DOPE   H7Y  226   4.402   3.883  16.211 -0.2329 -1.7124  0.6630
    2DOPE   C38  227   4.265   3.827  16.054  0.0006 -0.5211 -0.8481
    2DOPE   H8X  228   4.303   3.724  16.071  1.1073  0.0622  0.2692
    2DOPE   H8Y  229   4.327   3.875  15.975 -0.5091 -0.3699 -1.1680
    2DOPE   C39  230   4.119   3.823  16.019 -0.3771 -0.5785  0.5891
    2DOPE   H9X  231   4.059   3.911  16.045 -0.2009 -0.4654  0.6056
    2DOPE  C310  232   4.069   3.726  15.937 -0.0656 -0.7957 -0.2006
    2DOPE  H10X  233   3.960   3.727  15.921 -0.4043  2.0508  1.5296
    2DOPE  C311  234   4.145   3.615  15.863  0.1053  0.1647  0.7923
    2DOPE  H11X  235   4.237   3.593  15.921  1.6935  0.4823 -1.4795
    2DOPE  H11Y  236   4.079   3.526  15.866  0.0490 -0.0060 -2.5449
    2DOPE  C312  237   4.168   3.642  15.717 -0.1225  0.4273  0.8629
    2DOPE  H12X  238   4.222   3.739  15.706  0.6707 -0.2101 -1.4759
    2DOPE  H12Y  239   4.074   3.649  15.657  0.4004 -2.2034 -0.3784
    2DOPE  C313  240   4.250   3.521  15.659  0.5072 -0.8705  0.5539
    2DOPE  H13X  241   4.342   3.512  15.720  0.5424 -1.3754  0.4333
    2DOPE  H13Y  242   4.186   3.431  15.670  0.5442 -1.4669 -2.9235
    2DOPE  C314  243   4.293   3.537  15.505 -0.1528 -0.1485  0.7322
    2DOPE  H14X  244   4.328   3.434  15.479  1.9380  0.8567 -0.7474
    2DOPE  H14Y  245   4.374   3.612  15.490  0.1673 -0.8471 -1.5393
    2DOPE  C315  246   4.181   3.569  15.405  0.1621  0.0098  0.3533
    2DOPE  H15X  247   4.128   3.665  15.422 -0.6082 -0.5028  0.9004
    2DOPE  H15Y  248   4.096   3.498  15.410 -0.5402  0.9149  1.7098
    2DOPE  C316  249   4.234   3.574  15.256  0.4713  0.0360 -0.0023
    2DOPE  H16X  250   4.263   3.471  15.225  0.7898  0.3647 -0.8318
    2DOPE  H16Y  251   4.324   3.638  15.246  1.1974 -1.1619 -1.7485
    2DOPE  C317  252   4.129   3.613  15.152  0.7251  0.9008  0.4720
    2DOPE  H17X  253   4.055   3.530  15.144 -0.4075  2.0207 -2.0374
    2DOPE  H17Y  254   4.064   3.693  15.194  0.4868  0.7523  0.3950
    2DOPE  C318  255   4.189   3.651  15.014  0.6734 -0.0876 -0.9334
    2DOPE  H18X  256   4.274   3.583  14.994  0.5952 -0.1900 -0.9138
    2DOPE  H18Y  257   4.113   3.645  14.933 -0.8318  0.8199  0.3439
    2DOPE  H18Z  258   4.235   3.751  15.029  1.8775 -0.6330 -0.9331
    3DOPE     N  259   3.084   4.283  17.371  0.2556  0.2615  0.2555
    3DOPE   HN1  260   3.134   4.241  17.452 -0.3971 -1.0714 -0.0014
    3DOPE   HN2  261   2.998   4.225  17.362 -1.4395  2.5249  0.9725
    3DOPE   HN3  262   3.139   4.279  17.283  0.1339  1.1875  0.1260
    3DOPE   C12  263   3.044   4.429  17.389 -0.3044  0.3846 -0.5266
    3DOPE  H12A  264   3.130   4.489  17.424 -0.8682  0.8175  0.1609
    3DOPE  H12B  265   2.957   4.419  17.458  1.8465  0.5886  2.4076
    3DOPE   C11  266   3.006   4.507  17.259  0.4797  0.1186 -0.9775
    3DOPE  H11A  267   2.985   4.612  17.289  1.5335  0.0348  0.0980
    3DOPE  H11B  268   2.916   4.457  17.216 -0.0790 -0.1007  0.3788
    3DOPE     P  269   3.127   4.427  17.041 -0.1810 -0.3712 -0.2408
    3DOPE   O13  270   3.072   4.290  17.064  0.0471 -0.4376  0.3888
    3DOPE   O14  271   3.272   4.429  17.004  0.4737 -0.1414 -0.0984
    3DOPE   O11  272   3.040   4.503  16.925 -0.1608 -0.5547 -0.2994
    3DOPE   O12  273   3.120   4.518  17.172  0.1473 -0.3027  0.2670
    3DOPE    C1  274   3.001   4.641  16.925 -0.3003 -0.2658  0.3153
    3DOPE    HA  275   3.049   4.689  17.013  1.1060 -1.3627  0.1981
    3DOPE    HB  276   2.890   4.639  16.926 -0.2964 -0.5520  0.3110
    3DOPE    C2  277   3.060   4.708  16.801  0.4359 -0.8630  0.1591
    3DOPE    HS  278   3.032   4.814  16.781 -0.5709 -1.3054 -0.8883
    3DOPE   O21  279   2.996   4.637  16.689  0.1674  0.1006 -1.1952
    3DOPE   C21  280   2.875   4.667  16.654 -0.4250  0.0116 -0.1962
    3DOPE   O22  281   2.805   4.758  16.696 -0.6272 -0.2789 -0.5245
    3DOPE   C22  282   2.837   4.558  16.562  0.9045 -0.2882 -0.1382
    3DOPE   H2R  283   2.843   4.458  16.611  0.5715 -0.8173 -1.1314
    3DOPE   H2S  284   2.914   4.552  16.482  0.2600  1.6705 -0.9715
    3DOPE    C3  285   3.214   4.713  16.794 -0.4040 -0.5602  0.0859
    3DOPE    HX  286   3.241   4.606  16.794 -0.9872 -0.7436 -1.8513
    3DOPE    HY  287   3.241   4.762  16.890  0.3429  0.9422 -0.8407
    3DOPE   O31  288   3.260   4.781  16.673 -1.0534  0.5645 -0.5444
    3DOPE   C31  289   3.289   4.711  16.564 -0.2800 -0.7069  0.6198
    3DOPE   O32  290   3.284   4.594  16.552  0.1370  0.0273  0.6203
    3DOPE   C32  291   3.327   4.807  16.450  0.7333 -0.0104  0.0313
    3DOPE   H2X  292   3.275   4.904  16.469 -1.2250 -0.6124 -1.9003
    3DOPE   H2Y  293   3.437   4.817  16.459  1.1883 -1.1727 -3.2235
    3DOPE   C23  294   2.685   4.564  16.514  0.8389  0.0966 -1.1310
    3DOPE   H3R  295   2.667   4.672  16.499  2.8924  0.8772  1.3568
    3DOPE   H3S  296   2.624   4.527  16.599  2.4890 -1.8611 -0.7150
    3DOPE   C24  297   2.670   4.482  16.384  0.3906 -0.2226  0.1129
    3DOPE   H4R  298   2.699   4.375  16.388  0.9862 -0.2150 -2.4672
    3DOPE   H4S  299   2.727   4.539  16.308 -2.1334  2.6394  0.1419
    3DOPE   C25  300   2.523   4.479  16.343 -0.3440  0.0413  0.2452
    3DOPE   H5R  301   2.494   4.586  16.353 -0.6911 -0.0976  0.7920
    3DOPE   H5S  302   2.464   4.424  16.420  0.0222  0.6570  0.9754
    3DOPE   C26  303   2.498   4.426  16.198  0.2740 -0.4441  0.3289
    3DOPE   H6R  304   2.531   4.497  16.119  5.3751 -1.6114  1.1140
    3DOPE   H6S  305   2.387   4.430  16.191  0.2784  2.0637  0.6986
    3DOPE   C27  306   2.560   4.286  16.177  0.0050 -0.6464  0.1308
    3DOPE   H7R  307   2.528   4.221  16.261 -0.4617  2.3117  2.4172
    3DOPE   H7S  308   2.669   4.298  16.195  0.2518  1.3808 -2.1473
    3DOPE   C28  309   2.526   4.221  16.038  0.5949 -0.2171 -0.4415
    3DOPE   H8R  310   2.536   4.302  15.962  1.5161 -0.7068 -0.8673
    3DOPE   H8S  311   2.418   4.195  16.042 -0.1171  2.5611  1.7750
    3DOPE   C29  312   2.602   4.100  16.009  0.1298  0.7539  0.4323
    3DOPE   H9R  313   2.639   4.046  16.097  1.5776  0.7205 -0.1570
    3DOPE  C210  314   2.630   4.060  15.880 -0.3693 -1.1983  0.0274
    3DOPE  H10R  315   2.703   3.980  15.860  1.6598  0.6788 -0.4720
    3DOPE  C211  316   2.569   4.127  15.760  0.5464 -0.3344 -0.4934
    3DOPE  H11R  317   2.464   4.151  15.784 -0.1584 -2.4706 -1.1323
    3DOPE  H11S  318   2.559   4.060  15.671  1.2089  0.0699 -0.8866
    3DOPE  C212  319   2.650   4.245  15.721 -0.7445 -0.3736  0.2611
    3DOPE  H12R  320   2.744   4.201  15.682 -1.0405 -0.1924 -0.6973
    3DOPE  H12S  321   2.665   4.321  15.800 -1.6108 -1.3058  1.3568
    3DOPE  C213  322   2.600   4.313  15.593 -0.5164  0.4679  0.0780
    3DOPE  H13R  323   2.506   4.367  15.621  1.1366  2.1561  2.8781
    3DOPE  H13S  324   2.589   4.233  15.517 -0.4905 -1.2386  1.8004
    3DOPE  C214  325   2.692   4.420  15.531 -0.1128 -0.3938  0.2389
    3DOPE  H14R  326   2.786   4.381  15.486  1.0014  1.6728  0.6311
    3DOPE  H14S  327   2.727   4.489  15.611  1.4008 -0.0725 -0.6517
    3DOPE  C215  328   2.630   4.501  15.418 -0.3948  0.1647 -0.0528
    3DOPE  H15R  329   2.709   4.574  15.391  1.1455 -1.4145  0.0031
    3DOPE  H15S  330   2.541   4.562  15.443  0.1531  1.2334 -0.6455
    3DOPE  C216  331   2.593   4.415  15.295  0.2862  0.2397 -0.1675
    3DOPE  H16R  332   2.567   4.484  15.212 -2.5864 -0.6701 -0.1502
    3DOPE  H16S  333   2.500   4.364  15.329 -0.8515  1.3207 -1.5390
    3DOPE  C217  334   2.692   4.307  15.247 -0.1402 -0.0261 -0.0748
    3DOPE  H17R  335   2.726   4.231  15.321  3.2277  0.3258 -1.0773
    3DOPE  H17S  336   2.787   4.356  15.216  0.9838  0.0252  3.1108
    3DOPE  C218  337   2.638   4.232  15.123  0.1024 -0.0431  0.2421
    3DOPE  H18R  338   2.722   4.186  15.066 -1.0778  1.1923 -2.6859
    3DOPE  H18S  339   2.587   4.296  15.049 -0.5261  1.3629  1.8124
    3DOPE  H18T  340   2.561   4.157  15.151 -0.5201  0.5603  0.1572
    3DOPE   C33  341   3.305   4.775  16.304  0.1038  0.6515 -0.4365
    3DOPE   H3X  342   3.195   4.776  16.295  0.0447 -0.1319  0.1243
    3DOPE   H3Y  343   3.337   4.672  16.279  1.6986  1.0698 -0.2501
    3DOPE   C34  344   3.373   4.869  16.197  0.1333 -0.0152 -0.3569
    3DOPE   H4X  345   3.341   4.974  16.215 -2.6381 -0.5998 -1.4094
    3DOPE   H4Y  346   3.482   4.879  16.214  0.1496 -0.7325 -0.0281
    3DOPE   C35  347   3.366   4.822  16.055  0.3223  0.3799  0.1493
    3DOPE   H5X  348   3.264   4.837  16.013 -0.6433  0.3841  2.3632
    3DOPE   H5Y  349   3.399   4.716  16.053 -1.8960 -0.3649 -1.9962
    3DOPE   C36  350   3.455   4.906  15.952 -0.1634  1.0612 -0.2805
    3DOPE   H6X  351   3.562   4.882  15.970 -0.3812  0.6712  0.5520
    3DOPE   H6Y  352   3.439   5.012  15.982  0.9100  1.6335 -1.6371
    3DOPE   C37  353   3.423   4.861  15.807 -0.0388 -0.4709 -0.1208
    3DOPE   H7X  354   3.420   4.750  15.808  0.3885 -0.4863  1.0013
    3DOPE   H7Y  355   3.317   4.888  15.785  0.1250 -0.4032 -0.8616
    3DOPE   C38  356   3.510   4.916  15.688  0.1593 -0.4949  0.4526
    3DOPE   H8X  357   3.516   5.027  15.681  0.4940 -0.4443  1.3985
    3DOPE   H8Y  358   3.450   4.897  15.597 -0.7615  0.1369  0.9142
    3DOPE   C39  359   3.633   4.841  15.678 -0.7331 -0.2197  0.2691
    3DOPE   H9X  360   3.723   4.885  15.724 -0.5518  1.0981 -1.2795
    3DOPE  C310  361   3.642   4.723  15.613  0.4920 -0.4084  0.4641
    3DOPE  H10X  362   3.742   4.677  15.621 -0.1076 -1.5283  2.3699
    3DOPE  C311  363   3.540   4.648  15.537  0.0390 -0.0783 -0.6482
    3DOPE  H11X  364   3.554   4.538  15.549  2.3134  0.1852 -0.4984
    3DOPE  H11Y  365   3.435   4.676  15.559  0.1989 -0.0369  0.1095
    3DOPE  C312  366   3.550   4.663  15.380 -0.0260 -0.6266 -0.3059
    3DOPE  H12X  367   3.542   4.768  15.344 -0.7547  0.2578  2.2494
    3DOPE  H12Y  368   3.464   4.606  15.338 -1.0390  0.7512 -0.1934
    3DOPE  C313  369   3.681   4.603  15.319  0.4563 -0.9095  0.2202
    3DOPE  H13X  370   3.768   4.662  15.356  0.6387 -0.3420 -1.0722
    3DOPE  H13Y  371   3.679   4.497  15.351 -0.4941 -0.7593  0.6987
    3DOPE  C314  372   3.675   4.600  15.166  0.9483  0.4349 -0.6842
    3DOPE  H14X  373   3.573   4.591  15.124  1.4741 -0.9004 -1.7599
    3DOPE  H14Y  374   3.731   4.511  15.131 -0.2458 -0.9975  0.8645
    3DOPE  C315  375   3.747   4.722  15.097  0.3297  0.1673 -0.8832
    3DOPE  H15X  376   3.854   4.727  15.126  0.3385 -0.7183 -0.7420
    3DOPE  H15Y  377   3.688   4.812  15.124 -0.1987 -0.6627  0.8588
    3DOPE  C316  378   3.724   4.698  14.949  0.0830 -0.1025 -0.1280
    3DOPE  H16X  379   3.615   4.705  14.928  0.2329  2.5995 -0.3441
    3DOPE  H16Y  380   3.757   4.600  14.907  0.8466 -0.0241  0.2707
    3DOPE  C317  381   3.809   4.808  14.869  0.4614  0.5087  0.0715
    3DOPE  H17X  382   3.805   4.903  14.926 -1.4910 -0.0618  0.9803
    3DOPE  H17Y  383   3.916   4.780  14.862  0.4673 -0.0941  1.9323
    3DOPE  C318  384   3.753   4.825  14.733  0.4437  0.3245  0.4469
    3DOPE  H18X  385   3.655   4.878  14.734 -0.2311 -0.8598 -0.3851
    3DOPE  H18Y  386   3.822   4.884  14.669 -0.8582  0.2006 -1.1476
    3DOPE  H18Z  387   3.738   4.726  14.686  1.0667  0.4900 -0.1126
    4DOPE     N  388   5.208   2.798  17.172  0.2931 -0.4138 -0.3922
    4DOPE   HN1  389   5.131   2.856  17.133  0.4892  0.6201  0.6810
    4DOPE   HN2  390   5.178   2.789  17.272 -1.8922 -1.4886 -1.0778
    4DOPE   HN3  391   5.289   2.861  17.160 -0.6035  0.5596 -1.5438
    4DOPE   C12  392   5.224   2.666  17.095 -0.4614  0.3820 -1.3386
    4DOPE  H12A  393   5.315   2.619  17.138  0.2752  2.4792 -0.4744
    4DOPE  H12B  394   5.244   2.700  16.991 -1.7522  2.8361 -0.8779
    4DOPE   C11  395   5.100   2.583  17.120 -0.0771 -0.0480 -0.0756
    4DOPE  H11A  396   5.023   2.632  17.056  0.0093  2.4428  1.5798
    4DOPE  H11B  397   5.068   2.587  17.226  1.6025  0.9255  0.4210
    4DOPE     P  398   4.991   2.357  17.050 -0.1734  0.0234 -0.0484
    4DOPE   O13  399   4.886   2.378  17.149  0.0774 -0.4282 -0.2473
    4DOPE   O14  400   5.031   2.216  17.032 -0.1137  0.3269  0.1761
    4DOPE   O11  401   4.941   2.424  16.911 -0.0101  0.1480 -0.2521
    4DOPE   O12  402   5.121   2.445  17.091 -0.0855 -0.0525  0.2274
    4DOPE    C1  403   5.033   2.457  16.805 -0.0741  0.6226  0.2449
    4DOPE    HA  404   5.129   2.496  16.845  0.5283  1.3060 -1.7536
    4DOPE    HB  405   4.983   2.532  16.741 -2.9768 -2.0368 -0.8388
    4DOPE    C2  406   5.056   2.328  16.726 -0.6839 -0.4931  0.8056
    4DOPE    HS  407   5.124   2.266  16.788 -2.2522 -3.5706 -0.2919
    4DOPE   O21  408   5.113   2.357  16.590 -0.6363 -0.1487  0.0017
    4DOPE   C21  409   5.241   2.386  16.591  0.0923 -0.6046 -0.4722
    4DOPE   O22  410   5.305   2.418  16.694  0.3353 -0.1176 -0.0352
    4DOPE   C22  411   5.301   2.383  16.448  0.2597 -0.1079 -0.2664
    4DOPE   H2R  412   5.407   2.415  16.460  0.0812 -0.2557  2.3207
    4DOPE   H2S  413   5.241   2.454  16.386 -1.0189 -0.0572  0.9692
    4DOPE    C3  414   4.925   2.243  16.715 -0.2253  0.0521 -0.0376
    4DOPE    HX  415   4.845   2.306  16.671 -1.2557 -1.9858 -1.2092
    4DOPE    HY  416   4.896   2.220  16.820 -1.3879  1.5946  0.0146
    4DOPE   O31  417   4.940   2.126  16.640 -0.1132 -0.5483  0.0920
    4DOPE   C31  418   4.836   2.050  16.626 -0.3862  0.4449 -0.9079
    4DOPE   O32  419   4.723   2.079  16.655  0.0705 -0.1779 -0.3728
    4DOPE   C32  420   4.876   1.936  16.531  0.6149  0.5141 -0.0913
    4DOPE   H2X  421   4.975   1.955  16.485  1.1378 -0.8073  0.4484
    4DOPE   H2Y  422   4.878   1.839  16.584  1.0728  1.5449  1.8976
    4DOPE   C23  423   5.297   2.239  16.387 -0.1389  0.2163  0.4719
    4DOPE   H3R  424   5.303   2.161  16.465 -1.7732  0.3964  0.8007
    4DOPE   H3S  425   5.383   2.229  16.317  1.3739  0.1217  2.2658
    4DOPE   C24  426   5.171   2.212  16.307  0.4845  0.0022  0.2606
    4DOPE   H4R  427   5.092   2.274  16.355  1.1289  2.8183 -2.0148
    4DOPE   H4S  428   5.144   2.105  16.317 -0.9701  0.3341  0.1003
    4DOPE   C25  429   5.183   2.249  16.157 -0.0003 -0.5950 -0.3574
    4DOPE   H5R  430   5.283   2.216  16.120  0.5730  1.1304 -0.4285
    4DOPE   H5S  431   5.160   2.357  16.146  0.9552 -0.3588 -0.1301
    4DOPE   C26  432   5.074   2.181  16.080 -0.3675  0.0042 -0.2062
    4DOPE   H6R  433   4.972   2.196  16.121 -0.0376  2.3907 -0.1597
    4DOPE   H6S  434   5.100   2.073  16.079  0.1931  0.1411 -0.6143
    4DOPE   C27  435   5.081   2.213  15.937  0.5135 -0.4888 -0.2064
    4DOPE   H7R  436   5.188   2.212  15.908  0.8613  1.6396  0.8589
    4DOPE   H7S  437   5.056   2.319  15.917  1.0631 -0.1438  0.8328
    4DOPE   C28  438   4.985   2.128  15.850 -0.2839  0.2758  0.1582
    4DOPE   H8R  439   4.881   2.159  15.876 -0.1076 -0.1929  1.4868
    4DOPE   H8S  440   4.999   2.020  15.871 -1.6293  0.1449  0.4656
    4DOPE   C29  441   5.029   2.145  15.704  0.6133  0.5538  0.2162
    4DOPE   H9R  442   5.138   2.136  15.694  0.6038 -2.7146  1.7947
    4DOPE  C210  443   4.964   2.172  15.594 -0.1051 -0.5190 -0.1240
    4DOPE  H10R  444   5.019   2.189  15.501 -0.7889 -1.1618 -0.6573
    4DOPE  C211  445   4.815   2.189  15.571  0.4607  0.0244 -0.2860
    4DOPE  H11R  446   4.801   2.260  15.487  1.7507  1.1425  0.4213
    4DOPE  H11S  447   4.767   2.232  15.662 -3.0108 -1.9430 -1.0002
    4DOPE  C212  448   4.742   2.072  15.525 -0.9722  0.0446  0.1619
    4DOPE  H12R  449   4.634   2.094  15.511 -0.7408  0.8261 -0.4638
    4DOPE  H12S  450   4.752   1.993  15.603  1.1108 -1.8078 -1.8297
    4DOPE  C213  451   4.793   2.018  15.393 -0.6365  0.2916 -0.4924
    4DOPE  H13R  452   4.900   1.989  15.403 -1.1271 -0.9789  1.7316
    4DOPE  H13S  453   4.781   2.095  15.314  1.0992  1.6996  0.5199
    4DOPE  C214  454   4.731   1.884  15.350  0.3260 -0.4562 -1.1701
    4DOPE  H14R  455   4.623   1.906  15.338  0.1982  0.3533  0.9377
    4DOPE  H14S  456   4.753   1.814  15.433  0.7198 -1.0976 -1.8064
    4DOPE  C215  457   4.790   1.835  15.220  1.3019 -0.9360 -0.7237
    4DOPE  H15R  458   4.890   1.794  15.245  0.2801 -2.8362  0.4904
    4DOPE  H15S  459   4.782   1.925  15.155 -0.2426  0.5370  1.3579
    4DOPE  C216  460   4.710   1.728  15.147 -0.6546  0.2098 -0.6461
    4DOPE  H16R  461   4.607   1.766  15.128 -0.8098 -1.3625 -3.5936
    4DOPE  H16S  462   4.700   1.642  15.217 -1.7232  0.0503 -0.9629
    4DOPE  C217  463   4.773   1.673  15.017 -0.7213  0.1405 -0.3525
    4DOPE  H17R  464   4.787   1.763  14.953  1.2179 -1.0498 -1.7118
    4DOPE  H17S  465   4.699   1.596  14.986 -0.5399  0.1905 -0.9268
    4DOPE  C218  466   4.913   1.607  15.036 -0.3934  0.2925  0.8291
    4DOPE  H18R  467   4.959   1.588  14.937  0.9502 -1.3322  1.7178
    4DOPE  H18S  468   4.910   1.512  15.093  1.6240 -1.6927 -2.1019
    4DOPE  H18T  469   4.992   1.672  15.080  0.9954 -0.7379 -0.0606
    4DOPE   C33  470   4.770   1.913  16.419  0.7823 -0.2055  0.0649
    4DOPE   H3X  471   4.670   1.890  16.462  0.3171  1.3041 -0.1218
    4DOPE   H3Y  472   4.804   1.826  16.359  0.6375 -0.6418  0.6065
    4DOPE   C34  473   4.770   2.039  16.323  0.1534  0.6513  0.0834
    4DOPE   H4X  474   4.735   2.128  16.380 -3.2360 -1.1151  1.1035
    4DOPE   H4Y  475   4.865   2.059  16.269 -0.1178 -2.1283 -1.6040
    4DOPE   C35  476   4.656   2.023  16.216  0.5629 -1.2325 -0.7469
    4DOPE   H5X  477   4.558   2.011  16.267  1.1389  0.5381  0.9078
    4DOPE   H5Y  478   4.669   1.938  16.145 -1.8570 -1.1022 -1.4261
    4DOPE   C36  479   4.643   2.149  16.131 -1.0233  0.4515  0.5787
    4DOPE   H6X  480   4.731   2.172  16.068 -1.1491 -0.0694  0.2057
    4DOPE   H6Y  481   4.628   2.234  16.201 -1.0827 -1.3225  2.8424
    4DOPE   C37  482   4.530   2.141  16.021 -0.3067  0.1807  0.0495
    4DOPE   H7X  483   4.543   2.060  15.945 -0.4866  1.5380 -1.4959
    4DOPE   H7Y  484   4.438   2.112  16.075 -0.3361 -0.4977 -0.3470
    4DOPE   C38  485   4.513   2.270  15.937  0.1216 -0.0198 -0.9658
    4DOPE   H8X  486   4.444   2.252  15.852 -0.0299 -1.3842 -0.5865
    4DOPE   H8Y  487   4.614   2.290  15.896  0.6935  0.9512  0.7881
    4DOPE   C39  488   4.461   2.383  16.025  0.5894  0.5721  0.4804
    4DOPE   H9X  489   4.527   2.400  16.112 -0.4493 -0.7169  1.5678
    4DOPE  C310  490   4.361   2.467  15.998  0.5794 -0.5033 -0.0406
    4DOPE  H10X  491   4.334   2.544  16.072 -0.8482 -0.3550 -0.6765
    4DOPE  C311  492   4.267   2.466  15.878 -0.1283 -0.1124  0.3649
    4DOPE  H11X  493   4.280   2.373  15.819  1.3975  0.5295 -0.3959
    4DOPE  H11Y  494   4.163   2.492  15.906  0.1725  2.7771 -0.7526
    4DOPE  C312  495   4.302   2.580  15.776 -0.3822 -0.3219  0.2981
    4DOPE  H12X  496   4.351   2.669  15.822 -0.2263  0.3065 -1.0095
    4DOPE  H12Y  497   4.209   2.623  15.733  0.3010  1.0743  0.1428
    4DOPE  C313  498   4.404   2.536  15.667  0.4688 -0.3824 -0.3171
    4DOPE  H13X  499   4.499   2.501  15.714  0.3767  1.6131  1.5526
    4DOPE  H13Y  500   4.362   2.445  15.619 -0.0489  0.0687 -0.7255
    4DOPE  C314  501   4.441   2.644  15.568 -1.0325 -0.4294  0.6756
    4DOPE  H14X  502   4.508   2.718  15.617  0.4946 -1.1637 -0.2536
    4DOPE  H14Y  503   4.353   2.695  15.522 -1.6455 -1.4222  0.7028
    4DOPE  C315  504   4.511   2.593  15.445  0.0860  0.3724 -0.1453
    4DOPE  H15X  505   4.599   2.533  15.478  0.3735 -0.2104 -1.8765
    4DOPE  H15Y  506   4.543   2.687  15.396  3.4093  0.5575  2.0649
    4DOPE  C316  507   4.422   2.508  15.357  0.1821 -0.1550  0.3872
    4DOPE  H16X  508   4.323   2.555  15.337 -0.5372 -1.7464  0.1194
    4DOPE  H16Y  509   4.389   2.411  15.401 -0.7370 -0.1042 -0.1647
    4DOPE  C317  510   4.480   2.464  15.219 -0.0708 -0.2590  0.5187
    4DOPE  H17X  511   4.403   2.423  15.151 -0.0695  0.3212  0.1599
    4DOPE  H17Y  512   4.526   2.552  15.169 -1.0374  0.3720  0.7087
    4DOPE  C318  513   4.590   2.355  15.230  0.2318  0.3968  0.1755
    4DOPE  H18X  514   4.548   2.253  15.237 -0.9606  0.8340 -0.4736
    4DOPE  H18Y  515   4.678   2.358  15.162  0.8783  1.1492  1.0133
    4DOPE  H18Z  516   4.637   2.376  15.329  0.2694  1.4724 -0.0512
    5DOPE     N  517   1.278   4.779  16.686 -0.1588 -0.0050  1.2615
    5DOPE   HN1  518   1.279   4.721  16.773 -2.0411 -3.3410 -0.7552
    5DOPE   HN2  519   1.237   4.869  16.719  0.8174  0.7439  0.4703
    5DOPE   HN3  520   1.211   4.735  16.620 -0.0806 -2.1112  2.4852
    5DOPE   C12  521   1.413   4.807  16.627  0.0830  0.3627 -0.4518
    5DOPE  H12A  522   1.480   4.816  16.715 -0.6863 -1.0665  0.3213
    5DOPE  H12B  523   1.410   4.897  16.562 -0.7938  0.5120 -0.2081
    5DOPE   C11  524   1.470   4.683  16.540 -0.1273 -0.3922  0.0757
    5DOPE  H11A  525   1.575   4.708  16.513 -0.4618  1.4645  0.3601
    5DOPE  H11B  526   1.411   4.674  16.446 -1.2134 -1.0176  0.7997
    5DOPE     P  527   1.590   4.494  16.673 -0.6470 -0.2126  0.1647
    5DOPE   O13  528   1.561   4.457  16.812  0.2387  0.2998 -0.0743
    5DOPE   O14  529   1.714   4.568  16.647 -0.2194 -0.0462 -0.1420
    5DOPE   O11  530   1.602   4.360  16.590  0.4795  0.7311  0.8140
    5DOPE   O12  531   1.462   4.563  16.617  0.0019 -0.5515  0.0549
    5DOPE    C1  532   1.587   4.374  16.441  0.0467 -0.2525  0.4801
    5DOPE    HA  533   1.658   4.452  16.403  1.2199 -2.6903 -2.8671
    5DOPE    HB  534   1.481   4.389  16.414  0.4224  2.1413  0.0651
    5DOPE    C2  535   1.646   4.246  16.373  0.5050 -0.2696  0.1892
    5DOPE    HS  536   1.577   4.166  16.406 -0.5857  1.2685  1.8287
    5DOPE   O21  537   1.776   4.218  16.421  0.2232  0.4061  0.8559
    5DOPE   C21  538   1.819   4.096  16.406  0.1614  0.0835  0.3635
    5DOPE   O22  539   1.755   4.001  16.365  0.2088 -0.2994  0.2147
    5DOPE   C22  540   1.963   4.091  16.456  0.1390 -0.2066 -0.0271
    5DOPE   H2R  541   1.975   4.014  16.535 -1.3474  1.7248  2.2148
    5DOPE   H2S  542   1.981   4.192  16.500 -1.7496 -0.4703  1.4858
    5DOPE    C3  543   1.641   4.264  16.220 -0.4154 -0.5905 -0.1933
    5DOPE    HX  544   1.715   4.342  16.192 -1.6831  0.6962 -0.0351
    5DOPE    HY  545   1.536   4.293  16.198 -1.2681 -1.6718  2.1652
    5DOPE   O31  546   1.676   4.150  16.147 -0.4633  0.1743 -0.3857
    5DOPE   C31  547   1.583   4.067  16.132  0.0056  0.4134 -0.2460
    5DOPE   O32  548   1.472   4.062  16.182 -0.3233 -0.0515 -0.2907
    5DOPE   C32  549   1.631   3.954  16.043  0.2398  0.4804  0.2009
    5DOPE   H2X  550   1.741   3.952  16.027  0.2623 -0.4742  0.4234
    5DOPE   H2Y  551   1.585   3.862  16.084 -1.3998  1.7093  1.2370
    5DOPE   C23  552   2.063   4.064  16.339  0.4836 -0.0679 -0.2794
    5DOPE   H3R  553   2.056   3.956  16.315  0.8402  0.0721 -1.0359
    5DOPE   H3S  554   2.160   4.080  16.391 -0.0666 -1.8342  1.4483
    5DOPE   C24  555   2.039   4.149  16.208 -0.1124  0.2720  0.5906
    5DOPE   H4R  556   2.036   4.257  16.233  0.2800  0.2755  0.6276
    5DOPE   H4S  557   1.936   4.121  16.177 -0.7219  2.4512  0.5191
    5DOPE   C25  558   2.138   4.106  16.096 -0.5785 -0.3073 -0.0227
    5DOPE   H5R  559   2.174   4.003  16.116  0.7764 -0.3443 -2.4072
    5DOPE   H5S  560   2.234   4.159  16.110  0.4534 -2.1056 -0.0582
    5DOPE   C26  561   2.078   4.126  15.955  0.2559  0.6398 -0.1644
    5DOPE   H6R  562   2.077   4.231  15.919 -2.8937  0.1194 -1.9569
    5DOPE   H6S  563   1.979   4.082  15.930  0.8303  1.0765 -3.7983
    5DOPE   C27  564   2.155   4.050  15.853 -0.0615  0.2787 -0.0593
    5DOPE   H7R  565   2.154   3.939  15.855 -1.6091  0.2170 -1.5773
    5DOPE   H7S  566   2.259   4.084  15.833  0.4008 -1.2883 -0.4655
    5DOPE   C28  567   2.092   4.061  15.704  0.3895  0.1829  0.0187
    5DOPE   H8R  568   1.994   4.009  15.712 -1.2118  2.8699 -0.8086
    5DOPE   H8S  569   2.156   3.995  15.642 -0.4599 -0.3053 -0.3588
    5DOPE   C29  570   2.099   4.209  15.649 -0.0499  0.6610  0.2896
    5DOPE   H9R  571   2.037   4.291  15.688 -1.7582  0.1210 -1.1685
    5DOPE  C210  572   2.186   4.234  15.547  0.0205  0.3693 -1.0020
    5DOPE  H10R  573   2.174   4.334  15.501  1.3095  1.5755  1.1230
    5DOPE  C211  574   2.267   4.137  15.462 -0.5086  0.3997 -0.2363
    5DOPE  H11R  575   2.333   4.060  15.506 -1.5574 -0.9066 -0.8881
    5DOPE  H11S  576   2.338   4.203  15.407  0.1868  0.5381  0.8161
    5DOPE  C212  577   2.187   4.058  15.360 -0.1308 -0.4223  0.7842
    5DOPE  H12R  578   2.107   4.122  15.318  0.4642  0.1806  0.5494
    5DOPE  H12S  579   2.139   3.978  15.421 -2.1652  1.5531  1.9680
    5DOPE  C213  580   2.265   4.005  15.241  0.0409  0.7387  0.0653
    5DOPE  H13R  581   2.341   3.942  15.292  0.2226  1.5474  0.8242
    5DOPE  H13S  582   2.315   4.089  15.188  0.3407  0.1172 -0.6432
    5DOPE  C214  583   2.190   3.922  15.137  0.0650  0.2184  0.0644
    5DOPE  H14R  584   2.144   3.835  15.188  2.9642 -2.2916 -1.2223
    5DOPE  H14S  585   2.258   3.884  15.057 -0.3794  1.3242 -0.8713
    5DOPE  C215  586   2.077   3.999  15.060  0.4580  0.3039  0.7850
    5DOPE  H15R  587   2.121   4.089  15.012 -1.0819  0.7030  0.0477
    5DOPE  H15S  588   2.002   4.037  15.134 -2.3155 -0.1507 -1.6093
    5DOPE  C216  589   1.987   3.924  14.959 -1.0115 -0.0662 -0.0481
    5DOPE  H16R  590   1.966   3.826  15.008  0.0735 -0.0083  0.5593
    5DOPE  H16S  591   2.039   3.900  14.864  1.2766  0.4457  1.0072
    5DOPE  C217  592   1.860   3.992  14.936  0.1139 -0.4878  0.0105
    5DOPE  H17R  593   1.879   4.090  14.886 -0.7260 -0.3417 -0.0468
    5DOPE  H17S  594   1.800   4.017  15.026 -0.0947  2.6909 -0.8655
    5DOPE  C218  595   1.767   3.909  14.843  0.4601  0.1634 -0.5654
    5DOPE  H18R  596   1.822   3.871  14.754  1.0550 -2.0177  0.6343
    5DOPE  H18S  597   1.686   3.976  14.809 -0.0956 -0.0997  0.2053
    5DOPE  H18T  598   1.725   3.826  14.904  2.1705  0.0906  0.6003
    5DOPE   C33  599   1.574   3.957  15.900 -0.3195 -0.4923  0.1879
    5DOPE   H3X  600   1.463   3.970  15.899 -0.3902 -0.8375  1.5032
    5DOPE   H3Y  601   1.594   3.862  15.847  1.6531 -0.5501  0.9315
    5DOPE   C34  602   1.634   4.067  15.800 -0.1279  0.0956  0.3448
    5DOPE   H4X  603   1.624   4.167  15.847  0.8276 -0.0104  0.8052
    5DOPE   H4Y  604   1.740   4.042  15.779 -0.5620  0.2580 -2.3073
    5DOPE   C35  605   1.551   4.081  15.671  0.0607 -0.9697 -0.2155
    5DOPE   H5X  606   1.444   4.102  15.691  0.8172  1.0360  2.2831
    5DOPE   H5Y  607   1.549   3.984  15.615  4.0130 -2.2794  1.5704
    5DOPE   C36  608   1.621   4.179  15.573 -0.2654  0.4242  0.9638
    5DOPE   H6X  609   1.612   4.147  15.467 -0.6173  1.2392  0.7438
    5DOPE   H6Y  610   1.732   4.187  15.585  0.1046 -2.8733  0.8489
    5DOPE   C37  611   1.565   4.323  15.585 -0.5801 -0.0252  0.0389
    5DOPE   H7X  612   1.456   4.341  15.582 -0.3971  2.5317  3.0550
    5DOPE   H7Y  613   1.599   4.363  15.683 -0.7021  0.6184 -0.1785
    5DOPE   C38  614   1.622   4.416  15.474 -0.1157 -0.3815  0.1307
    5DOPE   H8X  615   1.729   4.396  15.454 -0.6404 -0.9289 -2.4701
    5DOPE   H8Y  616   1.611   4.522  15.505  1.2665 -0.1889  0.0344
    5DOPE   C39  617   1.536   4.395  15.354  0.8840 -0.4357  0.0435
    5DOPE   H9X  618   1.441   4.450  15.360  1.9088  1.3657  0.4810
    5DOPE  C310  619   1.562   4.323  15.239  0.4703  0.2515 -0.3418
    5DOPE  H10X  620   1.478   4.293  15.175  2.5640 -0.9969 -2.6742
    5DOPE  C311  621   1.687   4.246  15.205  0.5375 -0.3964 -0.3419
    5DOPE  H11X  622   1.742   4.222  15.299 -1.4540 -2.1873  0.4414
    5DOPE  H11Y  623   1.657   4.146  15.170 -1.2980  0.8883 -2.7222
    5DOPE  C312  624   1.770   4.317  15.096 -0.5192  0.3279  0.6608
    5DOPE  H12X  625   1.859   4.253  15.076 -1.0234 -0.0543 -0.4424
    5DOPE  H12Y  626   1.814   4.409  15.141 -0.7238  0.7336  0.0366
    5DOPE  C313  627   1.697   4.354  14.964 -0.0993  0.5348 -0.6265
    5DOPE  H13X  628   1.628   4.281  14.916 -0.3677  0.7358 -0.5409
    5DOPE  H13Y  629   1.627   4.437  14.985 -1.9500 -0.9635 -0.6729
    5DOPE  C314  630   1.791   4.395  14.848  0.4354 -0.5877 -0.0170
    5DOPE  H14X  631   1.864   4.312  14.835 -1.5502 -2.4505  0.0559
    5DOPE  H14Y  632   1.844   4.487  14.879  1.0778 -1.0881  0.3989
    5DOPE  C315  633   1.719   4.415  14.711  0.8107 -0.0646 -0.4423
    5DOPE  H15X  634   1.636   4.488  14.712  1.1760  0.4510 -2.7282
    5DOPE  H15Y  635   1.670   4.317  14.692  0.3596  0.2978 -1.1887
    5DOPE  C316  636   1.817   4.464  14.607 -0.3566  0.2073 -0.1211
    5DOPE  H16X  637   1.885   4.386  14.567  1.0335  0.4487  1.6576
    5DOPE  H16Y  638   1.879   4.546  14.649 -0.7437 -0.5516  2.0299
    5DOPE  C317  639   1.750   4.533  14.486  0.6403 -0.1267 -0.0040
    5DOPE  H17X  640   1.683   4.454  14.445  0.9896 -0.3703 -0.1088
    5DOPE  H17Y  641   1.692   4.616  14.532  1.3659  0.3857 -0.0077
    5DOPE  C318  642   1.844   4.595  14.385  0.1588  0.4656  0.5043
    5DOPE  H18X  643   1.793   4.649  14.302  3.1047  0.6307 -1.3631
    5DOPE  H18Y  644   1.912   4.672  14.426  0.4834  0.3713  0.1532
    5DOPE  H18Z  645   1.903   4.509  14.345  0.2077  0.8048 -0.1767
    6DOPE     N  646   3.049   4.027  16.931 -0.3866  0.0032 -0.5230
    6DOPE   HN1  647   3.060   4.099  17.005  1.6509  0.6501 -1.3588
    6DOPE   HN2  648   2.986   3.948  16.953 -0.9531 -0.0944 -2.3423
    6DOPE   HN3  649   3.139   3.980  16.908 -0.4729 -0.3303 -0.1816
    6DOPE   C12  650   2.989   4.093  16.809 -0.1302  0.7071  0.5507
    6DOPE  H12A  651   3.065   4.165  16.771  1.8639 -0.1213  2.7467
    6DOPE  H12B  652   2.890   4.136  16.836 -0.8763 -1.5501  1.5611
    6DOPE   C11  653   2.972   3.987  16.702  0.0120 -0.0800 -0.4145
    6DOPE  H11A  654   3.073   3.949  16.675 -0.0553  0.5494 -1.6301
    6DOPE  H11B  655   2.931   4.035  16.610 -3.5637 -4.0358 -1.2124
    6DOPE     P  656   2.742   3.865  16.701 -0.0581 -0.1339 -0.1284
    6DOPE   O13  657   2.666   3.976  16.757  0.2923 -0.3676  0.7403
    6DOPE   O14  658   2.699   3.726  16.733  0.7378  0.2260 -0.3483
    6DOPE   O11  659   2.753   3.883  16.544  0.3672  0.2309 -0.4540
    6DOPE   O12  660   2.889   3.882  16.743 -0.2317 -0.0385 -0.6530
    6DOPE    C1  661   2.644   3.911  16.460  0.1396 -0.0786  0.3317
    6DOPE    HA  662   2.671   3.904  16.353  0.3153 -0.2740  0.3862
    6DOPE    HB  663   2.603   4.014  16.470 -1.6077 -0.8316  1.5667
    6DOPE    C2  664   2.517   3.818  16.462 -0.2567 -0.2494 -0.2416
    6DOPE    HS  665   2.479   3.807  16.566 -0.1610  0.3175 -0.1479
    6DOPE   O21  666   2.552   3.683  16.411 -0.4218  0.2278 -0.1614
    6DOPE   C21  667   2.488   3.582  16.465  0.3636 -0.0475  0.2100
    6DOPE   O22  668   2.378   3.599  16.522  0.8232  0.3440 -0.9335
    6DOPE   C22  669   2.566   3.448  16.445 -1.3202  0.3610  0.2190
    6DOPE   H2R  670   2.502   3.357  16.441  0.4367 -0.9372  0.4741
    6DOPE   H2S  671   2.627   3.432  16.536  1.0617 -2.1671 -1.6589
    6DOPE    C3  672   2.402   3.886  16.374 -0.5251  0.3824  0.4967
    6DOPE    HX  673   2.392   3.989  16.412 -2.9713  0.2340  0.4045
    6DOPE    HY  674   2.304   3.841  16.400  0.1235 -0.8647  0.8859
    6DOPE   O31  675   2.418   3.876  16.231 -0.0282  0.4244  0.5205
    6DOPE   C31  676   2.398   3.758  16.174  0.1258  0.6533  0.7819
    6DOPE   O32  677   2.341   3.660  16.226 -0.2370 -0.3276  0.0338
    6DOPE   C32  678   2.437   3.768  16.030  0.5435  0.1610 -0.0232
    6DOPE   H2X  679   2.450   3.872  15.994  1.3045 -0.8688 -3.0415
    6DOPE   H2Y  680   2.529   3.708  16.015 -0.1892 -0.3982 -2.9154
    6DOPE   C23  681   2.666   3.448  16.326  0.0915 -0.3763  0.0094
    6DOPE   H3R  682   2.753   3.388  16.360 -0.2832 -1.4562 -0.8865
    6DOPE   H3S  683   2.707   3.550  16.308  0.5430 -0.4804  0.3995
    6DOPE   C24  684   2.612   3.393  16.195  0.0099 -0.2189  0.1754
    6DOPE   H4R  685   2.523   3.439  16.148  0.7027 -0.7747 -1.7661
    6DOPE   H4S  686   2.598   3.283  16.202  0.3883 -0.2698  0.1707
    6DOPE   C25  687   2.719   3.406  16.083 -0.5876 -0.8207  0.2377
    6DOPE   H5R  688   2.819   3.364  16.106 -1.0886 -1.7341  0.7934
    6DOPE   H5S  689   2.742   3.515  16.078  0.8963 -1.1620 -0.8953
    6DOPE   C26  690   2.666   3.343  15.950 -0.1950 -0.7865 -0.0122
    6DOPE   H6R  691   2.746   3.356  15.874 -0.6799  1.1797 -0.2272
    6DOPE   H6S  692   2.590   3.411  15.907 -1.4290  0.2635  3.4791
    6DOPE   C27  693   2.623   3.197  15.952  0.2910  0.5689 -0.1996
    6DOPE   H7R  694   2.534   3.173  16.014  1.0945 -0.3729  0.6348
    6DOPE   H7S  695   2.708   3.155  16.010 -1.5982 -1.3895  1.3332
    6DOPE   C28  696   2.622   3.127  15.810  0.6886  0.1630  0.1865
    6DOPE   H8R  697   2.588   3.022  15.822 -1.8374  1.0312  1.4365
    6DOPE   H8S  698   2.727   3.113  15.778  0.4695 -1.4090  0.0949
    6DOPE   C29  699   2.517   3.194  15.717 -0.1104  0.3154  0.1161
    6DOPE   H9R  700   2.415   3.173  15.752 -0.0594 -0.8847 -0.3966
    6DOPE  C210  701   2.551   3.261  15.603  0.3415  0.1757 -0.2568
    6DOPE  H10R  702   2.469   3.306  15.545  1.1904  0.6303 -1.1130
    6DOPE  C211  703   2.689   3.288  15.556  0.2143 -0.3105 -0.0355
    6DOPE  H11R  704   2.764   3.284  15.638  0.0819 -0.8682  0.0589
    6DOPE  H11S  705   2.676   3.396  15.534  1.7924  0.9501  4.1562
    6DOPE  C212  706   2.745   3.202  15.438  0.0365 -0.1875 -0.0624
    6DOPE  H12R  707   2.736   3.092  15.452 -2.5811 -0.0744 -0.3143
    6DOPE  H12S  708   2.855   3.218  15.447 -0.0188 -0.6878  2.0702
    6DOPE  C213  709   2.701   3.249  15.297 -0.2002 -0.4618 -0.0831
    6DOPE  H13R  710   2.730   3.356  15.298 -0.7067 -0.2758  2.9169
    6DOPE  H13S  711   2.593   3.236  15.277 -0.6941  2.2169  0.4830
    6DOPE  C214  712   2.769   3.175  15.179 -0.2250 -0.2602 -0.0832
    6DOPE  H14R  713   2.737   3.071  15.157  1.4181 -0.5864 -1.0931
    6DOPE  H14S  714   2.880   3.179  15.187 -0.2979  3.3730  0.8139
    6DOPE  C215  715   2.739   3.243  15.047 -0.9477 -0.8319  0.0029
    6DOPE  H15R  716   2.629   3.247  15.036 -0.8462 -0.2413 -0.9013
    6DOPE  H15S  717   2.777   3.165  14.979  0.1525 -1.2223  1.0215
    6DOPE  C216  718   2.808   3.387  15.021 -0.2332 -0.5260 -0.0112
    6DOPE  H16R  719   2.916   3.363  15.007 -0.0746  0.2047 -0.0498
    6DOPE  H16S  720   2.799   3.449  15.113  2.2827 -0.5564  0.3456
    6DOPE  C217  721   2.759   3.458  14.898 -0.0202 -0.3091  0.7203
    6DOPE  H17R  722   2.820   3.551  14.900 -0.5115  0.0286  0.3058
    6DOPE  H17S  723   2.654   3.493  14.907 -0.2687 -1.2201  1.6503
    6DOPE  C218  724   2.780   3.391  14.763  0.4747  0.0535  0.5468
    6DOPE  H18R  725   2.885   3.360  14.743 -0.0258 -1.0298 -0.5095
    6DOPE  H18S  726   2.762   3.471  14.688 -1.0084 -0.6802  0.0740
    6DOPE  H18T  727   2.719   3.302  14.739  1.9874 -0.3792 -2.0998
    6DOPE   C33  728   2.336   3.697  15.930  0.2747 -0.1494  0.5257
    6DOPE   H3X  729   2.234   3.738  15.947 -0.4954 -0.5342 -2.5287
    6DOPE   H3Y  730   2.324   3.591  15.960 -1.5196 -0.1885 -0.1681
    6DOPE   C34  731   2.392   3.712  15.789  0.0293  0.6377  0.1115
    6DOPE   H4X  732   2.376   3.817  15.755 -0.0850  0.5020 -0.2634
    6DOPE   H4Y  733   2.500   3.691  15.771 -0.0087  1.4944 -1.3231
    6DOPE   C35  734   2.308   3.630  15.683  0.0354 -0.3274 -0.7909
    6DOPE   H5X  735   2.201   3.659  15.693 -0.0707 -1.2578  1.1685
    6DOPE   H5Y  736   2.312   3.522  15.706  0.1731  0.0266  0.9514
    6DOPE   C36  737   2.363   3.642  15.538 -0.0404 -0.5667  0.4686
    6DOPE   H6X  738   2.454   3.579  15.527 -0.3182 -1.0389  0.8060
    6DOPE   H6Y  739   2.396   3.746  15.518 -1.0698 -0.2625  0.2856
    6DOPE   C37  740   2.257   3.613  15.440  0.0343 -0.4223 -0.2144
    6DOPE   H7X  741   2.173   3.681  15.465  0.1544 -0.0092 -0.9344
    6DOPE   H7Y  742   2.286   3.634  15.335 -2.4853  2.3978 -0.4654
    6DOPE   C38  743   2.178   3.477  15.444  0.1980  0.9122 -0.0037
    6DOPE   H8X  744   2.081   3.495  15.392 -0.6263 -1.3444  0.6535
    6DOPE   H8Y  745   2.159   3.454  15.551  0.3905  0.6632 -0.0249
    6DOPE   C39  746   2.251   3.359  15.386 -1.0462 -0.1392  0.1246
    6DOPE   H9X  747   2.352   3.378  15.347 -1.7285  0.8858 -1.2280
    6DOPE  C310  748   2.212   3.230  15.387 -0.3011 -0.7674 -0.4576
    6DOPE  H10X  749   2.281   3.151  15.356 -1.2024 -1.7201 -0.0828
    6DOPE  C311  750   2.084   3.173  15.435  0.9847  0.6697 -0.1728
    6DOPE  H11X  751   1.997   3.241  15.442 -0.6326 -1.3407  0.0951
    6DOPE  H11Y  752   2.051   3.100  15.358 -2.0203 -0.4782  2.0007
    6DOPE  C312  753   2.091   3.119  15.578  0.4361 -0.4459 -0.2514
    6DOPE  H12X  754   2.178   3.050  15.575  1.8253  1.2612 -0.8719
    6DOPE  H12Y  755   1.993   3.079  15.613  0.1000  0.5164 -0.0585
    6DOPE  C313  756   2.121   3.226  15.695  0.7149  0.3686 -0.3277
    6DOPE  H13X  757   2.208   3.289  15.669  0.1921  0.7943 -1.0731
    6DOPE  H13Y  758   2.032   3.292  15.706  1.6004  1.9067 -1.9720
    6DOPE  C314  759   2.145   3.151  15.829 -0.1812  0.4993  0.4242
    6DOPE  H14X  760   2.218   3.070  15.808 -1.2550 -0.0717 -1.2858
    6DOPE  H14Y  761   2.050   3.098  15.850 -0.6197  0.5908 -1.2046
    6DOPE  C315  762   2.178   3.254  15.940  0.2593  0.3008  0.2762
    6DOPE  H15X  763   2.087   3.316  15.956 -0.0824  0.2621 -1.3720
    6DOPE  H15Y  764   2.259   3.321  15.905  0.4945 -0.7095 -1.2066
    6DOPE  C316  765   2.216   3.174  16.071  0.9668 -0.7736  0.2408
    6DOPE  H16X  766   2.311   3.117  16.070  0.8164 -1.0139 -0.9703
    6DOPE  H16Y  767   2.130   3.103  16.079 -0.3421  0.8206  0.8714
    6DOPE  C317  768   2.195   3.270  16.190 -0.3949 -0.3764 -0.1308
    6DOPE  H17X  769   2.286   3.333  16.192 -0.8663  0.2975  0.1561
    6DOPE  H17Y  770   2.113   3.342  16.170  0.9217  0.6261 -2.2356
    6DOPE  C318  771   2.164   3.200  16.318 -0.2943  1.0671 -0.4360
    6DOPE  H18X  772   2.250   3.131  16.334  0.9449  1.7661 -3.4320
    6DOPE  H18Y  773   2.162   3.261  16.411  1.5563  1.9320 -0.9107
    6DOPE  H18Z  774   2.068   3.145  16.313  0.5824 -0.6633  0.6459
    7DOPE     N  775   4.938   4.987  17.236  0.6663  0.6718 -0.2580
    7DOPE   HN1  776   4.913   5.066  17.299 -0.9805 -1.0829  1.4358
    7DOPE   HN2  777   4.913   5.006  17.136  0.6439  1.3917 -0.1258
    7DOPE   HN3  778   4.876   4.913  17.274 -1.3843  1.5307 -1.6961
    7DOPE   C12  779   5.080   4.943  17.224 -0.4027  0.4185 -0.3590
    7DOPE  H12A  780   5.102   4.866  17.301  0.8103 -0.3450 -1.4217
    7DOPE  H12B  781   5.140   5.032  17.252  0.2354  0.0589 -0.5441
    7DOPE   C11  782   5.123   4.902  17.081  0.5101  0.1380 -0.1490
    7DOPE  H11A  783   5.061   4.817  17.044 -0.1593  0.8418 -0.6823
    7DOPE  H11B  784   5.229   4.869  17.081  0.4764  0.0269  0.0210
    7DOPE     P  785   4.990   5.037  16.898  0.0738 -0.0361 -0.2043
    7DOPE   O13  786   5.021   5.160  16.820  0.0410 -0.4627  0.3648
    7DOPE   O14  787   4.864   5.040  16.982 -0.7233  0.0853  0.4312
    7DOPE   O11  788   5.005   4.901  16.820 -0.0936 -0.3575  0.0918
    7DOPE   O12  789   5.112   5.016  16.995  0.7493 -0.0485  0.5168
    7DOPE    C1  790   5.093   4.893  16.707  0.0419  0.5305 -0.5130
    7DOPE    HA  791   5.159   4.805  16.722 -2.8188 -1.8798 -0.9760
    7DOPE    HB  792   5.147   4.986  16.680  0.9940 -0.4184 -1.9920
    7DOPE    C2  793   5.014   4.858  16.574  0.3441  0.4176 -0.0166
    7DOPE    HS  794   5.081   4.863  16.485 -1.1243  1.7179 -1.0869
    7DOPE   O21  795   4.896   4.937  16.561 -1.1642 -0.0766  0.1144
    7DOPE   C21  796   4.927   5.049  16.503  0.1801  0.3759  0.6070
    7DOPE   O22  797   5.039   5.092  16.474  0.2937  0.0378 -0.8668
    7DOPE   C22  798   4.798   5.133  16.484 -0.2990  0.6703  0.1526
    7DOPE   H2R  799   4.770   5.181  16.580  1.2791 -1.4575  1.7726
    7DOPE   H2S  800   4.714   5.064  16.463  0.1360 -0.8640  3.0145
    7DOPE    C3  801   4.968   4.709  16.582  0.0329 -0.0028 -0.0191
    7DOPE    HX  802   4.870   4.708  16.635 -0.2910  0.1123 -0.6084
    7DOPE    HY  803   5.036   4.659  16.655  0.3410 -0.0164 -0.3174
    7DOPE   O31  804   4.973   4.638  16.459 -0.0625 -0.8368  0.0124
    7DOPE   C31  805   4.906   4.529  16.456  0.2282 -0.3125 -1.0403
    7DOPE   O32  806   4.843   4.480  16.551  0.1320  0.2323 -0.0132
    7DOPE   C32  807   4.907   4.467  16.318 -0.2587  0.5737  0.2083
    7DOPE   H2X  808   4.865   4.537  16.243  0.9912  0.5145 -0.5731
    7DOPE   H2Y  809   5.009   4.443  16.280 -1.4763 -0.5412 -2.6275
    7DOPE   C23  810   4.813   5.242  16.367  0.2523 -0.2571 -0.6006
    7DOPE   H3R  811   4.902   5.303  16.397  0.4210 -1.6905  2.1221
    7DOPE   H3S  812   4.726   5.310  16.357 -0.9814 -1.1245  2.9353
    7DOPE   C24  813   4.823   5.179  16.228 -0.5360  0.4949 -0.4537
    7DOPE   H4R  814   4.740   5.110  16.201 -1.3261  1.9637 -1.9167
    7DOPE   H4S  815   4.913   5.115  16.221 -0.3536  0.8280 -1.1958
    7DOPE   C25  816   4.820   5.292  16.126 -0.5447  0.4847 -0.2398
    7DOPE   H5R  817   4.743   5.363  16.162  0.2126  1.0110  0.3733
    7DOPE   H5S  818   4.792   5.252  16.026 -0.3893 -1.3061  0.3994
    7DOPE   C26  819   4.963   5.363  16.131 -0.1743 -0.5480  0.4966
    7DOPE   H6R  820   5.030   5.282  16.095 -1.8327 -1.9166  0.3592
    7DOPE   H6S  821   4.984   5.387  16.238 -1.6965  0.8746  0.5257
    7DOPE   C27  822   4.983   5.491  16.042  0.2913 -0.1440 -0.2869
    7DOPE   H7R  823   5.081   5.544  16.047 -1.0747  2.4202  1.1213
    7DOPE   H7S  824   4.918   5.569  16.087  0.0260  0.9993 -2.5387
    7DOPE   C28  825   4.935   5.468  15.891  0.0904 -0.1614 -0.0490
    7DOPE   H8R  826   4.833   5.423  15.895 -0.0734  0.2765  1.4673
    7DOPE   H8S  827   4.991   5.390  15.836  0.2102 -1.0994  1.3501
    7DOPE   C29  828   4.909   5.598  15.812 -0.2486  0.4749 -0.2462
    7DOPE   H9R  829   4.843   5.675  15.855  1.3649  2.1824 -0.6783
    7DOPE  C210  830   4.939   5.619  15.685 -0.5282  0.4223  0.5047
    7DOPE  H10R  831   4.911   5.714  15.637  1.2016  0.7065  0.0043
    7DOPE  C211  832   5.033   5.549  15.588 -0.0337  0.1648 -0.3829
    7DOPE  H11R  833   5.055   5.448  15.626  0.6706  0.8742  1.1615
    7DOPE  H11S  834   5.130   5.602  15.584  1.2540 -2.0387  0.3636
    7DOPE  C212  835   4.984   5.562  15.447  0.0410  0.5194  0.1948
    7DOPE  H12R  836   5.050   5.512  15.373  0.0458  1.2039 -0.2748
    7DOPE  H12S  837   4.980   5.669  15.417  0.1819  0.4059 -0.2384
    7DOPE  C213  838   4.841   5.505  15.426 -0.2059 -0.4503 -0.4783
    7DOPE  H13R  839   4.782   5.569  15.494 -0.2324 -0.0952 -0.8300
    7DOPE  H13S  840   4.837   5.406  15.475 -2.1624 -0.8245 -1.2896
    7DOPE  C214  841   4.786   5.499  15.285  0.1226 -0.3961 -0.0170
    7DOPE  H14R  842   4.827   5.579  15.220  0.7200 -0.2668  0.5101
    7DOPE  H14S  843   4.675   5.505  15.292  0.0473 -1.2385 -0.3120
    7DOPE  C215  844   4.826   5.368  15.219 -0.6439  0.3923  0.1289
    7DOPE  H15R  845   4.797   5.285  15.288 -0.0943 -0.4992 -0.6830
    7DOPE  H15S  846   4.937   5.355  15.212 -0.5747 -0.1064  1.6877
    7DOPE  C216  847   4.761   5.346  15.072 -0.4129 -0.2690 -0.8344
    7DOPE  H16R  848   4.755   5.443  15.018 -0.2253 -0.6545 -1.5674
    7DOPE  H16S  849   4.658   5.308  15.090  0.3414 -1.8042  0.5816
    7DOPE  C217  850   4.844   5.238  14.997  0.4453 -0.5786 -0.0260
    7DOPE  H17R  851   4.943   5.280  14.972  0.2781 -0.6203 -0.8112
    7DOPE  H17S  852   4.805   5.232  14.893 -2.7897 -1.3515  1.0983
    7DOPE  C218  853   4.861   5.101  15.070  0.1968 -0.3956  0.0519
    7DOPE  H18R  854   4.910   5.026  15.004 -0.5222 -1.2157  0.4144
    7DOPE  H18S  855   4.763   5.063  15.106  0.8637 -1.8015  0.4523
    7DOPE  H18T  856   4.936   5.121  15.150  2.2065  0.9647 -2.0525
    7DOPE   C33  857   4.826   4.335  16.310 -0.0828  0.1567  0.4291
    7DOPE   H3X  858   4.724   4.338  16.354 -0.9022  1.4837 -1.4299
    7DOPE   H3Y  859   4.893   4.256  16.349 -0.2195 -1.2032 -1.9344
    7DOPE   C34  860   4.797   4.294  16.160  0.2803 -0.2655  0.0385
    7DOPE   H4X  861   4.724   4.369  16.124  0.0840  0.8252  2.4683
    7DOPE   H4Y  862   4.888   4.304  16.097  1.0156  2.5024  1.3488
    7DOPE   C35  863   4.740   4.155  16.153  0.5506 -0.2903  0.4034
    7DOPE   H5X  864   4.644   4.152  16.209  1.5156 -0.5932  2.1066
    7DOPE   H5Y  865   4.815   4.082  16.191  0.8052  0.3255  1.0963
    7DOPE   C36  866   4.706   4.138  16.003 -0.0716  0.3656 -0.4798
    7DOPE   H6X  867   4.800   4.166  15.949  0.7592 -1.1589  0.1039
    7DOPE   H6Y  868   4.634   4.220  15.981 -0.4250 -0.0671 -0.9719
    7DOPE   C37  869   4.658   3.998  15.951  0.4756 -0.1431 -0.0655
    7DOPE   H7X  870   4.717   3.916  15.996  1.4132 -0.2552 -1.4469
    7DOPE   H7Y  871   4.553   3.978  15.981  0.6925 -2.1454 -0.5241
    7DOPE   C38  872   4.671   3.995  15.798  0.1669  1.0870 -0.2046
    7DOPE   H8X  873   4.776   4.009  15.765 -0.3662  1.6639 -1.7561
    7DOPE   H8Y  874   4.621   4.085  15.757 -0.9733  0.4425 -0.2483
    7DOPE   C39  875   4.598   3.881  15.737 -0.0397  0.6777 -0.1897
    7DOPE   H9X  876   4.498   3.864  15.780  0.7594 -1.4895  0.9611
    7DOPE  C310  877   4.651   3.789  15.656  0.6014  0.1508  0.3027
    7DOPE  H10X  878   4.580   3.723  15.603  1.1499 -1.7453  1.7866
    7DOPE  C311  879   4.788   3.782  15.592  0.2544 -0.0271 -0.1972
    7DOPE  H11X  880   4.854   3.866  15.621  0.3884 -0.7584  1.7077
    7DOPE  H11Y  881   4.827   3.688  15.635 -2.2745 -1.2073 -0.2523
    7DOPE  C312  882   4.779   3.792  15.431  0.2154 -0.0493  0.2442
    7DOPE  H12X  883   4.723   3.882  15.401  0.2125 -0.1840 -0.1636
    7DOPE  H12Y  884   4.722   3.707  15.388 -0.0156  0.2718 -0.0912
    7DOPE  C313  885   4.914   3.788  15.356 -0.1965 -0.1428 -0.7688
    7DOPE  H13X  886   4.961   3.885  15.382 -1.1391  0.7604 -2.2968
    7DOPE  H13Y  887   4.981   3.709  15.396  0.0291  0.7702  0.7351
    7DOPE  C314  888   4.897   3.789  15.203 -0.2781  0.6039 -0.1934
    7DOPE  H14X  889   4.798   3.828  15.172  0.0365  1.2086 -0.4635
    7DOPE  H14Y  890   4.897   3.683  15.170  0.4660  0.0850  1.3733
    7DOPE  C315  891   5.019   3.863  15.137  0.8842 -0.2640  0.1858
    7DOPE  H15X  892   5.106   3.808  15.178  1.8485 -0.4063 -1.9084
    7DOPE  H15Y  893   5.011   3.968  15.174  0.7543 -0.6826  1.3679
    7DOPE  C316  894   5.029   3.861  14.986  0.3661  0.5071  0.8059
    7DOPE  H16X  895   4.941   3.918  14.948  0.4473 -0.3818 -0.8204
    7DOPE  H16Y  896   5.029   3.756  14.951  2.5151  0.5083  0.6732
    7DOPE  C317  897   5.148   3.934  14.923 -0.3943  0.4912  0.0221
    7DOPE  H17X  898   5.242   3.879  14.944 -0.4314 -0.1094 -1.2683
    7DOPE  H17Y  899   5.126   3.928  14.814 -1.2264  0.8814  0.1612
    7DOPE  C318  900   5.164   4.078  14.971  1.3030  0.2534 -0.0517
    7DOPE  H18X  901   5.196   4.084  15.077  3.4245  1.8783 -0.7255
    7DOPE  H18Y  902   5.242   4.132  14.913  1.4092  2.4812  2.0480
    7DOPE  H18Z  903   5.078   4.146  14.955  0.4041 -0.6190  0.8940
    8DOPE     N  904   5.543   4.284  17.299 -0.6008  0.6143 -0.1820
    8DOPE   HN1  905   5.524   4.193  17.346  2.8505 -0.8371 -1.2593
    8DOPE   HN2  906   5.485   4.296  17.214  1.3509 -0.5779 -1.7708
    8DOPE   HN3  907   5.641   4.296  17.266  0.0781 -1.7395  0.7715
    8DOPE   C12  908   5.511   4.399  17.396  0.0142  0.9734 -0.1636
    8DOPE  H12A  909   5.485   4.490  17.338 -0.5183  1.9607  1.5808
    8DOPE  H12B  910   5.586   4.412  17.477 -0.4130 -0.1346  0.4278
    8DOPE   C11  911   5.383   4.362  17.476 -0.1279 -0.0289  0.1811
    8DOPE  H11A  912   5.359   4.459  17.525 -0.1712 -0.8067  1.7870
    8DOPE  H11B  913   5.406   4.284  17.553 -2.0174 -1.1908 -0.3744
    8DOPE     P  914   5.147   4.241  17.437 -0.0905  0.0404  0.3686
    8DOPE   O13  915   5.090   4.315  17.550  0.1942 -0.1855 -0.5342
    8DOPE   O14  916   5.177   4.098  17.453  0.2672 -0.4807 -0.0619
    8DOPE   O11  917   5.049   4.259  17.312  0.0080 -0.1171 -0.2620
    8DOPE   O12  918   5.277   4.319  17.391 -0.1088  0.2401 -0.3737
    8DOPE    C1  919   5.054   4.160  17.207  0.0465 -0.4800  0.3240
    8DOPE    HA  920   4.962   4.166  17.146  0.0682  3.3971  0.4275
    8DOPE    HB  921   5.043   4.057  17.248 -0.4934 -1.1001 -1.3205
    8DOPE    C2  922   5.173   4.175  17.116  0.0040  0.0843  0.4002
    8DOPE    HS  923   5.265   4.165  17.177 -0.1991  0.9291  0.8533
    8DOPE   O21  924   5.158   4.304  17.057 -0.0820 -0.5819  0.1625
    8DOPE   C21  925   5.269   4.376  17.047  0.8578  0.7281 -0.1708
    8DOPE   O22  926   5.371   4.356  17.108 -0.2241 -0.5395  0.6144
    8DOPE   C22  927   5.259   4.470  16.934 -0.4822  0.0910 -0.3191
    8DOPE   H2R  928   5.235   4.573  16.965 -0.1799  0.3080 -0.7800
    8DOPE   H2S  929   5.183   4.437  16.859  2.2948 -1.0462 -2.8637
    8DOPE    C3  930   5.184   4.064  17.008  0.1868  0.1746  0.0328
    8DOPE    HX  931   5.095   4.062  16.942  1.7245 -0.2056 -2.1274
    8DOPE    HY  932   5.191   3.972  17.069 -2.9576 -0.2831 -0.1571
    8DOPE   O31  933   5.311   4.081  16.938  0.0463 -0.5948  0.5361
    8DOPE   C31  934   5.366   3.987  16.869  0.5056  0.3288 -0.6168
    8DOPE   O32  935   5.336   3.867  16.879 -0.2664 -0.6881  0.4988
    8DOPE   C32  936   5.477   4.030  16.778  0.9946  0.5634  0.1133
    8DOPE   H2X  937   5.500   3.950  16.705  0.3578  0.8884 -0.4542
    8DOPE   H2Y  938   5.432   4.120  16.730 -0.8165 -0.7970 -0.8441
    8DOPE   C23  939   5.384   4.485  16.848 -0.2922  0.6682  0.1505
    8DOPE   H3R  940   5.426   4.392  16.804 -1.7560 -0.5221  1.1597
    8DOPE   H3S  941   5.462   4.531  16.912 -1.1276  0.7951  1.0854
    8DOPE   C24  942   5.367   4.579  16.729 -0.9123  0.2807 -0.3348
    8DOPE   H4R  943   5.333   4.678  16.766 -2.3442  0.4643 -2.0107
    8DOPE   H4S  944   5.288   4.553  16.655  1.1073  1.8249 -3.2265
    8DOPE   C25  945   5.497   4.622  16.653 -0.2340 -0.6813 -0.2283
    8DOPE   H5R  946   5.554   4.530  16.627  1.0671  0.3642 -1.2231
    8DOPE   H5S  947   5.563   4.671  16.728 -0.5152 -1.9241  0.8858
    8DOPE   C26  948   5.467   4.712  16.531 -0.4276  0.0420 -0.5106
    8DOPE   H6R  949   5.427   4.811  16.562 -1.4683  0.7992 -3.8629
    8DOPE   H6S  950   5.391   4.669  16.462 -0.4815 -2.4354  0.9543
    8DOPE   C27  951   5.598   4.737  16.453  0.1340 -0.6689 -0.2720
    8DOPE   H7R  952   5.639   4.634  16.453 -0.5681 -0.9664 -1.4393
    8DOPE   H7S  953   5.681   4.792  16.503  0.8140  0.8101 -2.8130
    8DOPE   C28  954   5.572   4.791  16.315  0.3107  0.3554 -0.3029
    8DOPE   H8R  955   5.512   4.709  16.270  2.6382 -2.1497  0.8743
    8DOPE   H8S  956   5.661   4.800  16.251  0.0353  1.3499 -0.5596
    8DOPE   C29  957   5.506   4.925  16.304 -0.3309  0.3470  0.0062
    8DOPE   H9R  958   5.565   5.002  16.356 -3.2112  1.6298  1.6001
    8DOPE  C210  959   5.395   4.959  16.240 -0.3128 -0.6166 -0.0742
    8DOPE  H10R  960   5.362   5.064  16.236 -1.6926 -1.0637 -1.5903
    8DOPE  C211  961   5.303   4.869  16.166 -0.0946  0.3425  0.0937
    8DOPE  H11R  962   5.303   4.765  16.203  0.3234  0.3088  0.0089
    8DOPE  H11S  963   5.339   4.864  16.061 -1.2171 -1.2594 -0.2407
    8DOPE  C212  964   5.159   4.929  16.149  0.0714 -0.2527  0.1927
    8DOPE  H12R  965   5.179   5.023  16.092  2.0625 -0.5601  0.3440
    8DOPE  H12S  966   5.119   4.956  16.249  0.7015 -1.0718  0.6709
    8DOPE  C213  967   5.051   4.839  16.090 -0.7668 -0.0689 -0.1856
    8DOPE  H13R  968   4.959   4.900  16.080 -1.7713 -1.4728  0.2054
    8DOPE  H13S  969   5.030   4.761  16.166  1.1196  0.0744  0.5325
    8DOPE  C214  970   5.086   4.769  15.960 -0.4204  0.1107 -0.0622
    8DOPE  H14R  971   5.003   4.701  15.931  0.0471 -0.8552  0.7994
    8DOPE  H14S  972   5.169   4.700  15.985 -1.4801 -1.9156 -1.7906
    8DOPE  C215  973   5.118   4.874  15.854  0.3060  0.0524  0.3319
    8DOPE  H15R  974   5.224   4.906  15.858  0.0118  1.3552 -1.1028
    8DOPE  H15S  975   5.063   4.966  15.885 -0.3235 -0.8184  1.9161
    8DOPE  C216  976   5.078   4.830  15.711 -0.7041  0.5095 -0.6127
    8DOPE  H16R  977   4.978   4.783  15.725 -0.0766 -0.4437  0.9339
    8DOPE  H16S  978   5.149   4.755  15.670 -0.1326  1.4001 -1.2815
    8DOPE  C217  979   5.059   4.940  15.605 -0.0924  0.8867  0.7409
    8DOPE  H17R  980   5.139   5.017  15.595 -0.7186  2.0688  3.8552
    8DOPE  H17S  981   4.966   4.992  15.636 -0.1173  0.2250  1.8193
    8DOPE  C218  982   5.041   4.875  15.467 -0.2065 -0.0066  0.6540
    8DOPE  H18R  983   5.022   4.948  15.386  0.8979 -1.6371 -1.1565
    8DOPE  H18S  984   4.947   4.816  15.466 -0.9843  1.1975 -0.0616
    8DOPE  H18T  985   5.129   4.824  15.423 -1.4654 -0.7068 -1.1306
    8DOPE   C33  986   5.606   4.069  16.853 -0.5727 -0.5970  0.1719
    8DOPE   H3X  987   5.672   3.979  16.857 -0.0214 -0.2959 -1.2897
    8DOPE   H3Y  988   5.580   4.093  16.958  0.3298  2.5654 -0.2062
    8DOPE   C34  989   5.673   4.195  16.793 -0.6779  0.7404  0.5764
    8DOPE   H4X  990   5.651   4.204  16.685  0.8651  1.6129  0.3063
    8DOPE   H4Y  991   5.640   4.291  16.839 -2.3778  1.5989 -2.2196
    8DOPE   C35  992   5.828   4.182  16.805  0.0730 -0.3042  0.4006
    8DOPE   H5X  993   5.873   4.096  16.752 -0.5468  0.3175 -1.1809
    8DOPE   H5Y  994   5.847   4.161  16.913 -0.4354 -1.6374  0.2404
    8DOPE   C36  995   5.901   4.316  16.775  0.2996  0.6289  0.1930
    8DOPE   H6X  996   5.990   4.298  16.839  0.5295 -1.3268 -0.6008
    8DOPE   H6Y  997   5.838   4.401  16.807 -3.4794 -2.6399  2.4204
    8DOPE   C37  998   5.952   4.334  16.631  0.2579 -0.2232  0.1006
    8DOPE   H7X  999   5.985   4.233  16.601  0.1575 -1.0070  2.4431
    8DOPE   H7Y 1000   5.868   4.363  16.564  0.3554 -2.0010 -0.8401
    8DOPE   C38 1001   6.065   4.441  16.621 -0.1577 -0.1129  0.6766
    8DOPE   H8X 1002   6.099   4.452  16.516  0.9544 -0.1104  1.0224
    8DOPE   H8Y 1003   6.152   4.402  16.678 -0.1025  0.7052  1.1685
    8DOPE   C39 1004   6.015   4.571  16.686  0.1656  0.1959  0.6752
    8DOPE   H9X 1005   6.029   4.588  16.794 -0.1193  0.9175  0.6030
    8DOPE  C310 1006   5.962   4.664  16.603 -0.4955  0.4453 -0.6754
    8DOPE  H10X 1007   5.910   4.753  16.641 -0.3998  0.4786 -0.6213
    8DOPE  C311 1008   5.951   4.667  16.453 -0.1514  0.3594 -0.4835
    8DOPE  H11X 1009   5.930   4.566  16.412  1.7755 -0.0420 -0.5632
    8DOPE  H11Y 1010   5.877   4.734  16.404  1.7852  0.6329 -3.2790
    8DOPE  C312 1011   6.075   4.732  16.393  0.2026 -0.2967  0.1981
    8DOPE  H12X 1012   6.169   4.675  16.404  0.1662 -0.6585 -1.1471
    8DOPE  H12Y 1013   6.089   4.831  16.442 -0.9050  2.1017 -3.7917
    8DOPE  C313 1014   6.062   4.766  16.242 -0.6745 -0.6210 -0.8227
    8DOPE  H13X 1015   6.009   4.683  16.191 -0.4197 -0.5369 -1.2345
    8DOPE  H13Y 1016   5.988   4.848  16.229  1.8564  1.9401 -0.2135
    8DOPE  C314 1017   6.197   4.782  16.171  0.1246  0.4968 -0.0130
    8DOPE  H14X 1018   6.264   4.701  16.207  0.1618  0.5310 -0.0062
    8DOPE  H14Y 1019   6.242   4.880  16.199 -1.2123  1.1688 -0.1204
    8DOPE  C315 1020   6.190   4.755  16.021 -0.2513 -0.4618  0.1005
    8DOPE  H15X 1021   6.132   4.836  15.970  1.5084  1.0291  0.3418
    8DOPE  H15Y 1022   6.151   4.653  16.001  2.7230 -1.7297  0.2861
    8DOPE  C316 1023   6.334   4.754  15.958  0.6743  0.2831 -0.8559
    8DOPE  H16X 1024   6.401   4.677  16.002  1.7778  0.9699 -1.3037
    8DOPE  H16Y 1025   6.370   4.858  15.972 -0.9382  0.8377 -0.5473
    8DOPE  C317 1026   6.326   4.720  15.810 -0.1895  0.2543  0.3065
    8DOPE  H17X 1027   6.427   4.695  15.772 -0.5429  1.5214 -1.5976
    8DOPE  H17Y 1028   6.259   4.633  15.796  0.1177  0.0042  0.3893
    8DOPE  C318 1029   6.272   4.829  15.710 -0.1937  0.3545  0.5001
    8DOPE  H18X 1030   6.273   4.777  15.611  3.4927 -0.5520  0.8491
    8DOPE  H18Y 1031   6.344   4.914  15.701 -0.8951  1.2556  2.7352
    8DOPE  H18Z 1032   6.169   4.866  15.728  0.4277  3.2497 -1.2444
    9DOPE     N 1033   0.827   4.202  16.497 -0.5309 -0.3505 -0.1332
    9DOPE   HN1 1034   0.785   4.219  16.403 -0.2115  2.4969  0.1469
    9DOPE   HN2 1035   0.925   4.233  16.484 -0.6479 -0.7471 -2.4611
    9DOPE   HN3 1036   0.820   4.104  16.530 -1.9805  0.0453  0.8160
    9DOPE   C12 1037   0.752   4.298  16.593  0.5937  0.3471  0.0120
    9DOPE  H12A 1038   0.800   4.273  16.690  1.1481  2.2658  0.2896
    9DOPE  H12B 1039   0.649   4.258  16.596  0.4084  0.8499  2.3080
    9DOPE   C11 1040   0.770   4.447  16.544  0.2999 -0.2016  0.2358
    9DOPE  H11A 1041   0.719   4.502  16.626 -1.4076 -1.1916 -0.1176
    9DOPE  H11B 1042   0.721   4.469  16.447 -0.8221  0.6279  0.9772
    9DOPE     P 1043   0.962   4.626  16.520  0.1179 -0.1885  0.3855
    9DOPE   O13 1044   1.111   4.623  16.525 -0.4106  0.2704  0.2678
    9DOPE   O14 1045   0.895   4.699  16.627  0.4533  0.4618 -0.3253
    9DOPE   O11 1046   0.923   4.672  16.372  0.2698 -0.4348 -0.1622
    9DOPE   O12 1047   0.908   4.477  16.529 -0.3867  0.4442 -0.0340
    9DOPE    C1 1048   0.949   4.592  16.250  0.0552  0.2084 -0.0996
    9DOPE    HA 1049   0.855   4.587  16.191 -1.4778  1.0996  2.1200
    9DOPE    HB 1050   0.969   4.487  16.279 -3.5212 -0.7954 -0.8248
    9DOPE    C2 1051   1.070   4.640  16.169  1.3386 -0.5798  0.1923
    9DOPE    HS 1052   1.035   4.734  16.122  0.6114 -0.6870  0.5044
    9DOPE   O21 1053   1.085   4.540  16.066  0.7511  0.0486  0.3277
    9DOPE   C21 1054   1.109   4.582  15.940 -0.0773  1.3182  0.2638
    9DOPE   O22 1055   1.092   4.697  15.908  0.2068 -0.2051  0.7096
    9DOPE   C22 1056   1.149   4.463  15.849  0.1272 -0.2899  0.1376
    9DOPE   H2R 1057   1.115   4.368  15.895 -0.0885 -0.7737 -0.9823
    9DOPE   H2S 1058   1.259   4.452  15.847  0.0030 -1.7703  0.4688
    9DOPE    C3 1059   1.203   4.661  16.255 -0.8088  0.0672  0.0871
    9DOPE    HX 1060   1.213   4.569  16.316 -1.9416 -0.7185 -0.8827
    9DOPE    HY 1061   1.170   4.738  16.328 -1.1090 -0.6879  0.7673
    9DOPE   O31 1062   1.317   4.707  16.184 -0.2792 -1.0222 -0.1103
    9DOPE   C31 1063   1.411   4.616  16.153  0.6005  0.0326  0.4473
    9DOPE   O32 1064   1.407   4.497  16.169 -0.5540  0.2748 -0.7432
    9DOPE   C32 1065   1.540   4.680  16.095 -0.4257 -0.2131  0.3108
    9DOPE   H2X 1066   1.519   4.785  16.065  0.6953 -0.4382 -1.3786
    9DOPE   H2Y 1067   1.617   4.665  16.174 -0.7374 -1.6910  0.3536
    9DOPE   C23 1068   1.083   4.470  15.702 -0.4357 -0.2328 -0.0971
    9DOPE   H3R 1069   1.099   4.571  15.659 -0.5499 -1.6003 -3.6448
    9DOPE   H3S 1070   0.975   4.459  15.724 -0.6783  1.6531 -0.1802
    9DOPE   C24 1071   1.127   4.368  15.598  0.5695 -0.0475  0.6579
    9DOPE   H4R 1072   1.130   4.269  15.649  1.2911  0.9330  2.6104
    9DOPE   H4S 1073   1.231   4.397  15.572  0.1298  0.0304 -1.0714
    9DOPE   C25 1074   1.036   4.371  15.470  0.0779  0.1365  0.7950
    9DOPE   H5R 1075   1.066   4.458  15.408  2.3173 -1.8144 -1.0413
    9DOPE   H5S 1076   0.927   4.373  15.491  0.1682  0.1443  1.2689
    9DOPE   C26 1077   1.059   4.249  15.370 -0.2677 -1.0089  0.2482
    9DOPE   H6R 1078   0.990   4.285  15.291  0.6268 -1.0136 -0.5539
    9DOPE   H6S 1079   1.022   4.148  15.400  0.6978 -2.1826 -2.2433
    9DOPE   C27 1080   1.205   4.229  15.321 -0.3405 -0.2451 -0.0925
    9DOPE   H7R 1081   1.262   4.181  15.404 -1.7212 -0.2787  0.8821
    9DOPE   H7S 1082   1.253   4.326  15.295 -1.0796  0.2688  0.3879
    9DOPE   C28 1083   1.215   4.131  15.201  0.2714 -0.0768  0.4625
    9DOPE   H8R 1084   1.195   4.194  15.111 -0.5689  1.8278  1.9225
    9DOPE   H8S 1085   1.133   4.058  15.213  1.2265 -1.4852 -1.1211
    9DOPE   C29 1086   1.343   4.053  15.194  0.8768 -0.0864 -0.3236
    9DOPE   H9R 1087   1.419   4.048  15.273  0.6906 -0.6751 -0.1751
    9DOPE  C210 1088   1.381   3.984  15.086 -0.0653  0.0123 -0.1357
    9DOPE  H10R 1089   1.464   3.912  15.095 -0.5476 -0.4065  1.1190
    9DOPE  C211 1090   1.291   3.970  14.960  0.1813  0.8027  0.4666
    9DOPE  H11R 1091   1.350   3.992  14.868 -1.3483  0.6052 -0.5987
    9DOPE  H11S 1092   1.195   4.026  14.956 -0.2299  0.0536 -1.4302
    9DOPE  C212 1093   1.262   3.819  14.955 -0.1707  0.0723  0.1714
    9DOPE  H12R 1094   1.210   3.785  15.047 -1.5528  1.5757 -0.0189
    9DOPE  H12S 1095   1.356   3.761  14.965 -0.6904 -0.9381 -0.5850
    9DOPE  C213 1096   1.207   3.769  14.821 -0.3167  0.5578 -0.0548
    9DOPE  H13R 1097   1.191   3.660  14.831 -2.0342  0.8821  1.2839
    9DOPE  H13S 1098   1.291   3.790  14.752  0.7857  0.1124  1.1168
    9DOPE  C214 1099   1.084   3.830  14.751  0.0431  0.0606 -0.4907
    9DOPE  H14R 1100   1.091   3.940  14.741  0.8138  0.3153  2.1263
    9DOPE  H14S 1101   1.011   3.804  14.831  0.3964  0.0958 -0.1567
    9DOPE  C215 1102   1.059   3.773  14.610  0.1105  0.6363  0.3261
    9DOPE  H15R 1103   1.047   3.663  14.622  1.7859  0.2326 -1.2686
    9DOPE  H15S 1104   1.155   3.794  14.557  0.4310  4.0327  1.9819
    9DOPE  C216 1105   0.928   3.829  14.542 -0.4763 -0.6653 -0.4658
    9DOPE  H16R 1106   0.950   3.932  14.505 -0.5306 -0.3549  0.3369
    9DOPE  H16S 1107   0.839   3.838  14.608  0.1637 -0.9041  0.4487
    9DOPE  C217 1108   0.892   3.750  14.413 -0.3485 -0.1926 -0.0366
    9DOPE  H17R 1109   0.880   3.644  14.446 -0.0973 -0.4110 -0.6414
    9DOPE  H17S 1110   0.975   3.752  14.341 -1.4151 -1.8285 -1.3840
    9DOPE  C218 1111   0.769   3.805  14.336  0.1577 -0.1125  0.2341
    9DOPE  H18R 1112   0.780   3.909  14.299  0.9520 -0.1528  0.3362
    9DOPE  H18S 1113   0.681   3.802  14.405 -0.1650 -2.1562 -0.1903
    9DOPE  H18T 1114   0.749   3.748  14.243 -3.6450  4.1678 -1.9723
    9DOPE   C33 1115   1.586   4.599  15.973  0.2351  0.3654  0.7362
    9DOPE   H3X 1116   1.501   4.579  15.903 -0.6888 -1.0489  2.1883
    9DOPE   H3Y 1117   1.617   4.494  15.995  1.2803  1.2049  3.6845
    9DOPE   C34 1118   1.701   4.672  15.898 -0.1316 -0.1781 -0.5907
    9DOPE   H4X 1119   1.694   4.781  15.914 -0.3974 -0.3760  0.6969
    9DOPE   H4Y 1120   1.782   4.642  15.968 -1.5847 -0.8774  0.8484
    9DOPE   C35 1121   1.729   4.618  15.757  0.2975  0.4299  0.2315
    9DOPE   H5X 1122   1.648   4.643  15.685  0.0963 -0.0137  0.2941
    9DOPE   H5Y 1123   1.730   4.506  15.760 -0.8171  0.4104  0.4719
    9DOPE   C36 1124   1.857   4.685  15.690 -0.0058 -0.2156 -0.0040
    9DOPE   H6X 1125   1.938   4.665  15.763  0.2788  2.7739  0.6566
    9DOPE   H6Y 1126   1.848   4.796  15.683 -1.0519 -0.2880  0.0636
    9DOPE   C37 1127   1.875   4.618  15.550 -0.3248 -0.0572  0.1282
    9DOPE   H7X 1128   1.868   4.510  15.575 -0.7117  0.2356  1.3739
    9DOPE   H7Y 1129   1.790   4.639  15.483 -0.0839 -2.6531 -1.1484
    9DOPE   C38 1130   2.013   4.643  15.493  0.0864  0.7069  1.0210
    9DOPE   H8X 1131   2.026   4.551  15.433  0.9535  1.6687 -0.3228
    9DOPE   H8Y 1132   2.083   4.624  15.577  0.3294 -1.0603  0.4588
    9DOPE   C39 1133   2.025   4.773  15.420  0.2599  0.0894  0.4671
    9DOPE   H9X 1134   1.947   4.851  15.426 -0.0274 -0.1291 -0.2780
    9DOPE  C310 1135   2.136   4.807  15.353  0.4306 -0.1837  0.1262
    9DOPE  H10X 1136   2.140   4.909  15.310 -1.2895  0.1590  0.6780
    9DOPE  C311 1137   2.260   4.713  15.324  0.7368 -0.2285  0.0017
    9DOPE  H11X 1138   2.361   4.761  15.328  0.7778 -0.1731 -1.3335
    9DOPE  H11Y 1139   2.250   4.631  15.399  1.1925 -0.3315 -0.0435
    9DOPE  C312 1140   2.252   4.648  15.190 -0.1415  0.3534  0.5172
    9DOPE  H12X 1141   2.356   4.611  15.191  0.6039  2.0565 -2.4625
    9DOPE  H12Y 1142   2.250   4.719  15.104  0.6607  0.2738  0.4273
    9DOPE  C313 1143   2.155   4.530  15.181 -0.5994  0.1518 -0.4161
    9DOPE  H13X 1144   2.155   4.462  15.270  0.4976 -0.6608 -1.0169
    9DOPE  H13Y 1145   2.059   4.584  15.169 -1.1994 -1.0030 -0.9554
    9DOPE  C314 1146   2.165   4.454  15.049  0.6486 -0.7285 -0.1065
    9DOPE  H14X 1147   2.083   4.380  15.040  0.1766 -0.1428 -0.7372
    9DOPE  H14Y 1148   2.256   4.391  15.056  2.6271  2.0741  1.1225
    9DOPE  C315 1149   2.177   4.547  14.929 -0.2339 -0.5707 -0.3836
    9DOPE  H15X 1150   2.275   4.599  14.937 -0.0608 -1.0616  0.9527
    9DOPE  H15Y 1151   2.102   4.627  14.946  1.6938  1.0546  0.9211
    9DOPE  C316 1152   2.189   4.484  14.792  1.0314 -0.0397 -0.1223
    9DOPE  H16X 1153   2.185   4.560  14.711 -0.9022  0.6946  0.6113
    9DOPE  H16Y 1154   2.109   4.407  14.786  0.9033  0.1502 -0.9693
    9DOPE  C317 1155   2.313   4.396  14.764 -0.5964 -0.3408  0.3988
    9DOPE  H17X 1156   2.408   4.446  14.793 -1.6202  0.4977  2.5526
    9DOPE  H17Y 1157   2.320   4.312  14.838  2.9571 -0.3947  0.1812
    9DOPE  C318 1158   2.317   4.345  14.629 -0.1608  0.3625  0.4135
    9DOPE  H18X 1159   2.393   4.265  14.613  0.4177  0.7906  0.9544
    9DOPE  H18Y 1160   2.221   4.297  14.602  1.1755 -1.5236 -1.3014
    9DOPE  H18Z 1161   2.343   4.425  14.556 -1.3146  1.1118  0.8012
   10DOPE     N 1162   2.733   5.193  16.790 -0.1767 -0.1404  0.0843
   10DOPE   HN1 1163   2.819   5.165  16.738 -2.1899 -1.4052 -2.8193
   10DOPE   HN2 1164   2.675   5.107  16.797  1.2421 -1.1311  0.1852
   10DOPE   HN3 1165   2.673   5.255  16.733 -0.3239 -1.8135 -1.6888
   10DOPE   C12 1166   2.764   5.250  16.927  0.1034 -0.8430 -0.3720
   10DOPE  H12A 1167   2.849   5.319  16.907 -2.1319  1.5695 -2.2303
   10DOPE  H12B 1168   2.803   5.161  16.981  0.4154 -0.6194 -0.2249
   10DOPE   C11 1169   2.632   5.306  16.979 -0.0886  1.4195  0.3465
   10DOPE  H11A 1170   2.593   5.399  16.931 -1.7033  2.4550  3.3929
   10DOPE  H11B 1171   2.658   5.334  17.083  0.3530  0.3853  0.5205
   10DOPE     P 1172   2.374   5.247  16.939 -0.3688  0.1946  0.0618
   10DOPE   O13 1173   2.312   5.355  17.018  0.2912 -0.1097  0.0651
   10DOPE   O14 1174   2.298   5.125  16.929  0.2112 -0.2657 -0.5840
   10DOPE   O11 1175   2.392   5.287  16.788 -0.1389  0.2034  0.4662
   10DOPE   O12 1176   2.525   5.210  16.979  0.0744 -0.1442  0.1416
   10DOPE    C1 1177   2.272   5.320  16.715  0.1469 -0.0110 -0.0503
   10DOPE    HA 1178   2.295   5.408  16.652 -1.1142 -0.5297 -1.2806
   10DOPE    HB 1179   2.194   5.351  16.787  2.3938  2.0575  1.6874
   10DOPE    C2 1180   2.221   5.204  16.628  1.0920  0.1979  0.1656
   10DOPE    HS 1181   2.232   5.108  16.684  2.3951  0.5990  0.6363
   10DOPE   O21 1182   2.309   5.189  16.510  0.1632 -0.0755  0.0092
   10DOPE   C21 1183   2.302   5.072  16.448  0.0322 -0.1055 -0.5356
   10DOPE   O22 1184   2.224   4.980  16.473  0.0610  0.6750  0.0681
   10DOPE   C22 1185   2.411   5.075  16.339  0.8597 -0.0242  0.0129
   10DOPE   H2R 1186   2.487   5.152  16.364  1.0165 -0.3557  0.5924
   10DOPE   H2S 1187   2.373   5.109  16.241 -0.6075 -0.8403  0.2646
   10DOPE    C3 1188   2.071   5.224  16.593 -0.5585 -0.2872 -0.1159
   10DOPE    HX 1189   2.001   5.196  16.676 -1.1391 -0.2847 -0.5960
   10DOPE    HY 1190   2.042   5.143  16.523  1.8281 -2.9552  1.7661
   10DOPE   O31 1191   2.050   5.354  16.539  0.0107  0.2393 -0.0012
   10DOPE   C31 1192   1.937   5.412  16.574 -0.7418 -0.4678  0.1963
   10DOPE   O32 1193   1.854   5.366  16.641  0.0973  0.6271  0.1864
   10DOPE   C32 1194   1.928   5.548  16.506  0.1297 -0.5667 -0.1718
   10DOPE   H2X 1195   1.885   5.624  16.574  0.3575 -1.1932  0.7034
   10DOPE   H2Y 1196   2.031   5.585  16.484 -0.0012 -0.9911 -1.5770
   10DOPE   C23 1197   2.482   4.941  16.330 -0.1141  0.3001  0.0070
   10DOPE   H3R 1198   2.415   4.874  16.272  0.5319  0.2020 -0.6496
   10DOPE   H3S 1199   2.495   4.898  16.431  0.5608  1.0445  0.2559
   10DOPE   C24 1200   2.622   4.959  16.264 -0.5863  0.1540  0.2503
   10DOPE   H4R 1201   2.679   5.037  16.318  0.3126  0.1749 -0.7225
   10DOPE   H4S 1202   2.607   4.985  16.158  1.4812  1.2334  0.1888
   10DOPE   C25 1203   2.709   4.830  16.277 -0.1037  0.1500 -0.0981
   10DOPE   H5R 1204   2.648   4.738  16.286  0.5727 -0.2821  0.1585
   10DOPE   H5S 1205   2.790   4.838  16.353  1.1695 -1.5429 -1.1877
   10DOPE   C26 1206   2.785   4.817  16.144 -0.6739 -0.6324 -0.1162
   10DOPE   H6R 1207   2.814   4.921  16.115 -3.5998  0.1326 -0.6909
   10DOPE   H6S 1208   2.716   4.776  16.067 -0.7775 -0.7810  0.0547
   10DOPE   C27 1209   2.910   4.726  16.145 -0.0849  0.6416  0.5519
   10DOPE   H7R 1210   2.879   4.626  16.181 -0.2181  0.0467 -1.0946
   10DOPE   H7S 1211   2.980   4.777  16.214 -0.3177  0.0748  1.2112
   10DOPE   C28 1212   2.988   4.710  16.015  0.0827  0.0110  0.0852
   10DOPE   H8R 1213   3.094   4.684  16.037 -0.1965 -0.8698  0.4434
   10DOPE   H8S 1214   2.997   4.802  15.954 -0.7707  0.1849  0.2135
   10DOPE   C29 1215   2.925   4.598  15.934 -0.6936 -0.6627 -0.6902
   10DOPE   H9R 1216   2.829   4.561  15.974  0.8360 -3.4659  0.7243
   10DOPE  C210 1217   2.982   4.546  15.832  0.2458 -0.1673  0.6710
   10DOPE  H10R 1218   2.933   4.465  15.776  2.5925 -1.1739 -0.0777
   10DOPE  C211 1219   3.120   4.592  15.777  0.7161  0.5674 -1.1350
   10DOPE  H11R 1220   3.187   4.505  15.759 -1.1713 -1.2463  0.1587
   10DOPE  H11S 1221   3.181   4.652  15.848  0.5526  0.1009 -0.5969
   10DOPE  C212 1222   3.106   4.673  15.646  0.0650  0.0463 -0.0743
   10DOPE  H12R 1223   3.186   4.750  15.653  0.5336 -0.1740 -2.3310
   10DOPE  H12S 1224   3.018   4.741  15.636  1.7097  2.3482  0.2947
   10DOPE  C213 1225   3.119   4.580  15.522  0.5080  0.5435 -0.8164
   10DOPE  H13R 1226   3.032   4.512  15.508  0.8285 -0.3451  1.2875
   10DOPE  H13S 1227   3.208   4.518  15.546 -0.2357 -0.0052  0.6305
   10DOPE  C214 1228   3.120   4.655  15.390  0.2664 -0.4321 -0.1744
   10DOPE  H14R 1229   3.187   4.743  15.401 -1.5410  1.1026 -0.8413
   10DOPE  H14S 1230   3.023   4.702  15.361 -0.1736 -0.8985  0.5015
   10DOPE  C215 1231   3.164   4.566  15.267  0.0003 -0.5263 -0.3979
   10DOPE  H15R 1232   3.247   4.505  15.309  0.1206  0.1802  0.4110
   10DOPE  H15S 1233   3.207   4.628  15.186  2.9229  0.0582  1.4562
   10DOPE  C216 1234   3.062   4.480  15.199 -0.4392  0.0026  0.4363
   10DOPE  H16R 1235   2.972   4.533  15.162 -0.0621 -1.4374 -2.9205
   10DOPE  H16S 1236   3.030   4.408  15.278 -0.9933  0.3383  0.5279
   10DOPE  C217 1237   3.108   4.418  15.063 -0.0764 -0.1820 -0.0576
   10DOPE  H17R 1238   3.205   4.368  15.082  1.1313  1.9183 -0.3091
   10DOPE  H17S 1239   3.127   4.504  14.995  1.9548 -0.4911  0.0492
   10DOPE  C218 1240   3.014   4.326  14.996  0.5193 -0.6731 -0.1831
   10DOPE  H18R 1241   2.914   4.372  14.981  0.8868 -0.2565 -1.5384
   10DOPE  H18S 1242   2.990   4.242  15.064  1.7879  0.3894  1.6453
   10DOPE  H18T 1243   3.049   4.294  14.895  2.6388  0.4832  0.1293
   10DOPE   C33 1244   1.861   5.544  16.365  0.4751  0.4812 -0.8455
   10DOPE   H3X 1245   1.765   5.488  16.371  0.8129 -0.0113  0.0281
   10DOPE   H3Y 1246   1.930   5.485  16.301 -0.8832 -1.2417 -0.7667
   10DOPE   C34 1247   1.825   5.683  16.304 -1.4694 -0.1935 -0.1514
   10DOPE   H4X 1248   1.752   5.725  16.377 -1.7555 -1.0518  0.0656
   10DOPE   H4Y 1249   1.902   5.763  16.304 -1.2445 -0.3985  0.8107
   10DOPE   C35 1250   1.755   5.673  16.161 -0.4921 -0.0614  0.2305
   10DOPE   H5X 1251   1.692   5.760  16.137  0.0618  0.5621  0.9835
   10DOPE   H5Y 1252   1.685   5.587  16.173 -1.1170  0.4446  0.2323
   10DOPE   C36 1253   1.861   5.640  16.049  0.2314  0.0308  0.7525
   10DOPE   H6X 1254   1.906   5.541  16.071  2.8068  0.6912 -1.1043
   10DOPE   H6Y 1255   1.947   5.708  16.065  0.2330  0.3580 -0.5225
   10DOPE   C37 1256   1.816   5.635  15.902 -0.7510  0.6209  0.8316
   10DOPE   H7X 1257   1.731   5.563  15.892  0.2944 -0.3592 -2.1822
   10DOPE   H7Y 1258   1.774   5.730  15.862 -1.6751  0.3217  1.0541
   10DOPE   C38 1259   1.924   5.579  15.816  0.5661 -0.5857  0.6586
   10DOPE   H8X 1260   1.970   5.485  15.850  0.6886 -1.8772 -2.6905
   10DOPE   H8Y 1261   2.011   5.647  15.800 -0.6695  0.5071 -2.1789
   10DOPE   C39 1262   1.868   5.550  15.680 -0.9654 -0.2948  0.3554
   10DOPE   H9X 1263   1.774   5.493  15.688  0.1159 -1.9372  2.4157
   10DOPE  C310 1264   1.936   5.554  15.557  0.2938  0.3859 -0.8515
   10DOPE  H10X 1265   1.876   5.551  15.465 -0.1913  1.5831 -0.5950
   10DOPE  C311 1266   2.077   5.590  15.540  0.2881 -0.0559 -0.1666
   10DOPE  H11X 1267   2.133   5.593  15.636 -1.3275  1.1871  0.7994
   10DOPE  H11Y 1268   2.119   5.513  15.472 -0.4483  0.0486 -0.7603
   10DOPE  C312 1269   2.096   5.730  15.476  0.4820  0.6533  0.5385
   10DOPE  H12X 1270   2.204   5.752  15.469  0.7024 -0.8469 -1.6428
   10DOPE  H12Y 1271   2.034   5.806  15.529  0.4277  2.0907 -1.4646
   10DOPE  C313 1272   2.049   5.747  15.328 -0.6739 -0.1312  0.8924
   10DOPE  H13X 1273   2.089   5.663  15.268 -0.1703  0.6014  0.1763
   10DOPE  H13Y 1274   1.938   5.739  15.320 -0.6542  0.4986 -0.4515
   10DOPE  C314 1275   2.110   5.873  15.280  0.2399 -0.0365 -0.7040
   10DOPE  H14X 1276   2.218   5.876  15.305 -0.1070 -2.3328  1.4553
   10DOPE  H14Y 1277   2.073   5.959  15.341 -0.5009 -1.6019  1.1724
   10DOPE  C315 1278   2.091   5.911  15.136 -0.4561  0.3498  0.6457
   10DOPE  H15X 1279   1.984   5.934  15.119  0.0230  1.5975 -0.8403
   10DOPE  H15Y 1280   2.119   5.828  15.067 -0.6219  0.7802  0.0549
   10DOPE  C316 1281   2.185   6.029  15.085 -0.2781 -0.4445  0.8246
   10DOPE  H16X 1282   2.289   5.992  15.094 -0.3550 -0.6036  1.0594
   10DOPE  H16Y 1283   2.167   6.117  15.151  1.7856 -0.8885  2.0808
   10DOPE  C317 1284   2.139   6.074  14.941 -0.5077  0.1219 -0.0893
   10DOPE  H17X 1285   2.132   5.984  14.876  0.4040 -0.1831  0.2142
   10DOPE  H17Y 1286   2.037   6.117  14.953  0.3425  2.0644  0.6156
   10DOPE  C318 1287   2.221   6.183  14.865 -0.2007  0.0751 -0.5509
   10DOPE  H18X 1288   2.159   6.231  14.786 -0.0246  0.0400 -0.7103
   10DOPE  H18Y 1289   2.248   6.259  14.942  0.7739 -0.4934 -0.3140
   10DOPE  H18Z 1290   2.317   6.141  14.828 -0.3846  0.4253 -1.4589
   11DOPE     N 1291   1.581   3.141  16.479 -0.5804 -0.1454  0.0232
   11DOPE   HN1 1292   1.567   3.110  16.577 -3.3620 -1.9950 -0.8152
   11DOPE   HN2 1293   1.620   3.056  16.435  1.6235  0.9678 -0.2895
   11DOPE   HN3 1294   1.646   3.222  16.478 -3.3923  2.3529 -2.2619
   11DOPE   C12 1295   1.455   3.166  16.407  0.1220 -0.4799 -0.1056
   11DOPE  H12A 1296   1.472   3.205  16.305 -3.1629  1.1144 -0.1621
   11DOPE  H12B 1297   1.400   3.248  16.457  1.5793  1.0300 -0.8804
   11DOPE   C11 1298   1.384   3.037  16.380 -0.0781 -0.2314  0.4150
   11DOPE  H11A 1299   1.447   2.960  16.332 -0.2504  1.1039 -2.1252
   11DOPE  H11B 1300   1.306   3.060  16.305 -0.2599 -2.0183  0.0357
   11DOPE     P 1301   1.199   2.920  16.522 -0.2755  0.2488 -0.3686
   11DOPE   O13 1302   1.095   3.024  16.553 -0.2685  0.0270  0.0122
   11DOPE   O14 1303   1.209   2.804  16.617  0.3429  0.1131 -0.0800
   11DOPE   O11 1304   1.164   2.864  16.390 -0.6799  0.3773  0.6688
   11DOPE   O12 1305   1.339   2.989  16.501 -0.1548 -0.3822  0.4482
   11DOPE    C1 1306   1.190   2.738  16.315  0.3944 -0.1875  0.5179
   11DOPE    HA 1307   1.279   2.684  16.353  0.3207 -1.2181 -0.7124
   11DOPE    HB 1308   1.231   2.778  16.220  2.4723 -0.3142  1.3196
   11DOPE    C2 1309   1.052   2.664  16.278 -0.1984 -0.1250  0.1220
   11DOPE    HS 1310   1.034   2.567  16.329 -0.0509 -0.8455 -1.1656
   11DOPE   O21 1311   1.045   2.646  16.134 -0.0384  0.0780 -0.4137
   11DOPE   C21 1312   1.126   2.559  16.089 -0.4731  0.0927 -1.6212
   11DOPE   O22 1313   1.202   2.485  16.151  0.2545  0.2979 -0.1706
   11DOPE   C22 1314   1.090   2.542  15.939  0.5271 -1.0789 -0.3805
   11DOPE   H2R 1315   1.009   2.617  15.924  1.7675  0.9041  1.9608
   11DOPE   H2S 1316   1.041   2.444  15.923  0.9370 -1.4355  0.4931
   11DOPE    C3 1317   0.934   2.760  16.320  0.1102 -0.2772  0.0179
   11DOPE    HX 1318   0.954   2.861  16.279 -2.5863  1.0162  1.6189
   11DOPE    HY 1319   0.931   2.777  16.429 -1.4651  2.7486 -0.3988
   11DOPE   O31 1320   0.803   2.729  16.276 -0.5766  0.4068  0.8600
   11DOPE   C31 1321   0.739   2.640  16.341 -0.0904  0.8367 -0.1108
   11DOPE   O32 1322   0.777   2.589  16.448 -0.3664  0.7787  0.7677
   11DOPE   C32 1323   0.615   2.607  16.260  0.3141  0.2039  0.7720
   11DOPE   H2X 1324   0.557   2.700  16.239 -1.4824 -1.2515 -1.0584
   11DOPE   H2Y 1325   0.630   2.561  16.160 -2.0957  1.7923 -0.4519
   11DOPE   C23 1326   1.214   2.553  15.854 -0.2591 -0.7054  0.0942
   11DOPE   H3R 1327   1.194   2.531  15.747  1.7533  0.6646 -0.6336
   11DOPE   H3S 1328   1.299   2.487  15.883  0.0925 -0.1419  0.3718
   11DOPE   C24 1329   1.274   2.694  15.849  0.1292  0.4968  0.3464
   11DOPE   H4R 1330   1.319   2.709  15.950 -1.4766 -0.2517  1.2275
   11DOPE   H4S 1331   1.188   2.765  15.849 -1.1453 -0.9920 -0.0315
   11DOPE   C25 1332   1.383   2.727  15.748 -0.3619  0.3087 -0.4678
   11DOPE   H5R 1333   1.383   2.838  15.748 -1.0733  0.3154 -0.4853
   11DOPE   H5S 1334   1.337   2.705  15.649 -3.0604 -1.9787  1.1284
   11DOPE   C26 1335   1.527   2.681  15.775  0.6400  0.3901 -0.5290
   11DOPE   H6R 1336   1.524   2.578  15.817 -0.5279  0.7124  0.1991
   11DOPE   H6S 1337   1.569   2.755  15.846  0.3886  0.3536 -0.3448
   11DOPE   C27 1338   1.612   2.668  15.645 -0.4870 -0.1210  0.4342
   11DOPE   H7R 1339   1.719   2.653  15.670 -0.4258  0.6386  0.6648
   11DOPE   H7S 1340   1.601   2.765  15.592 -0.2495 -0.3539 -0.0433
   11DOPE   C28 1341   1.565   2.563  15.548 -0.5975  0.6145  0.1927
   11DOPE   H8R 1342   1.458   2.578  15.523 -0.9708 -0.0524  1.3382
   11DOPE   H8S 1343   1.569   2.462  15.594 -0.0567 -0.0981 -1.3531
   11DOPE   C29 1344   1.658   2.557  15.424 -0.3215 -0.0782 -0.4550
   11DOPE   H9R 1345   1.766   2.554  15.448  0.7241 -2.2137 -4.5191
   11DOPE  C210 1346   1.616   2.536  15.294 -0.3858  0.0044  0.3506
   11DOPE  H10R 1347   1.695   2.544  15.218 -0.4850  0.3421  0.2821
   11DOPE  C211 1348   1.479   2.504  15.243 -0.0772  0.4196  0.2121
   11DOPE  H11R 1349   1.407   2.479  15.324 -1.8113  1.1412 -1.0437
   11DOPE  H11S 1350   1.495   2.409  15.189  1.5071 -1.0606  3.0363
   11DOPE  C212 1351   1.408   2.616  15.167  0.2162 -0.9560 -0.7170
   11DOPE  H12R 1352   1.441   2.714  15.207  0.6857 -1.2099 -0.4780
   11DOPE  H12S 1353   1.300   2.601  15.190  0.0612  0.4076 -0.4464
   11DOPE  C213 1354   1.428   2.608  15.019 -0.6323  0.1139  0.6656
   11DOPE  H13R 1355   1.404   2.506  14.983  0.3045  0.0004  0.3341
   11DOPE  H13S 1356   1.536   2.603  14.995 -0.4972 -1.0343  1.4452
   11DOPE  C214 1357   1.350   2.717  14.941 -1.0293  0.5613 -0.8623
   11DOPE  H14R 1358   1.407   2.743  14.850  1.5302 -0.2361  0.3965
   11DOPE  H14S 1359   1.347   2.812  14.998  0.3533  0.1776 -0.0764
   11DOPE  C215 1360   1.206   2.671  14.901  0.3014  0.1008  0.4949
   11DOPE  H15R 1361   1.164   2.760  14.849 -2.4669 -0.0192  2.3060
   11DOPE  H15S 1362   1.134   2.658  14.984  0.7279  2.7067  1.3733
   11DOPE  C216 1363   1.193   2.555  14.808 -0.4959  0.0284 -0.4227
   11DOPE  H16R 1364   1.085   2.543  14.786 -0.7236  1.6668 -0.3025
   11DOPE  H16S 1365   1.225   2.465  14.865 -0.0644 -0.3684 -1.2892
   11DOPE  C217 1366   1.270   2.572  14.674  0.9090 -0.4332 -0.1341
   11DOPE  H17R 1367   1.379   2.574  14.694  1.1145  0.1922 -1.2579
   11DOPE  H17S 1368   1.251   2.674  14.635  0.3826 -0.6659 -0.5006
   11DOPE  C218 1369   1.243   2.455  14.581  0.0390  0.5365  0.0381
   11DOPE  H18R 1370   1.288   2.478  14.482 -0.4943 -1.7180 -0.7855
   11DOPE  H18S 1371   1.135   2.437  14.560  0.0363 -1.2716  1.4222
   11DOPE  H18T 1372   1.277   2.358  14.622  0.6085  1.6018  2.1921
   11DOPE   C33 1373   0.524   2.512  16.342  0.0426 -0.7060  0.6009
   11DOPE   H3X 1374   0.511   2.550  16.446 -0.5886 -0.9281  0.6078
   11DOPE   H3Y 1375   0.583   2.418  16.351  1.7542  0.3804  1.2889
   11DOPE   C34 1376   0.392   2.496  16.278  0.7805  0.4130 -0.5409
   11DOPE   H4X 1377   0.318   2.443  16.341 -0.1535  2.3280  0.0635
   11DOPE   H4Y 1378   0.340   2.594  16.276  0.2164  0.1765  0.9696
   11DOPE   C35 1379   0.404   2.427  16.145 -0.2745 -0.1161  0.0450
   11DOPE   H5X 1380   0.473   2.341  16.159 -1.0029 -0.5652  1.0142
   11DOPE   H5Y 1381   0.440   2.496  16.066 -1.5193 -0.1394 -0.5679
   11DOPE   C36 1382   0.268   2.373  16.103  0.5184 -0.6233  1.2369
   11DOPE   H6X 1383   0.195   2.456  16.118  1.1593  0.5451 -1.4739
   11DOPE   H6Y 1384   0.239   2.295  16.177  2.0682 -0.0160  2.5457
   11DOPE   C37 1385   0.254   2.324  15.954  0.0720 -0.2092  0.3138
   11DOPE   H7X 1386   0.308   2.229  15.935 -0.9109 -0.7675  0.2243
   11DOPE   H7Y 1387   0.148   2.294  15.939 -0.8253  1.9952  1.7687
   11DOPE   C38 1388   0.282   2.439  15.856 -0.2383 -0.5382 -0.0445
   11DOPE   H8X 1389   0.389   2.467  15.867 -0.5086 -0.0251  1.4786
   11DOPE   H8Y 1390   0.222   2.524  15.894  1.2172  0.6351 -0.3026
   11DOPE   C39 1391   0.234   2.412  15.716  0.2355 -0.4094 -0.0415
   11DOPE   H9X 1392   0.234   2.306  15.685  0.1680 -0.1515 -0.9766
   11DOPE  C310 1393   0.188   2.490  15.621  0.8065 -0.0934  0.4277
   11DOPE  H10X 1394   0.164   2.436  15.528  1.5650 -2.0368  1.3096
   11DOPE  C311 1395   0.174   2.640  15.606  0.3751  0.2208 -0.4669
   11DOPE  H11X 1396   0.067   2.659  15.584  0.2626 -0.2196 -0.3222
   11DOPE  H11Y 1397   0.188   2.685  15.706 -2.0696 -0.5481  0.3019
   11DOPE  C312 1398   0.273   2.708  15.511 -0.8299 -0.5129  0.2284
   11DOPE  H12X 1399   0.239   2.813  15.494 -2.0023 -1.2181 -2.4149
   11DOPE  H12Y 1400   0.261   2.662  15.410  0.7561 -2.1492  0.7249
   11DOPE  C313 1401   0.426   2.703  15.543  0.3335 -0.1695  0.2060
   11DOPE  H13X 1402   0.448   2.749  15.642  1.1343  0.7844 -0.3839
   11DOPE  H13Y 1403   0.459   2.598  15.550  0.2089 -0.2035  0.2864
   11DOPE  C314 1404   0.516   2.778  15.442  0.2073  0.2173 -0.1865
   11DOPE  H14X 1405   0.519   2.719  15.348  0.3007 -0.6883  0.3756
   11DOPE  H14Y 1406   0.617   2.772  15.486 -0.1641 -2.1886  0.4320
   11DOPE  C315 1407   0.480   2.929  15.417  0.1959  0.5364 -0.0797
   11DOPE  H15X 1408   0.439   2.970  15.512  3.1031 -0.9996  1.9846
   11DOPE  H15Y 1409   0.396   2.935  15.344 -1.6910  1.1963  2.0092
   11DOPE  C316 1410   0.584   3.023  15.359 -0.3549 -0.6562  0.0303
   11DOPE  H16X 1411   0.620   2.979  15.264  0.8525  1.0738 -0.3657
   11DOPE  H16Y 1412   0.672   3.022  15.427  0.8356  0.2341 -1.4470
   11DOPE  C317 1413   0.528   3.163  15.350  0.1333 -0.2130 -0.1579
   11DOPE  H17X 1414   0.593   3.216  15.277 -1.6242 -0.2328 -1.8124
   11DOPE  H17Y 1415   0.428   3.151  15.303  1.3898 -1.3871 -2.7538
   11DOPE  C318 1416   0.529   3.253  15.477  1.1620 -0.2305 -0.7420
   11DOPE  H18X 1417   0.457   3.337  15.467  0.3723 -0.9562 -1.2688
   11DOPE  H18Y 1418   0.487   3.181  15.550  1.2320 -2.1654 -2.5221
   11DOPE  H18Z 1419   0.627   3.283  15.518  0.1037  1.7553  0.4774
   12DOPE     N 1420   4.313   6.547  16.712 -0.1664 -0.0193 -0.3358
   12DOPE   HN1 1421   4.297   6.615  16.790 -1.2750  0.2668 -0.7900
   12DOPE   HN2 1422   4.412   6.557  16.683  0.6848 -0.3990  2.1944
   12DOPE   HN3 1423   4.248   6.583  16.639 -2.2137  0.0210  1.3955
   12DOPE   C12 1424   4.265   6.411  16.750 -0.5980  0.0841  0.4166
   12DOPE  H12A 1425   4.159   6.413  16.784 -0.4456  0.6399  0.8697
   12DOPE  H12B 1426   4.333   6.377  16.831  1.8507  1.0123 -1.1245
   12DOPE   C11 1427   4.286   6.309  16.643 -0.2345 -0.2166 -0.0109
   12DOPE  H11A 1428   4.216   6.341  16.563  1.9145 -0.4746 -2.1070
   12DOPE  H11B 1429   4.273   6.204  16.678  1.6554 -0.4122  0.2160
   12DOPE     P 1430   4.506   6.186  16.561  0.3289 -0.2654  0.0741
   12DOPE   O13 1431   4.509   6.111  16.685 -0.2090 -0.1748 -0.0043
   12DOPE   O14 1432   4.639   6.214  16.499  0.4793 -0.3534 -0.6868
   12DOPE   O11 1433   4.415   6.111  16.462 -0.6186  0.0140  0.1336
   12DOPE   O12 1434   4.418   6.319  16.587 -0.3908  0.2230  0.7519
   12DOPE    C1 1435   4.430   6.128  16.325  0.5088 -0.6409  0.8701
   12DOPE    HA 1436   4.370   6.042  16.285  0.2757 -0.5193  0.9554
   12DOPE    HB 1437   4.534   6.107  16.292  0.0241 -0.0776 -1.1916
   12DOPE    C2 1438   4.367   6.253  16.251 -0.0654  0.3561 -0.2639
   12DOPE    HS 1439   4.402   6.338  16.315  4.1107 -0.6264 -0.9439
   12DOPE   O21 1440   4.230   6.228  16.233 -0.3656 -0.4788 -0.1892
   12DOPE   C21 1441   4.148   6.334  16.265 -0.3934  0.2576  0.4992
   12DOPE   O22 1442   4.193   6.444  16.291  0.1687 -0.1526  0.3271
   12DOPE   C22 1443   4.001   6.279  16.248  0.0393 -0.0686  0.2698
   12DOPE   H2R 1444   4.002   6.178  16.296 -0.1779 -0.4343 -0.4810
   12DOPE   H2S 1445   3.994   6.276  16.138  1.6377  0.7394  0.1149
   12DOPE    C3 1446   4.426   6.292  16.111 -0.1058  0.9974  0.0464
   12DOPE    HX 1447   4.402   6.204  16.047  0.0048 -0.3504  1.7873
   12DOPE    HY 1448   4.537   6.299  16.113  0.0855 -0.0918 -2.6435
   12DOPE   O31 1449   4.375   6.416  16.062  0.0494  0.3422  0.6262
   12DOPE   C31 1450   4.440   6.526  16.106  0.5659  0.2492 -0.8143
   12DOPE   O32 1451   4.522   6.525  16.198  0.0523  0.0189 -0.9658
   12DOPE   C32 1452   4.384   6.653  16.044  0.1788  0.4471 -0.5218
   12DOPE   H2X 1453   4.282   6.665  16.084  0.3320  0.8848 -0.2539
   12DOPE   H2Y 1454   4.454   6.734  16.073  0.7765 -0.2334 -0.0094
   12DOPE   C23 1455   3.903   6.378  16.308  0.0805  0.2773  0.9170
   12DOPE   H3R 1456   3.898   6.475  16.254  2.4005  1.4882  2.6796
   12DOPE   H3S 1457   3.921   6.393  16.417 -0.3998 -1.3826  1.2497
   12DOPE   C24 1458   3.761   6.308  16.297 -0.3975 -0.1839  0.2286
   12DOPE   H4R 1459   3.762   6.223  16.369  2.1087 -0.5694 -0.1722
   12DOPE   H4S 1460   3.753   6.271  16.192  1.7400  0.2418 -0.1212
   12DOPE   C25 1461   3.656   6.402  16.337 -0.1092  0.4021  0.3672
   12DOPE   H5R 1462   3.675   6.494  16.279  1.5892 -0.9226 -1.3302
   12DOPE   H5S 1463   3.647   6.415  16.447 -1.0717  1.1609  0.1995
   12DOPE   C26 1464   3.511   6.361  16.289 -0.4903 -0.2422  0.3404
   12DOPE   H6R 1465   3.465   6.284  16.355 -2.2759  1.3706  1.0638
   12DOPE   H6S 1466   3.519   6.310  16.190 -0.0271 -0.9728  0.7459
   12DOPE   C27 1467   3.430   6.486  16.285  0.0053 -0.1292 -0.4222
   12DOPE   H7R 1468   3.482   6.565  16.227 -0.6000  0.6558  0.0940
   12DOPE   H7S 1469   3.417   6.521  16.389 -0.2240  0.0996 -0.5287
   12DOPE   C28 1470   3.286   6.466  16.218 -0.3672  0.3314  0.1033
   12DOPE   H8R 1471   3.298   6.475  16.108 -0.6777 -1.5510 -0.1069
   12DOPE   H8S 1472   3.248   6.566  16.250  0.6136  0.2815  1.5762
   12DOPE   C29 1473   3.203   6.348  16.265  0.4866 -0.3383  1.0566
   12DOPE   H9R 1474   3.213   6.329  16.373  0.8879 -2.6113  0.6655
   12DOPE  C210 1475   3.134   6.262  16.191 -0.2696 -0.3677  0.7840
   12DOPE  H10R 1476   3.070   6.185  16.237  0.5112 -0.3904  1.8523
   12DOPE  C211 1477   3.122   6.274  16.043  0.3383  1.0093  0.4969
   12DOPE  H11R 1478   3.215   6.228  16.003  0.5807  0.9066  1.1675
   12DOPE  H11S 1479   3.108   6.377  16.003 -3.0332  0.7263  0.6423
   12DOPE  C212 1480   2.999   6.195  15.996  0.5371  0.0692  0.1062
   12DOPE  H12R 1481   2.903   6.252  15.993  1.5283  1.7448 -0.8461
   12DOPE  H12S 1482   2.993   6.099  16.051 -2.1150 -0.1306 -0.3616
   12DOPE  C213 1483   3.014   6.153  15.853  0.0180  0.1973 -0.0669
   12DOPE  H13R 1484   3.067   6.055  15.852 -2.0780 -0.9850  0.2013
   12DOPE  H13S 1485   3.070   6.228  15.793  0.2904  0.3942  0.4202
   12DOPE  C214 1486   2.878   6.140  15.785 -0.0835  0.2371 -0.2450
   12DOPE  H14R 1487   2.824   6.236  15.770 -1.4451 -0.3351  0.7406
   12DOPE  H14S 1488   2.816   6.080  15.855 -0.6451 -0.0698 -0.9992
   12DOPE  C215 1489   2.895   6.056  15.661 -0.5018  0.0880  0.2697
   12DOPE  H15R 1490   2.796   6.042  15.613 -0.0467  3.6311 -2.0834
   12DOPE  H15S 1491   2.956   5.968  15.693 -0.2753  0.3006  0.4215
   12DOPE  C216 1492   2.986   6.126  15.558 -0.2040 -0.2232  0.0213
   12DOPE  H16R 1493   3.090   6.130  15.597  1.4862 -0.8293 -3.9474
   12DOPE  H16S 1494   2.943   6.228  15.552  0.7547  0.1819 -0.1519
   12DOPE  C217 1495   2.984   6.067  15.416 -0.0117  0.0450  1.3323
   12DOPE  H17R 1496   3.053   6.137  15.364  0.2531 -0.3615  1.1345
   12DOPE  H17S 1497   2.878   6.070  15.383  0.0430  2.1656  1.1960
   12DOPE  C218 1498   3.034   5.923  15.398  1.4519 -0.3461 -0.0184
   12DOPE  H18R 1499   3.025   5.886  15.293 -2.8606 -0.5200  0.2470
   12DOPE  H18S 1500   2.974   5.854  15.462 -1.9649  0.9472 -1.5827
   12DOPE  H18T 1501   3.138   5.923  15.436  0.8607  3.2405  1.9527
   12DOPE   C33 1502   4.387   6.643  15.893  0.7532 -0.2895  0.1184
   12DOPE   H3X 1503   4.343   6.742  15.864 -1.1126 -1.0358  0.2468
   12DOPE   H3Y 1504   4.323   6.564  15.849 -0.5128  1.2142 -0.8987
   12DOPE   C34 1505   4.522   6.638  15.835 -0.5722 -0.4667 -0.0415
   12DOPE   H4X 1506   4.574   6.733  15.857  0.0856 -0.5284 -1.2045
   12DOPE   H4Y 1507   4.580   6.555  15.882  0.1750 -0.6649 -1.2388
   12DOPE   C35 1508   4.529   6.616  15.679 -0.1561  0.3441  0.0813
   12DOPE   H5X 1509   4.467   6.679  15.612  1.5781 -1.2405 -3.3014
   12DOPE   H5Y 1510   4.495   6.512  15.660 -2.0993  1.0029 -0.2179
   12DOPE   C36 1511   4.681   6.620  15.639  0.0393 -0.4323 -0.6184
   12DOPE   H6X 1512   4.695   6.564  15.544 -0.7490 -0.7573 -0.5550
   12DOPE   H6Y 1513   4.735   6.551  15.707 -0.8823  0.5812  1.2347
   12DOPE   C37 1514   4.746   6.764  15.619 -0.0204 -0.0417 -0.3664
   12DOPE   H7X 1515   4.739   6.818  15.716  0.3862 -0.1485 -0.2781
   12DOPE   H7Y 1516   4.851   6.749  15.587 -0.1578  1.0609 -1.3941
   12DOPE   C38 1517   4.673   6.848  15.520  0.0508  0.0796 -0.1184
   12DOPE   H8X 1518   4.711   6.952  15.519 -1.7437  0.7745 -0.6033
   12DOPE   H8Y 1519   4.572   6.852  15.566  0.2259  0.1459  0.2655
   12DOPE   C39 1520   4.662   6.796  15.381  0.5525  0.7960  0.2682
   12DOPE   H9X 1521   4.732   6.713  15.362 -2.7426 -2.0632 -0.5399
   12DOPE  C310 1522   4.559   6.820  15.290 -0.4356  0.0925  0.1254
   12DOPE  H10X 1523   4.548   6.755  15.202  0.8635 -1.3664  0.9874
   12DOPE  C311 1524   4.439   6.902  15.326 -0.5593 -0.1444  1.0074
   12DOPE  H11X 1525   4.349   6.837  15.330 -0.0106 -1.0410 -0.4935
   12DOPE  H11Y 1526   4.452   6.967  15.415  0.9102  1.8306 -0.5634
   12DOPE  C312 1527   4.419   6.989  15.200 -0.4604  0.2452 -0.2126
   12DOPE  H12X 1528   4.408   6.920  15.114 -3.5005  1.2844 -0.7786
   12DOPE  H12Y 1529   4.503   7.060  15.181 -0.3047 -0.3948 -2.0325
   12DOPE  C313 1530   4.292   7.075  15.203  0.3058 -0.2138 -0.4936
   12DOPE  H13X 1531   4.207   7.020  15.249 -0.5455  1.3235 -0.1381
   12DOPE  H13Y 1532   4.321   7.167  15.258  3.5028 -0.2236 -2.0045
   12DOPE  C314 1533   4.253   7.101  15.055 -0.4415 -0.3197 -0.4146
   12DOPE  H14X 1534   4.242   6.999  15.011  2.1768 -1.3284  0.9983
   12DOPE  H14Y 1535   4.344   7.147  15.011  1.5921  1.9521  5.2258
   12DOPE  C315 1536   4.129   7.185  15.031 -0.0856  0.5476  0.2520
   12DOPE  H15X 1537   4.139   7.277  15.092  0.7600  0.1924  0.6679
   12DOPE  H15Y 1538   4.046   7.126  15.076  0.3963  0.3802  0.9411
   12DOPE  C316 1539   4.077   7.208  14.886 -0.3507 -0.5010 -0.2225
   12DOPE  H16X 1540   3.981   7.263  14.878  0.5568  1.0119 -1.2187
   12DOPE  H16Y 1541   4.052   7.110  14.841  0.1761 -1.5416  1.6438
   12DOPE  C317 1542   4.183   7.265  14.789  0.5364 -0.4567 -0.0190
   12DOPE  H17X 1543   4.223   7.358  14.835  1.7323 -1.3874  0.8893
   12DOPE  H17Y 1544   4.272   7.199  14.780  1.0165  0.0773  0.7094
   12DOPE  C318 1545   4.129   7.294  14.647  0.0456  0.0004  0.5857
   12DOPE  H18X 1546   4.045   7.367  14.646 -1.1009 -1.2471  1.8776
   12DOPE  H18Y 1547   4.215   7.339  14.593  1.0239 -1.8204  0.5641
   12DOPE  H18Z 1548   4.111   7.206  14.582 -0.0516 -0.1323  0.7933
   13DOPE     N 1549   3.181   0.225  16.808  0.9070  0.2841  0.5062
   13DOPE   HN1 1550   3.266   0.203  16.752  0.9883 -2.6003  1.5620
   13DOPE   HN2 1551   3.178   0.152  16.882 -1.3871  0.1090  0.3435
   13DOPE   HN3 1552   3.101   0.217  16.741  0.8267  1.3782  0.4598
   13DOPE   C12 1553   3.187   0.365  16.865 -0.5033 -0.3360  0.4676
   13DOPE  H12A 1554   3.273   0.380  16.934 -1.2582 -0.9462  1.5852
   13DOPE  H12B 1555   3.085   0.374  16.908 -1.2884  0.3214 -1.4527
   13DOPE   C11 1556   3.189   0.464  16.753  0.0912 -0.0064 -0.1549
   13DOPE  H11A 1557   3.287   0.458  16.701 -0.3813  1.0691 -1.2376
   13DOPE  H11B 1558   3.183   0.565  16.800 -0.8849  0.5730 -1.4421
   13DOPE     P 1559   2.962   0.541  16.661 -0.1133  0.3541  0.0150
   13DOPE   O13 1560   2.918   0.555  16.804  0.3556 -0.6386  0.3334
   13DOPE   O14 1561   2.857   0.500  16.560 -0.3446 -0.5484 -0.0604
   13DOPE   O11 1562   3.019   0.680  16.622  0.4250 -0.1506 -0.7449
   13DOPE   O12 1563   3.079   0.438  16.658  0.2694 -0.0407  0.5296
   13DOPE    C1 1564   2.933   0.783  16.564 -0.2455  0.4658  0.2688
   13DOPE    HA 1565   2.974   0.882  16.593  0.0662  1.0330 -1.9708
   13DOPE    HB 1566   2.834   0.774  16.615 -0.3718 -0.6129 -0.1366
   13DOPE    C2 1567   2.918   0.773  16.407  0.3647  0.0630 -1.0026
   13DOPE    HS 1568   2.871   0.673  16.399  1.0321 -0.2943 -0.5570
   13DOPE   O21 1569   3.052   0.784  16.349 -0.1276  0.5738 -0.0654
   13DOPE   C21 1570   3.070   0.733  16.232 -0.1840 -0.3805  0.1766
   13DOPE   O22 1571   2.994   0.663  16.168  0.8051  0.3862 -0.0467
   13DOPE   C22 1572   3.193   0.808  16.171  1.0533  0.3728 -0.4246
   13DOPE   H2R 1573   3.262   0.733  16.127  0.9311  0.2088 -0.3395
   13DOPE   H2S 1574   3.241   0.865  16.253 -0.6640  0.1313  0.8133
   13DOPE    C3 1575   2.822   0.887  16.356  1.3655 -0.0573 -0.4651
   13DOPE    HX 1576   2.849   0.987  16.396 -0.2479  0.6255 -1.0077
   13DOPE    HY 1577   2.727   0.854  16.404  1.8400  0.2054  0.7001
   13DOPE   O31 1578   2.817   0.887  16.213 -0.1101 -0.1719 -0.5376
   13DOPE   C31 1579   2.725   0.805  16.157  0.0406  0.7042  0.6636
   13DOPE   O32 1580   2.647   0.732  16.212  0.2523 -0.1415  0.4266
   13DOPE   C32 1581   2.746   0.819  16.004  0.0412 -0.0556  0.3463
   13DOPE   H2X 1582   2.739   0.922  15.961  0.2045 -0.6106 -1.0595
   13DOPE   H2Y 1583   2.841   0.770  15.976 -0.2501 -1.1862  1.2854
   13DOPE   C23 1584   3.153   0.912  16.055 -0.9244  0.0471 -0.0558
   13DOPE   H3R 1585   3.238   0.985  16.053 -1.6051  0.8652 -1.7164
   13DOPE   H3S 1586   3.060   0.963  16.087  0.6731  1.7532  2.1635
   13DOPE   C24 1587   3.143   0.853  15.913 -0.0143 -0.7702 -0.2917
   13DOPE   H4R 1588   3.088   0.757  15.918 -2.5391  0.6063 -0.1271
   13DOPE   H4S 1589   3.246   0.819  15.888  1.0249  0.5150  1.8547
   13DOPE   C25 1590   3.100   0.940  15.798  0.3552  0.0569 -0.6772
   13DOPE   H5R 1591   3.158   1.034  15.797  2.4944 -1.0593  2.6517
   13DOPE   H5S 1592   2.990   0.955  15.805  0.6042  1.2406  3.1442
   13DOPE   C26 1593   3.123   0.855  15.676 -0.5329  0.8813  0.1297
   13DOPE   H6R 1594   3.064   0.761  15.684  1.6352 -0.4304  1.4428
   13DOPE   H6S 1595   3.227   0.818  15.672 -0.2046  1.8552 -1.0133
   13DOPE   C27 1596   3.072   0.916  15.546 -0.3571  0.5157 -0.1864
   13DOPE   H7R 1597   2.979   0.976  15.557 -0.8550 -0.4659  1.0362
   13DOPE   H7S 1598   3.051   0.834  15.474 -1.5545 -0.7340  1.5049
   13DOPE   C28 1599   3.192   1.005  15.495 -0.8234 -0.5034  0.1201
   13DOPE   H8R 1600   3.226   1.087  15.562  1.3922  0.4279 -2.0258
   13DOPE   H8S 1601   3.147   1.055  15.407 -2.0994  0.0354  1.0490
   13DOPE   C29 1602   3.311   0.925  15.443  0.1693 -0.1081  0.7951
   13DOPE   H9R 1603   3.379   0.895  15.525 -0.4701 -1.5808  0.8100
   13DOPE  C210 1604   3.341   0.892  15.320  0.0639  0.9380 -0.3581
   13DOPE  H10R 1605   3.431   0.831  15.303 -0.2937 -1.0632  3.7722
   13DOPE  C211 1606   3.255   0.926  15.199 -0.1350  0.2673  0.3408
   13DOPE  H11R 1607   3.175   1.002  15.210 -0.7874 -0.5332  1.2924
   13DOPE  H11S 1608   3.192   0.837  15.178 -2.7901  1.5356  2.3653
   13DOPE  C212 1609   3.348   0.970  15.091 -0.0685  0.2151 -0.0160
   13DOPE  H12R 1610   3.419   1.051  15.120  0.0467  0.5731 -1.2424
   13DOPE  H12S 1611   3.285   1.004  15.005  0.0010  1.9242  0.5581
   13DOPE  C213 1612   3.435   0.850  15.042 -0.6213 -0.3890  0.5819
   13DOPE  H13R 1613   3.384   0.752  15.035  0.3840 -0.9804  1.3503
   13DOPE  H13S 1614   3.527   0.835  15.101 -0.3917 -1.8345 -0.1001
   13DOPE  C214 1615   3.488   0.874  14.897 -0.9652  0.1939  0.1719
   13DOPE  H14R 1616   3.547   0.968  14.897 -0.0401 -0.3714 -0.0351
   13DOPE  H14S 1617   3.408   0.878  14.821  0.9580 -0.1795 -1.9793
   13DOPE  C215 1618   3.585   0.756  14.872  0.1536  0.3903 -0.5311
   13DOPE  H15R 1619   3.546   0.653  14.861 -0.3844  0.5404 -0.1114
   13DOPE  H15S 1620   3.666   0.754  14.948 -1.4215  0.0550  1.2449
   13DOPE  C216 1621   3.679   0.795  14.744 -0.0634  0.3599  0.5993
   13DOPE  H16R 1622   3.745   0.879  14.773  0.8269  0.6691 -2.1288
   13DOPE  H16S 1623   3.607   0.833  14.670  1.9169  2.5466 -0.3161
   13DOPE  C217 1624   3.753   0.678  14.685  0.0202  0.0682 -0.9074
   13DOPE  H17R 1625   3.810   0.710  14.595  0.3641 -0.2049 -0.7916
   13DOPE  H17S 1626   3.686   0.600  14.641  0.2571 -0.3355 -0.5602
   13DOPE  C218 1627   3.873   0.619  14.770  0.5740 -0.0009  0.2983
   13DOPE  H18R 1628   3.956   0.690  14.790  0.2896  0.1920  0.8467
   13DOPE  H18S 1629   3.909   0.519  14.739 -1.6666 -1.1892  1.2222
   13DOPE  H18T 1630   3.833   0.600  14.872 -0.2036 -0.0514 -0.0049
   13DOPE   C33 1631   2.636   0.744  15.922 -0.8257 -0.0817 -0.3523
   13DOPE   H3X 1632   2.546   0.809  15.930 -0.5652  0.4897 -1.7959
   13DOPE   H3Y 1633   2.611   0.648  15.971 -0.7844  1.1294  2.2239
   13DOPE   C34 1634   2.673   0.728  15.779 -0.2608  0.1499 -0.0041
   13DOPE   H4X 1635   2.735   0.813  15.743 -0.8101 -0.0931 -1.6152
   13DOPE   H4Y 1636   2.739   0.639  15.774  0.3166  0.5628  0.1855
   13DOPE   C35 1637   2.551   0.710  15.683  0.0721  0.1236  0.1177
   13DOPE   H5X 1638   2.472   0.785  15.704 -1.0820 -1.4084  1.5732
   13DOPE   H5Y 1639   2.494   0.619  15.713 -1.4997  2.0433  3.5477
   13DOPE   C36 1640   2.571   0.713  15.525 -0.0496  0.8132 -0.0336
   13DOPE   H6X 1641   2.478   0.691  15.468  1.6016 -0.2050 -2.5323
   13DOPE   H6Y 1642   2.645   0.631  15.516 -0.2238  0.6193  0.2979
   13DOPE   C37 1643   2.622   0.841  15.466 -0.3517 -0.4282  0.0089
   13DOPE   H7X 1644   2.571   0.918  15.527 -0.7650  0.7654 -1.7510
   13DOPE   H7Y 1645   2.732   0.844  15.480 -0.5049 -1.6324  1.8558
   13DOPE   C38 1646   2.601   0.868  15.317  0.3796 -0.4784  0.0369
   13DOPE   H8X 1647   2.647   0.964  15.287 -1.1771  0.3519  0.1994
   13DOPE   H8Y 1648   2.493   0.880  15.293 -0.0394 -0.8629  1.6093
   13DOPE   C39 1649   2.644   0.745  15.245  0.6355  0.0344  0.2411
   13DOPE   H9X 1650   2.558   0.686  15.213  0.5895  0.2245  0.0121
   13DOPE  C310 1651   2.766   0.736  15.184 -0.2108 -0.2198 -0.2559
   13DOPE  H10X 1652   2.786   0.653  15.114 -0.1109  0.5463 -1.1428
   13DOPE  C311 1653   2.887   0.825  15.204 -0.8700  0.7792  0.0550
   13DOPE  H11X 1654   2.877   0.883  15.298 -2.0836 -0.9729  1.0784
   13DOPE  H11Y 1655   2.977   0.761  15.214 -1.1878  0.4731  1.0561
   13DOPE  C312 1656   2.919   0.925  15.093  0.2628 -0.2024  0.2001
   13DOPE  H12X 1657   2.983   0.997  15.148  2.6900 -1.6251 -0.6264
   13DOPE  H12Y 1658   2.820   0.970  15.071  0.4582  0.3818  0.4791
   13DOPE  C313 1659   2.974   0.869  14.964 -0.1541 -0.1978  0.1615
   13DOPE  H13X 1660   3.060   0.801  14.980  0.1730  0.0368 -0.5277
   13DOPE  H13Y 1661   2.895   0.801  14.927  0.5806 -0.8936 -0.1606
   13DOPE  C314 1662   3.006   0.982  14.867  0.3732 -0.1632  0.4597
   13DOPE  H14X 1663   3.059   1.066  14.916 -0.1466  1.6230 -1.8592
   13DOPE  H14Y 1664   2.905   1.010  14.830  0.6001  0.6040  0.4013
   13DOPE  C315 1665   3.098   0.933  14.755 -0.6093  0.0506  0.4109
   13DOPE  H15X 1666   3.179   0.871  14.800 -0.0808 -0.5315 -1.2813
   13DOPE  H15Y 1667   3.149   1.014  14.699 -0.3387 -1.8470 -2.2672
   13DOPE  C316 1668   3.022   0.835  14.663 -0.3433 -0.5711 -0.0783
   13DOPE  H16X 1669   2.926   0.887  14.641 -0.0397  0.3301  0.6857
   13DOPE  H16Y 1670   2.996   0.747  14.726  0.7469  0.8660  2.5399
   13DOPE  C317 1671   3.106   0.785  14.547 -0.8893 -0.1271 -0.1304
   13DOPE  H17X 1672   3.198   0.728  14.574 -1.8166 -2.5395 -1.6684
   13DOPE  H17Y 1673   3.033   0.711  14.507 -0.2810 -0.9018  0.1732
   13DOPE  C318 1674   3.143   0.889  14.435  0.5115  0.5766 -0.4028
   13DOPE  H18X 1675   3.071   0.973  14.432  0.3870  0.5603  1.0871
   13DOPE  H18Y 1676   3.240   0.940  14.452  0.7089  0.2201 -0.4343
   13DOPE  H18Z 1677   3.138   0.830  14.341 -0.4558 -0.4175  0.2363
   14DOPE     N 1678   6.754   3.592  17.083 -0.0886  0.3918  0.2494
   14DOPE   HN1 1679   6.736   3.693  17.065 -1.4603  0.2865  0.8651
   14DOPE   HN2 1680   6.676   3.569  17.147 -0.9176  1.3528 -0.3692
   14DOPE   HN3 1681   6.846   3.579  17.129  0.6824  0.8000 -1.1138
   14DOPE   C12 1682   6.750   3.511  16.959  0.0996  0.6249  0.2572
   14DOPE  H12A 1683   6.847   3.530  16.909 -0.8995  1.0174 -1.6019
   14DOPE  H12B 1684   6.673   3.562  16.898 -1.6854 -0.2619  1.6836
   14DOPE   C11 1685   6.728   3.354  16.973  0.4251  0.1401 -0.6866
   14DOPE  H11A 1686   6.735   3.299  16.876 -1.3895 -0.2460 -0.6324
   14DOPE  H11B 1687   6.622   3.339  17.002  0.3974  0.3796 -0.6641
   14DOPE     P 1688   6.812   3.163  17.130 -0.1268  0.0342 -0.1022
   14DOPE   O13 1689   6.671   3.151  17.171  0.3522 -0.1306 -1.0709
   14DOPE   O14 1690   6.919   3.138  17.225  0.0120 -0.5376  0.1830
   14DOPE   O11 1691   6.831   3.067  17.012 -0.1042  0.7626  0.2741
   14DOPE   O12 1692   6.825   3.307  17.066 -0.1563 -0.8629 -0.1622
   14DOPE    C1 1693   6.950   3.037  16.946  0.0088  0.0769 -0.5484
   14DOPE    HA 1694   6.936   2.934  16.907 -0.5874  0.2834 -0.8943
   14DOPE    HB 1695   7.040   3.036  17.011 -1.6552  1.5094  1.9204
   14DOPE    C2 1696   6.965   3.110  16.809  0.5992  0.0094 -0.2342
   14DOPE    HS 1697   6.962   3.216  16.842  1.3704  0.5676 -1.8726
   14DOPE   O21 1698   6.852   3.068  16.730  0.0821 -0.3848 -0.2512
   14DOPE   C21 1699   6.814   3.158  16.634  0.2364  0.2173 -0.0270
   14DOPE   O22 1700   6.871   3.259  16.607  0.7325 -0.1953  0.7242
   14DOPE   C22 1701   6.682   3.115  16.570  0.8865  0.2081 -0.2167
   14DOPE   H2R 1702   6.603   3.094  16.644  0.3201 -0.7435 -1.0582
   14DOPE   H2S 1703   6.700   3.019  16.516  0.1344 -0.6631  1.0518
   14DOPE    C3 1704   7.098   3.096  16.730  0.0311  0.3396  0.0877
   14DOPE    HX 1705   7.181   3.121  16.800 -0.8179  0.6419  1.0226
   14DOPE    HY 1706   7.090   3.174  16.652 -1.4014 -0.0842 -0.2141
   14DOPE   O31 1707   7.116   2.963  16.683 -0.2883 -0.0734  1.0121
   14DOPE   C31 1708   7.229   2.954  16.614 -0.9097  0.0182 -0.3211
   14DOPE   O32 1709   7.310   3.046  16.608 -0.6488  0.7138 -0.0193
   14DOPE   C32 1710   7.238   2.822  16.535 -0.1049  0.2461  0.2514
   14DOPE   H2X 1711   7.274   2.748  16.610  0.9011  1.4284  0.9668
   14DOPE   H2Y 1712   7.144   2.787  16.488  0.6004 -1.6215  0.1216
   14DOPE   C23 1713   6.625   3.211  16.461 -0.2460 -0.6265 -0.6088
   14DOPE   H3R 1714   6.558   3.151  16.396 -1.0208 -2.0457  1.4078
   14DOPE   H3S 1715   6.703   3.270  16.407  0.2020  0.6591  1.3476
   14DOPE   C24 1716   6.540   3.320  16.530 -0.1161  0.3561 -0.1014
   14DOPE   H4R 1717   6.602   3.408  16.559 -0.4301  0.9849 -1.2642
   14DOPE   H4S 1718   6.506   3.284  16.630 -0.2040  1.3807  0.2575
   14DOPE   C25 1719   6.422   3.363  16.445  0.4402 -0.6775 -0.7760
   14DOPE   H5R 1720   6.377   3.451  16.496  0.1169  0.0542 -2.2684
   14DOPE   H5S 1721   6.338   3.290  16.439 -1.4074  0.9665  2.4588
   14DOPE   C26 1722   6.452   3.441  16.315 -0.8265 -0.0195  0.0209
   14DOPE   H6R 1723   6.481   3.362  16.241 -0.5344  1.4949 -1.5460
   14DOPE   H6S 1724   6.545   3.501  16.323  0.9315 -2.2672 -1.8164
   14DOPE   C27 1725   6.333   3.517  16.262  0.5805 -0.3199  0.3745
   14DOPE   H7R 1726   6.357   3.575  16.170  1.0506  0.1370  0.7770
   14DOPE   H7S 1727   6.319   3.595  16.340  1.3542 -0.8458  1.0690
   14DOPE   C28 1728   6.192   3.456  16.250  0.0977 -0.1030  0.5918
   14DOPE   H8R 1729   6.155   3.434  16.352 -1.5406 -1.0802 -0.1606
   14DOPE   H8S 1730   6.213   3.359  16.199  3.7840 -0.1515  1.9207
   14DOPE   C29 1731   6.084   3.537  16.186 -0.7254  0.4207  0.4306
   14DOPE   H9R 1732   6.067   3.632  16.239  1.4348  2.1875 -1.8128
   14DOPE  C210 1733   6.016   3.512  16.074  0.2432  0.6634  0.5217
   14DOPE  H10R 1734   5.934   3.575  16.035  0.4625  1.0656  0.7085
   14DOPE  C211 1735   6.041   3.382  15.997 -0.5587  0.0429 -0.1835
   14DOPE  H11R 1736   5.947   3.341  15.954  0.3012 -2.0131 -0.2280
   14DOPE  H11S 1737   6.064   3.294  16.061 -0.2084  0.5441  0.3825
   14DOPE  C212 1738   6.138   3.390  15.877  0.3479  0.2192  1.1480
   14DOPE  H12R 1739   6.141   3.286  15.836 -1.0193 -0.2620  2.1657
   14DOPE  H12S 1740   6.241   3.422  15.904  1.8008  1.7774 -4.8366
   14DOPE  C213 1741   6.084   3.468  15.756  0.1432  0.2808 -0.4943
   14DOPE  H13R 1742   6.074   3.573  15.790  0.6466 -0.0352  0.6517
   14DOPE  H13S 1743   5.986   3.424  15.725  0.0718 -0.3140  0.5151
   14DOPE  C214 1744   6.176   3.461  15.634  0.5354 -0.3249  0.3411
   14DOPE  H14R 1745   6.206   3.360  15.599  3.7939  0.7380 -0.2397
   14DOPE  H14S 1746   6.265   3.517  15.670  0.5648 -0.2010  0.0721
   14DOPE  C215 1747   6.103   3.528  15.517  0.1121 -0.4251 -0.4140
   14DOPE  H15R 1748   6.051   3.617  15.556  1.3661  0.3184 -0.3887
   14DOPE  H15S 1749   6.019   3.461  15.491  0.9044 -1.1910 -1.0852
   14DOPE  C216 1750   6.181   3.546  15.388  0.1907 -0.2113  0.0392
   14DOPE  H16R 1751   6.230   3.448  15.371  1.4221  0.3359  0.3202
   14DOPE  H16S 1752   6.264   3.616  15.409 -0.1314  0.0109  0.5888
   14DOPE  C217 1753   6.094   3.590  15.260 -0.0750  0.0647 -0.0956
   14DOPE  H17R 1754   6.046   3.688  15.282 -1.1560 -0.7021  1.1169
   14DOPE  H17S 1755   6.015   3.513  15.255  1.6440 -1.8300  0.4171
   14DOPE  C218 1756   6.173   3.585  15.135  0.0513 -0.2869  0.7601
   14DOPE  H18R 1757   6.110   3.601  15.045  0.8019  4.6838  0.8238
   14DOPE  H18S 1758   6.222   3.485  15.130  1.1335  0.2924 -2.3970
   14DOPE  H18T 1759   6.253   3.660  15.117 -0.8525 -0.0683 -3.3481
   14DOPE   C33 1760   7.339   2.810  16.413 -0.1223 -0.1777  0.1065
   14DOPE   H3X 1761   7.439   2.823  16.460 -0.8331 -0.8621  1.9054
   14DOPE   H3Y 1762   7.323   2.900  16.350 -2.3023 -0.3218  0.4012
   14DOPE   C34 1763   7.326   2.679  16.349 -0.1937  0.1243  0.5165
   14DOPE   H4X 1764   7.393   2.672  16.260  0.2683 -0.5629  0.9027
   14DOPE   H4Y 1765   7.356   2.595  16.415 -2.6245  0.0911  1.6822
   14DOPE   C35 1766   7.194   2.642  16.285  0.2257  0.2919  0.1033
   14DOPE   H5X 1767   7.129   2.728  16.257  1.6289  1.9121  1.5652
   14DOPE   H5Y 1768   7.141   2.588  16.366  2.0715 -0.9837  0.5213
   14DOPE   C36 1769   7.203   2.546  16.164 -0.5708 -0.5906 -0.0283
   14DOPE   H6X 1770   7.100   2.512  16.143 -0.5739  0.0998 -1.2496
   14DOPE   H6Y 1771   7.275   2.468  16.198 -0.3138 -1.0316 -1.4830
   14DOPE   C37 1772   7.246   2.619  16.036 -0.0449 -0.1478 -0.2299
   14DOPE   H7X 1773   7.162   2.680  15.996 -0.6045 -0.0951  0.9597
   14DOPE   H7Y 1774   7.329   2.690  16.053  0.4024 -0.4701 -1.0237
   14DOPE   C38 1775   7.295   2.531  15.919  0.0111 -0.7466  0.0210
   14DOPE   H8X 1776   7.218   2.458  15.886 -0.5552  0.4246 -1.3724
   14DOPE   H8Y 1777   7.384   2.475  15.954  0.4035 -0.9502 -1.2614
   14DOPE   C39 1778   7.336   2.612  15.802 -0.4482 -0.1787 -0.5848
   14DOPE   H9X 1779   7.258   2.611  15.725 -0.8208 -1.6989 -0.2188
   14DOPE  C310 1780   7.456   2.686  15.782  0.2576  0.4594 -0.0286
   14DOPE  H10X 1781   7.462   2.742  15.687 -2.0807 -1.4091 -1.3831
   14DOPE  C311 1782   7.568   2.701  15.883  0.3536  0.1976  0.8603
   14DOPE  H11X 1783   7.535   2.654  15.978 -1.8996  0.1459  0.1289
   14DOPE  H11Y 1784   7.656   2.645  15.844 -0.4810 -0.8369  0.4136
   14DOPE  C312 1785   7.600   2.852  15.901  0.0926 -0.0611  0.5008
   14DOPE  H12X 1786   7.618   2.889  15.798  3.8965  0.7275  1.2960
   14DOPE  H12Y 1787   7.690   2.863  15.966 -1.1175  0.9070  2.0888
   14DOPE  C313 1788   7.488   2.930  15.981 -0.0920  0.4975 -0.1744
   14DOPE  H13X 1789   7.389   2.915  15.932 -0.0252  2.0551 -0.8282
   14DOPE  H13Y 1790   7.483   2.884  16.082  2.0028  2.5567  0.9487
   14DOPE  C314 1791   7.521   3.084  16.002 -0.3295  0.2769  0.0601
   14DOPE  H14X 1792   7.501   3.143  15.910  1.6190 -2.0471 -2.0236
   14DOPE  H14Y 1793   7.629   3.085  16.030 -0.2083 -0.9647 -0.2887
   14DOPE  C315 1794   7.447   3.144  16.122  0.2069 -0.3991  0.3174
   14DOPE  H15X 1795   7.462   3.083  16.214 -0.9130  1.7127  1.9899
   14DOPE  H15Y 1796   7.339   3.156  16.097  0.9028  2.1322 -2.0628
   14DOPE  C316 1797   7.492   3.290  16.144  0.7017 -1.2342 -0.1111
   14DOPE  H16X 1798   7.431   3.352  16.213  4.1537  1.3612  0.9170
   14DOPE  H16Y 1799   7.502   3.346  16.048 -0.7897  1.9343  1.4089
   14DOPE  C317 1800   7.627   3.292  16.222  0.7769  0.2071 -0.1211
   14DOPE  H17X 1801   7.601   3.238  16.316  0.2963 -1.0755 -0.9621
   14DOPE  H17Y 1802   7.697   3.220  16.174  0.3430 -0.0181 -0.4194
   14DOPE  C318 1803   7.691   3.425  16.241 -0.2211 -0.7898 -0.1082
   14DOPE  H18X 1804   7.791   3.409  16.286  0.5271 -1.0732 -1.8075
   14DOPE  H18Y 1805   7.701   3.476  16.143  1.6444 -1.9312 -0.5564
   14DOPE  H18Z 1806   7.636   3.492  16.311 -1.8354 -2.4750  0.3213
   15DOPE     N 1807   1.735   1.040  17.253  0.0255  0.0924 -0.3841
   15DOPE   HN1 1808   1.811   0.983  17.296  0.4771  1.0691  0.1482
   15DOPE   HN2 1809   1.654   1.022  17.315  1.8897 -1.2041  1.8430
   15DOPE   HN3 1810   1.720   1.003  17.157 -2.3684 -1.2547  0.4160
   15DOPE   C12 1811   1.772   1.184  17.245 -0.9675 -0.3942  0.1443
   15DOPE  H12A 1812   1.882   1.189  17.232 -0.7831  1.5920  2.0026
   15DOPE  H12B 1813   1.754   1.223  17.347 -1.1212 -0.0626 -0.0094
   15DOPE   C11 1814   1.685   1.261  17.141 -0.5373  0.6352  0.0586
   15DOPE  H11A 1815   1.720   1.366  17.145  0.2244  0.3653  0.6456
   15DOPE  H11B 1816   1.577   1.256  17.168 -0.7037 -0.0691 -0.7008
   15DOPE     P 1817   1.741   1.288  16.890 -0.4033  0.5484 -0.5941
   15DOPE   O13 1818   1.759   1.196  16.778 -0.0069  0.0742 -0.1088
   15DOPE   O14 1819   1.851   1.380  16.922 -0.9109  0.0101  0.2745
   15DOPE   O11 1820   1.613   1.373  16.874 -0.3178 -0.2994  0.1610
   15DOPE   O12 1821   1.704   1.209  17.012 -0.3197 -0.1369  0.8857
   15DOPE    C1 1822   1.490   1.312  16.838  0.0672 -0.1553 -0.4449
   15DOPE    HA 1823   1.406   1.369  16.884 -0.4017 -1.6885  0.6741
   15DOPE    HB 1824   1.490   1.211  16.884 -0.2237  0.6831  1.4901
   15DOPE    C2 1825   1.473   1.311  16.689 -0.2662 -0.3907  0.0831
   15DOPE    HS 1826   1.565   1.260  16.653  1.4343  1.9465  0.8500
   15DOPE   O21 1827   1.487   1.450  16.639  0.5123 -0.0921 -0.2852
   15DOPE   C21 1828   1.565   1.464  16.542 -0.2412 -0.3004 -0.2087
   15DOPE   O22 1829   1.621   1.376  16.475  0.2164  0.1329 -0.4939
   15DOPE   C22 1830   1.571   1.601  16.495 -0.3895 -0.1887  0.5194
   15DOPE   H2R 1831   1.679   1.618  16.473 -0.5155 -0.9856 -0.7958
   15DOPE   H2S 1832   1.553   1.671  16.579 -0.9727 -0.4838  0.6447
   15DOPE    C3 1833   1.337   1.250  16.641 -0.3543  0.1755  0.6256
   15DOPE    HX 1834   1.259   1.324  16.670 -0.0597  0.7409  0.0205
   15DOPE    HY 1835   1.308   1.160  16.699 -3.6722  0.2668 -0.6658
   15DOPE   O31 1836   1.327   1.230  16.498 -0.8580  0.1041 -0.4858
   15DOPE   C31 1837   1.394   1.128  16.443 -0.5195  0.1798  0.5214
   15DOPE   O32 1838   1.459   1.046  16.502  0.6053 -0.0468  0.1162
   15DOPE   C32 1839   1.375   1.128  16.288 -0.9013  0.3068 -0.6384
   15DOPE   H2X 1840   1.429   1.044  16.240 -0.0855  0.5709 -0.2100
   15DOPE   H2Y 1841   1.266   1.112  16.275 -0.7761 -3.1734  1.4696
   15DOPE   C23 1842   1.497   1.634  16.364  0.4536  0.1626 -0.1616
   15DOPE   H3R 1843   1.390   1.605  16.362  1.1872 -2.7782 -2.4705
   15DOPE   H3S 1844   1.545   1.572  16.285 -2.6033 -3.0440  0.2507
   15DOPE   C24 1845   1.519   1.774  16.310 -0.4259 -0.3381 -0.1020
   15DOPE   H4R 1846   1.626   1.795  16.286 -0.3464 -0.0648  0.4905
   15DOPE   H4S 1847   1.481   1.839  16.391  0.6480  0.1634  0.0142
   15DOPE   C25 1848   1.438   1.795  16.178 -0.3561 -1.0541  0.6477
   15DOPE   H5R 1849   1.331   1.774  16.196 -0.4508  0.7939  2.5949
   15DOPE   H5S 1850   1.463   1.729  16.091 -1.6754  0.9533 -1.3630
   15DOPE   C26 1851   1.434   1.942  16.120  0.2573  0.0925  0.0711
   15DOPE   H6R 1852   1.531   1.980  16.083  0.3095 -0.9411 -0.8843
   15DOPE   H6S 1853   1.399   1.999  16.209 -1.2175 -0.5154 -0.0810
   15DOPE   C27 1854   1.327   1.962  16.012 -0.0581 -0.4633 -0.0928
   15DOPE   H7R 1855   1.233   1.924  16.057 -0.1047  0.3651  0.5366
   15DOPE   H7S 1856   1.355   1.900  15.924 -0.5593 -2.0382  0.8270
   15DOPE   C28 1857   1.305   2.113  15.981 -0.1284  0.3156 -0.3856
   15DOPE   H8R 1858   1.399   2.162  15.949  0.1366  1.2302  1.6327
   15DOPE   H8S 1859   1.276   2.165  16.075 -0.2311 -3.4746  1.9077
   15DOPE   C29 1860   1.202   2.139  15.876  0.9314 -0.4541  0.1350
   15DOPE   H9R 1861   1.100   2.110  15.907  1.1663  1.4117  3.0089
   15DOPE  C210 1862   1.214   2.175  15.750 -0.5133 -0.2178  0.6717
   15DOPE  H10R 1863   1.122   2.183  15.692 -0.6549  0.8893  1.0161
   15DOPE  C211 1864   1.338   2.215  15.675  0.9518 -0.4077  0.0465
   15DOPE  H11R 1865   1.431   2.174  15.721  0.1540 -2.6791 -0.2662
   15DOPE  H11S 1866   1.343   2.326  15.683  3.3318 -0.2201 -2.5419
   15DOPE  C212 1867   1.334   2.154  15.533 -0.4307 -0.0110  0.2624
   15DOPE  H12R 1868   1.329   2.043  15.535  0.0579 -0.0462 -0.2537
   15DOPE  H12S 1869   1.429   2.184  15.484 -0.2001 -1.4044 -0.2006
   15DOPE  C213 1870   1.219   2.212  15.452  0.1922  0.0009 -0.2126
   15DOPE  H13R 1871   1.218   2.320  15.474 -0.4135 -0.0628  0.0769
   15DOPE  H13S 1872   1.121   2.169  15.483  1.4972 -1.5372  2.1228
   15DOPE  C214 1873   1.224   2.189  15.298  0.1916  0.2707 -0.1690
   15DOPE  H14R 1874   1.228   2.081  15.273  0.4596  0.2114  0.1208
   15DOPE  H14S 1875   1.309   2.237  15.245 -0.6781  1.6967 -0.3265
   15DOPE  C215 1876   1.110   2.254  15.227  0.9409  0.0628  0.2605
   15DOPE  H15R 1877   1.113   2.362  15.254  1.6612  0.3710 -0.9800
   15DOPE  H15S 1878   1.012   2.210  15.258 -0.0654  2.1639  0.2694
   15DOPE  C216 1879   1.109   2.231  15.074  0.1054  0.2567 -0.1398
   15DOPE  H16R 1880   1.129   2.124  15.054  0.0268  0.5973 -2.2637
   15DOPE  H16S 1881   1.192   2.295  15.037  0.6361  0.3300  1.1165
   15DOPE  C217 1882   0.982   2.258  14.999  0.5709 -0.8750  0.1929
   15DOPE  H17R 1883   0.962   2.363  15.028 -0.3023 -0.9456 -0.1397
   15DOPE  H17S 1884   0.909   2.185  15.040  1.2009 -1.9388 -0.5396
   15DOPE  C218 1885   1.002   2.258  14.848  0.2119 -0.0982 -0.6885
   15DOPE  H18R 1886   0.909   2.296  14.799 -0.7447 -1.4264  0.0336
   15DOPE  H18S 1887   1.015   2.156  14.807  2.8581 -0.2041  0.2236
   15DOPE  H18T 1888   1.091   2.317  14.819  2.0979 -1.9469  1.0072
   15DOPE   C33 1889   1.399   1.266  16.228 -0.2802  0.0600 -0.4916
   15DOPE   H3X 1890   1.510   1.273  16.219 -0.3593  0.5476 -1.2348
   15DOPE   H3Y 1891   1.374   1.354  16.292 -1.7277  0.3550 -1.4057
   15DOPE   C34 1892   1.336   1.283  16.089 -0.2002  0.2084 -0.5222
   15DOPE   H4X 1893   1.397   1.222  16.018  1.6235  0.7333  0.5200
   15DOPE   H4Y 1894   1.237   1.233  16.088  0.6346 -1.5226 -0.9065
   15DOPE   C35 1895   1.343   1.428  16.037 -0.2390  0.7369  0.0531
   15DOPE   H5X 1896   1.447   1.464  16.046 -0.0599  0.8511 -2.0073
   15DOPE   H5Y 1897   1.289   1.488  16.114  1.1599  0.8202  1.0030
   15DOPE   C36 1898   1.301   1.447  15.896  0.5124 -0.1091 -0.3077
   15DOPE   H6X 1899   1.194   1.417  15.891  0.4157  0.1685  0.1269
   15DOPE   H6Y 1900   1.353   1.365  15.841 -1.7116 -1.3963 -0.6181
   15DOPE   C37 1901   1.320   1.586  15.847 -1.2909 -0.0865  0.1593
   15DOPE   H7X 1902   1.300   1.666  15.922  1.7805  1.4668 -0.5040
   15DOPE   H7Y 1903   1.427   1.607  15.825 -1.1766 -1.4806 -0.7002
   15DOPE   C38 1904   1.230   1.614  15.726  0.4651  0.2603 -0.1451
   15DOPE   H8X 1905   1.243   1.722  15.705 -0.7114  0.5917  0.7415
   15DOPE   H8Y 1906   1.124   1.608  15.759 -0.0030  0.5860 -1.5201
   15DOPE   C39 1907   1.259   1.523  15.605  0.3254 -0.4064  1.2652
   15DOPE   H9X 1908   1.207   1.426  15.603 -1.2156  0.3904 -0.9079
   15DOPE  C310 1909   1.344   1.563  15.508  0.0118  0.3347  0.2144
   15DOPE  H10X 1910   1.359   1.488  15.429 -2.3844 -1.1563  1.0556
   15DOPE  C311 1911   1.419   1.700  15.499 -0.1020  0.2507  0.2364
   15DOPE  H11X 1912   1.407   1.769  15.586  1.2060  1.1756 -0.2947
   15DOPE  H11Y 1913   1.529   1.682  15.493  0.1653  1.9696 -0.5120
   15DOPE  C312 1914   1.376   1.786  15.382  0.0858 -0.1352  0.3402
   15DOPE  H12X 1915   1.427   1.885  15.389 -0.0713  0.0141 -0.5688
   15DOPE  H12Y 1916   1.271   1.820  15.395  0.3955  0.1883  2.4456
   15DOPE  C313 1917   1.401   1.722  15.243 -0.3387  0.3228  0.0224
   15DOPE  H13X 1918   1.509   1.695  15.232 -0.3236  0.7129 -0.8560
   15DOPE  H13Y 1919   1.338   1.632  15.226 -0.3408  0.2425  0.4398
   15DOPE  C314 1920   1.361   1.818  15.131 -0.6114  0.5128 -0.1918
   15DOPE  H14X 1921   1.430   1.903  15.151  2.2046 -1.4146 -1.1227
   15DOPE  H14Y 1922   1.256   1.850  15.148 -1.0142 -1.1127  0.5408
   15DOPE  C315 1923   1.385   1.779  14.982  0.0017  0.1280 -1.0570
   15DOPE  H15X 1924   1.327   1.685  14.967 -1.7505  1.0085 -0.1829
   15DOPE  H15Y 1925   1.489   1.742  14.977 -0.3868 -0.9208 -1.6169
   15DOPE  C316 1926   1.336   1.879  14.879 -1.1371  0.3195  0.6071
   15DOPE  H16X 1927   1.229   1.895  14.901 -0.9365  2.2627  0.2855
   15DOPE  H16Y 1928   1.361   1.841  14.778  3.0758  0.1303  1.5122
   15DOPE  C317 1929   1.397   2.027  14.888  0.2668  0.4393  0.4046
   15DOPE  H17X 1930   1.369   2.073  14.985  0.6619 -0.7594  1.1214
   15DOPE  H17Y 1931   1.508   2.016  14.890  0.2603  0.2076 -0.3976
   15DOPE  C318 1932   1.348   2.121  14.781  0.0853 -0.3812  0.9540
   15DOPE  H18X 1933   1.390   2.224  14.789  1.4221 -0.8396  0.1954
   15DOPE  H18Y 1934   1.386   2.084  14.683  2.8888 -0.0590  1.8340
   15DOPE  H18Z 1935   1.237   2.120  14.770  0.2052 -1.5579 -0.3278
   16DOPE     N 1936   7.098   2.377  16.857 -0.2921  0.4587  0.3487
   16DOPE   HN1 1937   7.173   2.421  16.914  0.6543 -0.3388 -0.2424
   16DOPE   HN2 1938   7.004   2.407  16.888 -0.6262  1.2295 -1.3080
   16DOPE   HN3 1939   7.099   2.274  16.868 -1.3023  0.4090  0.0938
   16DOPE   C12 1940   7.107   2.427  16.714  0.3929  0.1226 -0.1278
   16DOPE  H12A 1941   7.029   2.505  16.700 -0.4622 -0.2794  1.9930
   16DOPE  H12B 1942   7.068   2.344  16.650 -2.1836  0.9173  0.2851
   16DOPE   C11 1943   7.247   2.459  16.689  0.3581  0.2742 -0.0872
   16DOPE  H11A 1944   7.264   2.469  16.580  2.4379  2.8232  0.3707
   16DOPE  H11B 1945   7.317   2.378  16.717  0.0181 -0.3194 -0.9294
   16DOPE     P 1946   7.437   2.601  16.792  0.1812  0.2312 -0.1078
   16DOPE   O13 1947   7.499   2.498  16.882  0.1629 -0.0338  0.0047
   16DOPE   O14 1948   7.463   2.740  16.839 -0.1243 -0.1928 -0.5320
   16DOPE   O11 1949   7.495   2.580  16.651 -0.0220  0.4618 -0.3980
   16DOPE   O12 1950   7.283   2.572  16.771 -0.0235  0.0024  0.0427
   16DOPE    C1 1951   7.630   2.544  16.625 -0.3410 -0.2012  0.0267
   16DOPE    HA 1952   7.651   2.448  16.676 -0.1405 -0.4611 -0.5349
   16DOPE    HB 1953   7.705   2.617  16.662 -1.6792  2.3176 -1.8882
   16DOPE    C2 1954   7.658   2.527  16.475 -0.4152 -0.1604  0.0047
   16DOPE    HS 1955   7.762   2.497  16.451 -0.7600 -2.0818  0.7655
   16DOPE   O21 1956   7.627   2.649  16.403  0.1044  0.2744 -0.0373
   16DOPE   C21 1957   7.717   2.746  16.409 -0.4544 -0.4402  0.1947
   16DOPE   O22 1958   7.812   2.757  16.485  0.4676 -0.0553  0.4222
   16DOPE   C22 1959   7.683   2.859  16.313 -0.0626 -0.0866  0.2767
   16DOPE   H2R 1960   7.626   2.926  16.382  3.0518  1.5062  1.4755
   16DOPE   H2S 1961   7.633   2.812  16.226  3.1540 -2.1236 -0.6389
   16DOPE    C3 1962   7.572   2.411  16.424  0.3810  1.0437 -0.0569
   16DOPE    HX 1963   7.467   2.445  16.416  0.6562  2.1623  0.8267
   16DOPE    HY 1964   7.587   2.318  16.482 -0.8480 -1.0739 -2.8906
   16DOPE   O31 1965   7.613   2.363  16.295  0.1930 -0.0482  0.3964
   16DOPE   C31 1966   7.544   2.259  16.251  0.7029  0.0479 -0.3869
   16DOPE   O32 1967   7.461   2.202  16.316 -0.4210  0.2088 -1.1035
   16DOPE   C32 1968   7.588   2.237  16.107 -0.1482  0.0179 -0.1597
   16DOPE   H2X 1969   7.614   2.333  16.058  0.7792  0.0384  0.3462
   16DOPE   H2Y 1970   7.678   2.172  16.113 -1.0979 -1.3056  0.2299
   16DOPE   C23 1971   7.798   2.945  16.276 -0.3026  0.6648  0.1938
   16DOPE   H3R 1972   7.840   2.992  16.368 -2.9539  0.9621  1.3540
   16DOPE   H3S 1973   7.766   3.026  16.207 -1.8559 -1.1098 -1.2761
   16DOPE   C24 1974   7.906   2.879  16.193  0.0104 -0.3975 -0.3461
   16DOPE   H4R 1975   7.863   2.828  16.104 -1.6520  1.9640 -0.9874
   16DOPE   H4S 1976   7.957   2.805  16.258 -0.2599  0.0464  0.3791
   16DOPE   C25 1977   8.001   2.979  16.142  0.2003  0.1887  0.2822
   16DOPE   H5R 1978   8.092   2.989  16.205 -0.5323 -0.2805  1.4429
   16DOPE   H5S 1979   7.965   3.085  16.137 -4.0812 -0.9384  2.3299
   16DOPE   C26 1980   8.052   2.934  16.004 -0.2504 -0.0026  0.5088
   16DOPE   H6R 1981   7.967   2.915  15.935 -2.4054  2.7359  2.1922
   16DOPE   H6S 1982   8.100   2.834  16.016 -1.9467 -0.9195  0.0021
   16DOPE   C27 1983   8.159   3.029  15.940 -0.2719 -0.4731 -0.3015
   16DOPE   H7R 1984   8.230   3.081  16.007  1.4579 -1.3461 -1.3965
   16DOPE   H7S 1985   8.095   3.115  15.909  0.6710 -0.1449 -1.3999
   16DOPE   C28 1986   8.243   2.977  15.820  0.9194  0.2790 -0.6053
   16DOPE   H8R 1987   8.325   3.048  15.797  2.3250 -2.1916 -3.9809
   16DOPE   H8S 1988   8.178   2.965  15.730 -2.2916  1.3750  1.3759
   16DOPE   C29 1989   8.312   2.847  15.867 -0.2579  0.3550  0.7818
   16DOPE   H9R 1990   8.288   2.752  15.818  0.6279 -0.8376  2.5548
   16DOPE  C210 1991   8.428   2.832  15.938  0.1848 -0.1024  0.1383
   16DOPE  H10R 1992   8.464   2.728  15.936 -1.0068 -0.5797  1.7437
   16DOPE  C211 1993   8.502   2.941  16.013  0.0689 -0.0014  0.0344
   16DOPE  H11R 1994   8.517   2.922  16.122  0.2355 -0.3535 -0.0495
   16DOPE  H11S 1995   8.436   3.030  16.014  0.1755  0.0813  1.2383
   16DOPE  C212 1996   8.642   2.981  15.969  0.6012  0.0098  0.6971
   16DOPE  H12R 1997   8.712   2.895  15.979 -0.5663 -0.9436  0.8923
   16DOPE  H12S 1998   8.682   3.060  16.036 -0.4324  0.4743  0.7830
   16DOPE  C213 1999   8.650   3.033  15.829  0.1154  0.5013 -0.6515
   16DOPE  H13R 2000   8.564   3.104  15.822 -0.4552 -0.2743 -1.8466
   16DOPE  H13S 2001   8.628   2.950  15.759 -0.4505 -0.3444  0.4933
   16DOPE  C214 2002   8.775   3.108  15.783  0.3359  0.3986  0.2360
   16DOPE  H14R 2003   8.858   3.045  15.821  0.2770 -0.1723 -0.5596
   16DOPE  H14S 2004   8.780   3.204  15.840 -2.2199 -0.0121  1.2832
   16DOPE  C215 2005   8.802   3.123  15.634 -0.8987  0.8191 -0.1836
   16DOPE  H15R 2006   8.778   3.024  15.589 -1.5428 -0.2373  2.3127
   16DOPE  H15S 2007   8.911   3.139  15.631 -0.1345 -2.6507  2.6469
   16DOPE  C216 2008   8.710   3.226  15.564 -0.4576  0.2376 -0.0697
   16DOPE  H16R 2009   8.735   3.332  15.586  0.1077  0.1670 -0.3712
   16DOPE  H16S 2010   8.610   3.212  15.611 -0.7535  1.3820 -0.3338
   16DOPE  C217 2011   8.701   3.215  15.412 -0.2978  0.4408 -0.0814
   16DOPE  H17R 2012   8.700   3.108  15.379  1.6833  1.1475 -2.7870
   16DOPE  H17S 2013   8.791   3.260  15.366 -0.9579  1.4194 -0.4292
   16DOPE  C218 2014   8.581   3.279  15.349 -0.1755 -0.0800 -0.6646
   16DOPE  H18R 2015   8.600   3.288  15.240  0.3208  0.5933 -0.5319
   16DOPE  H18S 2016   8.562   3.381  15.389 -0.3321 -0.4268  0.1731
   16DOPE  H18T 2017   8.489   3.221  15.372  0.1205 -0.3600 -0.1572
   16DOPE   C33 2018   7.474   2.175  16.023 -0.5229  0.0101  0.9438
   16DOPE   H3X 2019   7.397   2.250  15.997 -2.2573 -1.3547  1.9231
   16DOPE   H3Y 2020   7.414   2.106  16.086 -0.6606  0.6447  1.5263
   16DOPE   C34 2021   7.520   2.113  15.896  0.0563  0.7048  0.5095
   16DOPE   H4X 2022   7.623   2.080  15.921  0.0486  0.8187  0.6928
   16DOPE   H4Y 2023   7.447   2.038  15.861 -0.2803  1.3429 -0.1829
   16DOPE   C35 2024   7.522   2.209  15.783  0.3143 -1.0553 -0.0391
   16DOPE   H5X 2025   7.593   2.292  15.806  0.2083  0.0281 -3.0670
   16DOPE   H5Y 2026   7.425   2.253  15.751  0.6320  0.0591  0.4695
   16DOPE   C36 2027   7.576   2.139  15.659 -0.4147 -0.1816  0.2702
   16DOPE   H6X 2028   7.655   2.063  15.679 -1.6976 -1.8272 -0.6466
   16DOPE   H6Y 2029   7.612   2.218  15.590  1.2606 -0.8684  0.3053
   16DOPE   C37 2030   7.481   2.069  15.559  0.5388 -0.6774  0.0801
   16DOPE   H7X 2031   7.419   2.001  15.622  0.6262  0.6156  1.6428
   16DOPE   H7Y 2032   7.408   2.137  15.509 -0.3274  0.4957  2.7490
   16DOPE   C38 2033   7.551   1.978  15.461  0.3549  0.0763  0.2821
   16DOPE   H8X 2034   7.475   1.918  15.407  0.7942 -1.9754  1.7770
   16DOPE   H8Y 2035   7.602   1.904  15.527 -1.0107  0.2494  1.5842
   16DOPE   C39 2036   7.643   2.055  15.370 -0.2539  0.0568  0.9026
   16DOPE   H9X 2037   7.721   2.115  15.419  1.2595 -2.7676  2.2026
   16DOPE  C310 2038   7.622   2.083  15.235 -0.0659 -0.0572 -0.1399
   16DOPE  H10X 2039   7.694   2.151  15.187  0.8973 -0.9462 -0.0075
   16DOPE  C311 2040   7.517   2.016  15.155 -0.3993 -0.1849 -0.0968
   16DOPE  H11X 2041   7.460   1.931  15.199 -0.6537 -0.4625 -0.9307
   16DOPE  H11Y 2042   7.443   2.089  15.116 -1.4213  0.7155  3.1997
   16DOPE  C312 2043   7.577   1.944  15.033  0.0840 -0.0871 -0.9593
   16DOPE  H12X 2044   7.667   1.882  15.057  0.0522  0.5118  0.8545
   16DOPE  H12Y 2045   7.615   2.018  14.960 -0.7860  0.0455 -1.2850
   16DOPE  C313 2046   7.485   1.853  14.950  0.0918  0.0517 -0.2379
   16DOPE  H13X 2047   7.534   1.834  14.852  0.5767 -0.3714  0.0878
   16DOPE  H13Y 2048   7.472   1.758  15.005  1.5502 -0.3842 -0.6154
   16DOPE  C314 2049   7.348   1.911  14.921  0.0248 -0.1005 -0.1117
   16DOPE  H14X 2050   7.359   2.013  14.879  2.4989  0.0020  0.6260
   16DOPE  H14Y 2051   7.299   1.912  15.020 -1.1445 -2.8113 -0.5545
   16DOPE  C315 2052   7.268   1.830  14.819  0.2646  0.3541  0.1171
   16DOPE  H15X 2053   7.310   1.839  14.717  2.2759 -0.7065  0.8011
   16DOPE  H15Y 2054   7.166   1.874  14.817 -0.1826 -0.6376  0.3432
   16DOPE  C316 2055   7.252   1.681  14.841  0.2165  0.0408 -0.1425
   16DOPE  H16X 2056   7.211   1.658  14.942  0.0602 -1.8619 -0.5916
   16DOPE  H16Y 2057   7.352   1.634  14.830  0.9301  1.0026  1.7213
   16DOPE  C317 2058   7.157   1.608  14.744  0.7159  1.4216  0.1911
   16DOPE  H17X 2059   7.067   1.673  14.745  0.8241  1.5712  1.1341
   16DOPE  H17Y 2060   7.203   1.611  14.643  2.8458 -0.7264  1.0052
   16DOPE  C318 2061   7.143   1.464  14.765  0.0472 -0.7209  0.5870
   16DOPE  H18X 2062   7.080   1.420  14.685  0.8463  2.0124 -1.6943
   16DOPE  H18Y 2063   7.236   1.404  14.770  0.1417 -0.8561 -1.7439
   16DOPE  H18Z 2064   7.094   1.449  14.864 -2.6069 -1.6290 -0.7561
   17DOPE     N 2065   2.456   6.470  17.089  0.1921 -0.4301 -0.4763
   17DOPE   HN1 2066   2.421   6.545  17.026  1.6755  0.4842 -0.2548
   17DOPE   HN2 2067   2.478   6.381  17.039 -0.3491 -0.7639 -0.1362
   17DOPE   HN3 2068   2.373   6.450  17.149  1.9624 -1.2177  1.8540
   17DOPE   C12 2069   2.567   6.511  17.180  0.2371 -0.5646  0.0404
   17DOPE  H12A 2070   2.603   6.423  17.236 -1.2397 -0.3914  1.3341
   17DOPE  H12B 2071   2.527   6.588  17.250 -0.6801 -1.2801  0.3264
   17DOPE   C11 2072   2.686   6.586  17.104 -0.3094  0.1568  0.4392
   17DOPE  H11A 2073   2.735   6.512  17.037 -0.6469 -0.0755  0.4438
   17DOPE  H11B 2074   2.765   6.619  17.175  0.0572  0.3003 -0.0338
   17DOPE     P 2075   2.729   6.742  16.903  0.4130  0.0470 -0.6191
   17DOPE   O13 2076   2.839   6.819  16.971 -0.3471  0.2994 -0.1748
   17DOPE   O14 2077   2.642   6.818  16.811 -0.4330  0.3515  0.1949
   17DOPE   O11 2078   2.781   6.606  16.840 -0.3465 -0.5972 -0.0334
   17DOPE   O12 2079   2.638   6.692  17.020 -0.4595 -0.0934  0.4874
   17DOPE    C1 2080   2.903   6.597  16.759 -0.2475  0.0738 -0.7662
   17DOPE    HA 2081   2.953   6.498  16.763 -0.4622 -0.0545 -1.1715
   17DOPE    HB 2082   2.981   6.667  16.795 -3.1619  2.1873  1.9610
   17DOPE    C2 2083   2.877   6.622  16.608  0.1475 -0.3327  0.2179
   17DOPE    HS 2084   2.844   6.728  16.601 -1.4566 -0.8029  0.2634
   17DOPE   O21 2085   2.763   6.537  16.565  0.1128 -0.0658 -0.4754
   17DOPE   C21 2086   2.695   6.578  16.464  0.0386 -0.6899 -0.4296
   17DOPE   O22 2087   2.702   6.687  16.403  0.0505 -0.4700 -0.8550
   17DOPE   C22 2088   2.607   6.468  16.414  0.1153  0.4852  0.7060
   17DOPE   H2R 2089   2.546   6.429  16.498 -2.1247 -0.9617 -1.4655
   17DOPE   H2S 2090   2.672   6.383  16.384 -1.1650 -0.1612 -0.3194
   17DOPE    C3 2091   2.999   6.609  16.513  0.3741  0.2102  0.4596
   17DOPE    HX 2092   3.024   6.501  16.504 -1.3249 -0.1665 -0.2808
   17DOPE    HY 2093   3.086   6.653  16.565  0.2762 -2.5249  3.2604
   17DOPE   O31 2094   2.962   6.651  16.379 -0.6024 -0.1769 -0.3129
   17DOPE   C31 2095   2.985   6.779  16.362 -0.4868  0.2917 -0.1923
   17DOPE   O32 2096   3.028   6.862  16.443 -0.5224  0.3437 -0.0172
   17DOPE   C32 2097   2.960   6.802  16.213  0.3087 -0.5400  0.3360
   17DOPE   H2X 2098   2.863   6.854  16.197  0.6448  0.7917  2.2932
   17DOPE   H2Y 2099   3.031   6.881  16.180 -0.4355 -0.7117 -1.8784
   17DOPE   C23 2100   2.523   6.498  16.286 -0.6579 -0.5048 -0.3377
   17DOPE   H3R 2101   2.473   6.593  16.314 -3.0138 -2.5980  3.3729
   17DOPE   H3S 2102   2.438   6.426  16.291 -1.2991  0.3506  3.0443
   17DOPE   C24 2103   2.599   6.506  16.148  0.0037  0.3939 -0.5835
   17DOPE   H4R 2104   2.661   6.416  16.130  2.0001  1.5082  0.3038
   17DOPE   H4S 2105   2.663   6.597  16.149 -0.8782  1.0278 -0.0302
   17DOPE   C25 2106   2.505   6.511  16.027 -0.2420  0.0182 -0.5538
   17DOPE   H5R 2107   2.450   6.607  16.042 -0.4218 -0.4030  1.9809
   17DOPE   H5S 2108   2.429   6.430  16.036 -1.3283  1.1065  0.3850
   17DOPE   C26 2109   2.571   6.489  15.893  0.3322  0.1770 -0.2625
   17DOPE   H6R 2110   2.635   6.398  15.893  0.7906  0.4966 -0.1217
   17DOPE   H6S 2111   2.636   6.576  15.873  0.0633 -0.0036 -2.0713
   17DOPE   C27 2112   2.476   6.472  15.776  0.1403 -0.2703  0.2500
   17DOPE   H7R 2113   2.384   6.533  15.785  0.5171  0.8832 -2.7277
   17DOPE   H7S 2114   2.436   6.370  15.798  1.2919 -1.1776 -1.6148
   17DOPE   C28 2115   2.524   6.489  15.630  0.1969  0.1914 -0.0313
   17DOPE   H8R 2116   2.586   6.580  15.637  1.4399 -0.4035 -2.2347
   17DOPE   H8S 2117   2.440   6.513  15.561  1.8691  0.7677 -1.9837
   17DOPE   C29 2118   2.604   6.365  15.578 -0.2298  0.1072  0.4955
   17DOPE   H9R 2119   2.706   6.352  15.618  0.5423  1.1434 -1.0265
   17DOPE  C210 2120   2.572   6.284  15.474 -0.0872  0.4774  0.7412
   17DOPE  H10R 2121   2.640   6.204  15.440 -1.1605 -0.7153  1.3049
   17DOPE  C211 2122   2.447   6.289  15.389 -0.3901 -0.6215 -0.3606
   17DOPE  H11R 2123   2.473   6.302  15.282 -0.2953 -0.7898 -0.3589
   17DOPE  H11S 2124   2.385   6.374  15.425  1.7879  0.8567  0.0843
   17DOPE  C212 2125   2.375   6.152  15.403 -0.0709 -0.3252 -0.6286
   17DOPE  H12R 2126   2.446   6.070  15.381  2.7143  1.0828  2.2679
   17DOPE  H12S 2127   2.302   6.145  15.320 -0.7026  3.4540 -0.5715
   17DOPE  C213 2128   2.300   6.114  15.530  0.1798 -0.6082  0.1155
   17DOPE  H13R 2129   2.370   6.080  15.609  3.1190  0.7940 -1.7261
   17DOPE  H13S 2130   2.242   6.024  15.502 -0.5776  0.0250 -0.4052
   17DOPE  C214 2131   2.204   6.233  15.570 -0.5410 -0.5421 -0.1548
   17DOPE  H14R 2132   2.141   6.265  15.485 -1.6109 -2.5129 -0.1498
   17DOPE  H14S 2133   2.261   6.322  15.606 -0.3142 -0.5498 -0.4886
   17DOPE  C215 2134   2.113   6.200  15.688 -0.4146  0.3083 -0.5645
   17DOPE  H15R 2135   2.077   6.095  15.693  0.8804 -0.3865 -3.8369
   17DOPE  H15S 2136   2.024   6.265  15.671  0.3231  1.1582 -1.3053
   17DOPE  C216 2137   2.188   6.234  15.823  0.7611  0.2633  0.2037
   17DOPE  H16R 2138   2.215   6.342  15.817 -1.0053  0.6774 -1.6764
   17DOPE  H16S 2139   2.283   6.176  15.820  0.4356 -0.3554  1.4702
   17DOPE  C217 2140   2.109   6.208  15.951 -0.1122 -0.6977 -0.0918
   17DOPE  H17R 2141   2.024   6.280  15.944  2.9845  3.4602  0.9112
   17DOPE  H17S 2142   2.165   6.251  16.037 -1.3969 -1.3824  1.1468
   17DOPE  C218 2143   2.051   6.066  15.977 -0.1548  0.2267 -0.9560
   17DOPE  H18R 2144   2.141   6.002  15.980 -0.0909  0.3207  2.0877
   17DOPE  H18S 2145   1.998   6.043  15.882 -0.8567 -1.6973 -0.1411
   17DOPE  H18T 2146   1.990   6.054  16.070 -1.1367  1.6718 -1.3623
   17DOPE   C33 2147   3.001   6.686  16.117  0.2444  0.2911 -0.0220
   17DOPE   H3X 2148   2.965   6.588  16.154 -1.8509  1.1815  0.4262
   17DOPE   H3Y 2149   3.112   6.682  16.107  0.1906 -0.3228 -0.4664
   17DOPE   C34 2150   2.934   6.708  15.975  0.0356  0.3225  0.0355
   17DOPE   H4X 2151   2.830   6.741  15.993 -0.0261  0.1193  0.0438
   17DOPE   H4Y 2152   2.990   6.783  15.914  3.5935  0.2197  2.8760
   17DOPE   C35 2153   2.921   6.580  15.892 -0.0579  1.1042 -0.4290
   17DOPE   H5X 2154   2.829   6.533  15.933 -0.7194  1.6744 -1.2213
   17DOPE   H5Y 2155   3.010   6.513  15.901  0.1547  1.5161  0.6202
   17DOPE   C36 2156   2.904   6.612  15.740 -0.6903 -0.2496 -0.3626
   17DOPE   H6X 2157   2.964   6.705  15.723 -0.0332 -0.9276 -1.9934
   17DOPE   H6Y 2158   2.795   6.630  15.726 -0.9244 -1.2869  0.1063
   17DOPE   C37 2159   2.967   6.515  15.637 -0.2578 -0.6078  0.0154
   17DOPE   H7X 2160   3.067   6.477  15.667 -0.8808 -0.3377  2.6960
   17DOPE   H7Y 2161   2.900   6.427  15.627 -1.0109  0.2092 -2.9761
   17DOPE   C38 2162   2.973   6.579  15.488 -0.8291  0.1356 -1.0233
   17DOPE   H8X 2163   3.023   6.678  15.497  1.1122 -0.7754 -1.5319
   17DOPE   H8Y 2164   2.867   6.607  15.467 -0.3700  1.4261 -1.7697
   17DOPE   C39 2165   3.042   6.486  15.387 -0.1910  0.7436  0.1765
   17DOPE   H9X 2166   3.152   6.485  15.391 -0.2040 -0.4804  0.5138
   17DOPE  C310 2167   2.985   6.394  15.305  0.2228 -0.1882  0.1623
   17DOPE  H10X 2168   3.056   6.327  15.255  1.3952  0.2598  1.1673
   17DOPE  C311 2169   2.837   6.379  15.294  0.2092  0.0711  0.3529
   17DOPE  H11X 2170   2.814   6.302  15.371 -1.4561  0.3964  0.2045
   17DOPE  H11Y 2171   2.785   6.475  15.315  0.3607 -0.0095  1.1303
   17DOPE  C312 2172   2.797   6.346  15.151 -0.4942  0.4124 -0.1748
   17DOPE  H12X 2173   2.835   6.421  15.079  1.3220  0.3917  0.7246
   17DOPE  H12Y 2174   2.689   6.373  15.153 -0.9768 -1.3288  2.6549
   17DOPE  C313 2175   2.812   6.203  15.109 -0.2003  0.0773  0.0853
   17DOPE  H13X 2176   2.920   6.176  15.114 -0.5812 -1.3166  1.8885
   17DOPE  H13Y 2177   2.744   6.138  15.168 -5.3201  3.1474 -1.8212
   17DOPE  C314 2178   2.766   6.189  14.968  0.2602 -0.1185  0.4142
   17DOPE  H14X 2179   2.796   6.284  14.919  1.3545 -0.6717  0.0024
   17DOPE  H14Y 2180   2.655   6.187  14.959  0.3769 -0.1393 -1.4179
   17DOPE  C315 2181   2.830   6.074  14.893 -0.3167  0.3842  0.5960
   17DOPE  H15X 2182   2.939   6.090  14.881 -0.1896  0.2563  1.4656
   17DOPE  H15Y 2183   2.794   6.056  14.789  0.7947 -0.9075  0.3992
   17DOPE  C316 2184   2.815   5.933  14.948  0.3167 -0.0908  0.4419
   17DOPE  H16X 2185   2.706   5.920  14.963  0.2666 -1.2426 -0.7582
   17DOPE  H16Y 2186   2.873   5.926  15.043  0.4635  0.9347  0.4368
   17DOPE  C317 2187   2.868   5.819  14.857 -0.3101  0.0491 -0.0246
   17DOPE  H17X 2188   2.972   5.836  14.821 -0.3891 -3.3183 -2.1826
   17DOPE  H17Y 2189   2.866   5.729  14.922 -1.6326 -0.6669 -1.0375
   17DOPE  C318 2190   2.792   5.780  14.730  0.0545 -0.1849  0.1111
   17DOPE  H18X 2191   2.812   5.855  14.651 -1.3466 -1.8630 -1.9377
   17DOPE  H18Y 2192   2.821   5.680  14.692  1.0223 -0.3595  1.2525
   17DOPE  H18Z 2193   2.687   5.763  14.764  0.0139  0.4047  0.2919
   18DOPE     N 2194   1.160   2.325  17.195  0.2777  0.4227  0.6933
   18DOPE   HN1 2195   1.137   2.367  17.287  0.8016  1.8229  0.2035
   18DOPE   HN2 2196   1.136   2.225  17.212 -0.7511  0.8259  1.7461
   18DOPE   HN3 2197   1.261   2.342  17.179  0.1317  0.7829  0.1486
   18DOPE   C12 2198   1.071   2.360  17.083 -0.7519 -0.3942 -0.2976
   18DOPE  H12A 2199   1.109   2.303  16.996 -0.6192 -1.8086  0.6541
   18DOPE  H12B 2200   1.078   2.471  17.077 -2.8873 -0.2138 -0.3063
   18DOPE   C11 2201   0.926   2.322  17.126  0.7185 -0.3819 -0.2092
   18DOPE  H11A 2202   0.858   2.359  17.047  2.2757  1.2748 -0.8478
   18DOPE  H11B 2203   0.891   2.376  17.217 -2.5676 -1.3172 -0.8035
   18DOPE     P 2204   0.785   2.107  17.157 -0.0225 -0.2390 -0.0311
   18DOPE   O13 2205   0.696   2.166  17.263 -0.2959 -0.0303 -0.0137
   18DOPE   O14 2206   0.809   1.960  17.167  0.1864 -0.3229  0.3414
   18DOPE   O11 2207   0.712   2.132  17.014 -0.0076 -0.0937 -0.2869
   18DOPE   O12 2208   0.924   2.187  17.147  0.1713 -0.9556  0.7157
   18DOPE    C1 2209   0.783   2.123  16.889  0.2922 -0.4039 -0.0890
   18DOPE    HA 2210   0.892   2.114  16.903  0.6182 -0.0478 -2.0785
   18DOPE    HB 2211   0.773   2.220  16.834  0.9102  0.3047  1.0128
   18DOPE    C2 2212   0.730   2.005  16.804  0.4973 -0.3985 -0.0836
   18DOPE    HS 2213   0.814   1.992  16.732 -0.0112  1.2862 -1.0472
   18DOPE   O21 2214   0.602   2.022  16.735  0.5796 -0.4262 -0.2483
   18DOPE   C21 2215   0.601   2.112  16.638  0.0481  0.6134 -0.3873
   18DOPE   O22 2216   0.696   2.170  16.596 -0.0808  0.1077  0.4887
   18DOPE   C22 2217   0.462   2.132  16.585  0.9249  0.1595  0.4670
   18DOPE   H2R 2218   0.426   2.229  16.627 -3.4462 -1.3541  0.6180
   18DOPE   H2S 2219   0.389   2.056  16.617 -1.2305  1.4695 -1.0390
   18DOPE    C3 2220   0.719   1.875  16.885 -0.1358  0.2772 -0.0467
   18DOPE    HX 2221   0.629   1.865  16.949 -0.8541  0.6739 -0.9864
   18DOPE    HY 2222   0.798   1.871  16.963  0.1711 -0.2702 -0.3762
   18DOPE   O31 2223   0.726   1.771  16.790 -0.7213 -0.4792  0.3758
   18DOPE   C31 2224   0.626   1.727  16.718  0.3883 -0.2022  0.0801
   18DOPE   O32 2225   0.512   1.764  16.738 -0.1264 -0.0539 -0.7612
   18DOPE   C32 2226   0.679   1.634  16.611  0.0455  0.0660  0.3285
   18DOPE   H2X 2227   0.763   1.679  16.555 -1.3483  0.3354 -1.6878
   18DOPE   H2Y 2228   0.716   1.541  16.659 -0.7191  0.0764  0.9660
   18DOPE   C23 2229   0.441   2.133  16.435 -1.1819  0.1337  0.4393
   18DOPE   H3R 2230   0.526   2.186  16.386 -0.4402 -1.0130  0.4404
   18DOPE   H3S 2231   0.354   2.191  16.398 -0.4915  1.3505  0.6409
   18DOPE   C24 2232   0.430   1.989  16.369  0.1646 -0.4437  0.4298
   18DOPE   H4R 2233   0.329   1.962  16.409 -0.8208  1.0252 -0.9703
   18DOPE   H4S 2234   0.509   1.932  16.422  1.4156  1.2695  0.4806
   18DOPE   C25 2235   0.437   1.974  16.212 -0.5112 -0.5461 -0.2967
   18DOPE   H5R 2236   0.538   2.009  16.184 -0.2217  1.9506  3.2001
   18DOPE   H5S 2237   0.363   2.044  16.166  1.3571  0.2946 -2.1711
   18DOPE   C26 2238   0.416   1.835  16.156 -0.3999 -0.4994 -0.0089
   18DOPE   H6R 2239   0.307   1.812  16.152 -1.1819  2.8611 -2.3933
   18DOPE   H6S 2240   0.477   1.765  16.217 -0.6305 -0.2470  0.5175
   18DOPE   C27 2241   0.459   1.815  16.013 -0.6583 -0.2855  0.1640
   18DOPE   H7R 2242   0.430   1.709  15.996 -0.5358 -0.6892  2.1634
   18DOPE   H7S 2243   0.568   1.828  16.026 -1.0210  0.2422  3.9861
   18DOPE   C28 2244   0.399   1.916  15.909  0.3476  0.2541 -0.6096
   18DOPE   H8R 2245   0.468   1.911  15.821  0.4154  0.6786 -0.5834
   18DOPE   H8S 2246   0.416   2.016  15.954 -0.1898  0.4342 -0.8023
   18DOPE   C29 2247   0.261   1.885  15.868  0.2369  0.0584 -0.1114
   18DOPE   H9R 2248   0.189   1.865  15.949 -1.5939  1.1287 -1.3708
   18DOPE  C210 2249   0.213   1.871  15.743  0.0420 -0.4578  0.1952
   18DOPE  H10R 2250   0.116   1.824  15.722  0.3281 -0.1174 -2.0747
   18DOPE  C211 2251   0.289   1.884  15.616  0.1211 -0.4455  0.4228
   18DOPE  H11R 2252   0.239   1.838  15.529 -1.5607  0.6354  0.7776
   18DOPE  H11S 2253   0.393   1.847  15.631  2.2315  3.3995 -2.7074
   18DOPE  C212 2254   0.310   2.033  15.575  0.1348 -0.3984  0.0606
   18DOPE  H12R 2255   0.367   2.078  15.659  0.0555  0.0549 -0.1279
   18DOPE  H12S 2256   0.210   2.081  15.564  0.0561 -0.7557 -0.8365
   18DOPE  C213 2257   0.388   2.049  15.441 -0.4317 -0.2559  0.3031
   18DOPE  H13R 2258   0.340   1.976  15.372 -0.7003  0.0090  0.2084
   18DOPE  H13S 2259   0.498   2.035  15.449 -0.0015  1.7347 -1.2019
   18DOPE  C214 2260   0.359   2.193  15.383  0.1831  0.3654  0.5860
   18DOPE  H14R 2261   0.363   2.268  15.465  1.9718  0.0880  0.7906
   18DOPE  H14S 2262   0.254   2.195  15.348  0.0751  0.2727  0.8946
   18DOPE  C215 2263   0.444   2.224  15.264 -0.1951 -0.2540  0.1001
   18DOPE  H15R 2264   0.397   2.177  15.174 -0.4624 -0.8701  0.5559
   18DOPE  H15S 2265   0.541   2.173  15.284 -0.9101 -1.2759  1.1315
   18DOPE  C216 2266   0.462   2.374  15.233 -0.0075  0.1726  0.0195
   18DOPE  H16R 2267   0.498   2.431  15.321 -0.8243  0.7486 -0.0149
   18DOPE  H16S 2268   0.365   2.420  15.204 -0.3686  0.2365  1.2773
   18DOPE  C217 2269   0.570   2.390  15.122 -0.7731 -0.2284 -0.3807
   18DOPE  H17R 2270   0.540   2.350  15.023 -0.6279 -3.0768  0.6334
   18DOPE  H17S 2271   0.659   2.329  15.150 -0.7596 -0.5695 -1.1455
   18DOPE  C218 2272   0.612   2.534  15.094  0.1704 -0.0389 -1.3198
   18DOPE  H18R 2273   0.525   2.585  15.047  0.0040 -0.7926 -1.8541
   18DOPE  H18S 2274   0.695   2.534  15.021 -0.0479 -0.7806 -1.5787
   18DOPE  H18T 2275   0.636   2.578  15.193  1.9546 -0.8394 -1.3578
   18DOPE   C33 2276   0.560   1.589  16.521  1.2179 -0.1171  0.1382
   18DOPE   H3X 2277   0.540   1.655  16.433  0.5200 -0.4728  0.0205
   18DOPE   H3Y 2278   0.464   1.579  16.577  0.6197 -0.1268 -0.8570
   18DOPE   C34 2279   0.578   1.442  16.475  0.2725  0.1114  0.5627
   18DOPE   H4X 2280   0.674   1.442  16.421  0.8637  0.7425  1.5688
   18DOPE   H4Y 2281   0.589   1.388  16.572  0.9090 -0.4619  0.1745
   18DOPE   C35 2282   0.456   1.385  16.405  0.3475  0.6323  1.1109
   18DOPE   H5X 2283   0.362   1.386  16.464 -0.3377  0.0268  0.0649
   18DOPE   H5Y 2284   0.469   1.277  16.380 -2.8503 -0.1031  2.1186
   18DOPE   C36 2285   0.427   1.440  16.261 -0.4269  0.1591 -0.7612
   18DOPE   H6X 2286   0.522   1.421  16.207 -0.6077 -1.6497 -0.5073
   18DOPE   H6Y 2287   0.410   1.549  16.268  2.7218  0.8184 -2.0184
   18DOPE   C37 2288   0.316   1.375  16.177  0.1271  0.0413  0.4799
   18DOPE   H7X 2289   0.323   1.264  16.175 -0.6087 -0.0320 -2.5383
   18DOPE   H7Y 2290   0.214   1.399  16.215 -0.1965 -1.4835  0.6702
   18DOPE   C38 2291   0.322   1.428  16.027 -0.5222  1.1599 -0.0402
   18DOPE   H8X 2292   0.429   1.413  15.999 -0.7573 -0.9542  0.0127
   18DOPE   H8Y 2293   0.296   1.535  16.040 -0.5894  0.9075  2.3563
   18DOPE   C39 2294   0.218   1.362  15.940 -0.0514  0.3515 -0.1016
   18DOPE   H9X 2295   0.128   1.315  15.981  0.6791 -1.4117 -0.3760
   18DOPE  C310 2296   0.227   1.361  15.805 -0.3287 -0.0878  0.6571
   18DOPE  H10X 2297   0.148   1.310  15.748 -0.9112  0.8471  0.6100
   18DOPE  C311 2298   0.343   1.418  15.723  0.2375  0.2416 -0.1946
   18DOPE  H11X 2299   0.294   1.483  15.646 -0.0847 -2.2806 -2.2697
   18DOPE  H11Y 2300   0.423   1.478  15.770  1.6084 -0.8661 -1.0427
   18DOPE  C312 2301   0.423   1.314  15.635 -0.8788  0.7073 -0.3497
   18DOPE  H12X 2302   0.451   1.226  15.698  0.7341  1.3807 -0.0840
   18DOPE  H12Y 2303   0.517   1.361  15.599  0.5677 -1.2299  0.6850
   18DOPE  C313 2304   0.339   1.280  15.514  0.4940 -0.3234  0.0370
   18DOPE  H13X 2305   0.248   1.224  15.545  1.3004 -0.7662  1.7000
   18DOPE  H13Y 2306   0.296   1.375  15.476  1.8732  0.7567  1.0720
   18DOPE  C314 2307   0.405   1.191  15.413  0.3173 -0.3605 -0.3913
   18DOPE  H14X 2308   0.333   1.141  15.345  0.0462  0.9617 -1.1201
   18DOPE  H14Y 2309   0.466   1.122  15.476  3.0351  3.0900  1.0967
   18DOPE  C315 2310   0.508   1.261  15.331 -0.4230  0.0884 -0.4302
   18DOPE  H15X 2311   0.580   1.295  15.408 -0.2597  0.7831 -0.8791
   18DOPE  H15Y 2312   0.470   1.349  15.274 -2.1700  1.5232  2.6967
   18DOPE  C316 2313   0.592   1.162  15.245 -1.1659 -0.8339  0.4403
   18DOPE  H16X 2314   0.686   1.215  15.220 -3.4376  3.1817 -0.5277
   18DOPE  H16Y 2315   0.535   1.127  15.156  1.6002 -2.7957 -0.6750
   18DOPE  C317 2316   0.631   1.024  15.313  0.1060  0.4390 -0.3116
   18DOPE  H17X 2317   0.647   1.042  15.422 -0.5717  0.5337 -0.2204
   18DOPE  H17Y 2318   0.543   0.958  15.303 -0.5072  1.0955  0.5698
   18DOPE  C318 2319   0.760   0.957  15.267 -0.0649  0.0261 -0.2565
   18DOPE  H18X 2320   0.843   1.011  15.318 -0.7275  0.4047  0.4380
   18DOPE  H18Y 2321   0.772   0.851  15.300  1.8258 -0.1617 -1.3951
   18DOPE  H18Z 2322   0.785   0.961  15.159 -2.5388 -0.2449 -0.8876
   19DOPE     N 2323   0.964   3.420  16.732 -0.0464 -0.8000 -0.7811
   19DOPE   HN1 2324   0.974   3.513  16.777  0.1010 -1.5725  0.8672
   19DOPE   HN2 2325   1.020   3.358  16.794  0.7984  0.8717  0.2071
   19DOPE   HN3 2326   1.007   3.423  16.638 -1.5747  0.8985 -1.4928
   19DOPE   C12 2327   0.820   3.386  16.744  0.0974  0.2944  0.6729
   19DOPE  H12A 2328   0.784   3.410  16.846 -3.7055  0.3120 -0.5299
   19DOPE  H12B 2329   0.812   3.277  16.723 -0.3225  0.5627 -0.6402
   19DOPE   C11 2330   0.731   3.455  16.633 -0.4917  0.4002 -0.3280
   19DOPE  H11A 2331   0.626   3.419  16.641 -0.0554 -0.6659  0.9112
   19DOPE  H11B 2332   0.769   3.421  16.534  2.3894  1.0576  0.4710
   19DOPE     P 2333   0.632   3.689  16.709  0.0462 -0.0142 -0.5380
   19DOPE   O13 2334   0.678   3.830  16.695  0.0733 -0.6277  0.3774
   19DOPE   O14 2335   0.607   3.641  16.849  0.3951  0.3447  0.6022
   19DOPE   O11 2336   0.497   3.675  16.619 -0.5131 -0.1954 -0.3565
   19DOPE   O12 2337   0.742   3.598  16.634  0.4197 -0.0527  0.6391
   19DOPE    C1 2338   0.445   3.768  16.526 -1.0417  0.5426  0.5750
   19DOPE    HA 2339   0.462   3.873  16.558 -1.0968  0.0730  2.2421
   19DOPE    HB 2340   0.339   3.735  16.519 -0.5900 -1.0573  0.9448
   19DOPE    C2 2341   0.498   3.747  16.374 -1.3479 -0.1766  0.2459
   19DOPE    HS 2342   0.462   3.837  16.320 -1.1563  0.8841  1.8530
   19DOPE   O21 2343   0.459   3.624  16.316 -0.2375  0.3713 -0.0677
   19DOPE   C21 2344   0.437   3.638  16.187 -0.4901 -0.0398  0.1018
   19DOPE   O22 2345   0.433   3.744  16.129 -0.0693 -0.1105  0.1818
   19DOPE   C22 2346   0.414   3.503  16.133  0.6999 -0.3571 -0.1049
   19DOPE   H2R 2347   0.315   3.472  16.173  1.2117 -1.7725  0.1133
   19DOPE   H2S 2348   0.497   3.439  16.169 -0.4268 -1.4254  0.6605
   19DOPE    C3 2349   0.650   3.756  16.371 -0.4309  0.2739 -0.7978
   19DOPE    HX 2350   0.693   3.669  16.425 -0.1995  0.1438 -1.1872
   19DOPE    HY 2351   0.686   3.849  16.420 -1.8624 -0.3353  1.6077
   19DOPE   O31 2352   0.691   3.754  16.227 -0.0540 -0.1855  0.0800
   19DOPE   C31 2353   0.730   3.870  16.178 -0.0676  0.4771 -0.5724
   19DOPE   O32 2354   0.738   3.975  16.237 -0.0848  0.3006  0.3533
   19DOPE   C32 2355   0.786   3.850  16.044 -0.0930  0.1262  0.1740
   19DOPE   H2X 2356   0.891   3.814  16.046 -0.4885 -1.2066 -1.3817
   19DOPE   H2Y 2357   0.718   3.775  16.000 -0.5599  1.4714 -1.5221
   19DOPE   C23 2358   0.411   3.496  15.976 -0.7156  0.6685  0.0609
   19DOPE   H3R 2359   0.498   3.429  15.962 -0.0934  0.7959  2.7181
   19DOPE   H3S 2360   0.432   3.597  15.936  0.5175  0.6529  0.6295
   19DOPE   C24 2361   0.291   3.429  15.914  0.1462  0.2065 -0.2669
   19DOPE   H4R 2362   0.207   3.500  15.924  1.6267  2.1085 -0.6824
   19DOPE   H4S 2363   0.264   3.335  15.967  0.2423  0.5787  0.4542
   19DOPE   C25 2364   0.318   3.397  15.765 -0.4417 -0.2461 -0.0229
   19DOPE   H5R 2365   0.397   3.321  15.750  0.9091  0.9848  0.6618
   19DOPE   H5S 2366   0.343   3.491  15.711  0.3961 -1.6264 -2.1596
   19DOPE   C26 2367   0.202   3.333  15.702  0.2806  0.0568 -0.3868
   19DOPE   H6R 2368   0.229   3.333  15.594  0.4808 -2.8564 -0.4213
   19DOPE   H6S 2369   0.109   3.391  15.723  2.0266  2.7562  0.2656
   19DOPE   C27 2370   0.177   3.181  15.731 -0.6651  0.1686 -0.0190
   19DOPE   H7R 2371   0.137   3.171  15.834 -0.1489 -3.2728 -0.0434
   19DOPE   H7S 2372   0.273   3.127  15.716 -1.3670 -0.9532 -0.5773
   19DOPE   C28 2373   0.084   3.114  15.634  0.1016  0.7137 -0.0189
   19DOPE   H8R 2374  -0.022   3.147  15.625 -0.2544 -0.2137  0.5852
   19DOPE   H8S 2375   0.068   3.009  15.669  1.2857  0.3459 -0.5105
   19DOPE   C29 2376   0.138   3.103  15.497  0.5081  0.3704 -0.5222
   19DOPE   H9R 2377   0.193   3.010  15.474 -0.6189 -1.1307  2.3132
   19DOPE  C210 2378   0.088   3.178  15.397 -0.1228  0.1708 -0.7831
   19DOPE  H10R 2379   0.130   3.148  15.299  2.2708 -2.7415  0.9871
   19DOPE  C211 2380  -0.016   3.290  15.409 -0.3541  0.2705  0.0762
   19DOPE  H11R 2381   0.005   3.359  15.324 -1.2912 -0.3277 -0.6693
   19DOPE  H11S 2382  -0.022   3.360  15.495 -2.5783  1.2160 -0.7587
   19DOPE  C212 2383  -0.160   3.229  15.400 -0.2956 -0.0774 -0.0947
   19DOPE  H12R 2384  -0.165   3.173  15.496 -0.5976  0.6719  0.3352
   19DOPE  H12S 2385  -0.160   3.155  15.318  0.8416 -0.3495  0.1286
   19DOPE  C213 2386  -0.268   3.349  15.386  0.2942  0.6220 -0.6189
   19DOPE  H13R 2387  -0.260   3.403  15.289 -1.5581  1.4018 -0.3833
   19DOPE  H13S 2388  -0.240   3.420  15.467  1.6104 -0.3612 -0.1807
   19DOPE  C214 2389  -0.413   3.299  15.389 -0.9004 -0.2545  0.4071
   19DOPE  H14R 2390  -0.434   3.260  15.490 -1.6099  0.3167  0.4917
   19DOPE  H14S 2391  -0.407   3.215  15.317 -0.2930 -0.7008  0.9684
   19DOPE  C215 2392  -0.511   3.396  15.328 -0.5992  0.2469  0.2654
   19DOPE  H15R 2393  -0.482   3.498  15.360  1.0308 -0.1249  0.0695
   19DOPE  H15S 2394  -0.610   3.370  15.371  0.4012 -1.2484  1.7699
   19DOPE  C216 2395  -0.526   3.408  15.179 -0.2004  0.9349 -0.2203
   19DOPE  H16R 2396  -0.440   3.446  15.120 -0.3955 -0.9908 -1.8399
   19DOPE  H16S 2397  -0.609   3.480  15.162  1.2876  2.5851 -0.8045
   19DOPE  C217 2398  -0.565   3.279  15.108  0.5545  0.5020  0.1866
   19DOPE  H17R 2399  -0.670   3.251  15.131  0.7030 -2.4635 -2.1474
   19DOPE  H17S 2400  -0.505   3.190  15.137 -1.0085 -1.1943 -1.5190
   19DOPE  C218 2401  -0.571   3.296  14.955  0.2541  0.2820 -0.6464
   19DOPE  H18R 2402  -0.623   3.212  14.904  0.7509  0.5558 -1.6216
   19DOPE  H18S 2403  -0.470   3.292  14.909  0.6598 -0.6998  0.2901
   19DOPE  H18T 2404  -0.615   3.392  14.921 -0.2324  0.1472 -0.4046
   19DOPE   C33 2405   0.778   3.971  15.959 -0.2367 -0.3638  0.1747
   19DOPE   H3X 2406   0.817   3.930  15.864 -1.1179 -0.0778 -0.3334
   19DOPE   H3Y 2407   0.830   4.062  15.998  0.3263  0.0644 -1.5032
   19DOPE   C34 2408   0.628   4.013  15.932  0.5075  0.1979  0.0421
   19DOPE   H4X 2409   0.572   3.922  15.901 -0.4340  1.3102 -1.6509
   19DOPE   H4Y 2410   0.590   4.052  16.029  2.2571 -0.1476  0.8871
   19DOPE   C35 2411   0.615   4.116  15.820 -0.4550  0.3792  0.4274
   19DOPE   H5X 2412   0.658   4.210  15.858  1.6978 -0.0725 -0.7187
   19DOPE   H5Y 2413   0.506   4.138  15.810 -0.5999  0.7923  2.5146
   19DOPE   C36 2414   0.672   4.067  15.684  0.2252  0.0678 -0.6527
   19DOPE   H6X 2415   0.651   3.961  15.658 -0.8607 -0.0831  0.7209
   19DOPE   H6Y 2416   0.783   4.068  15.679  0.1809 -0.8798 -3.1751
   19DOPE   C37 2417   0.617   4.153  15.573  0.1017 -0.7471  0.0166
   19DOPE   H7X 2418   0.511   4.133  15.549 -0.1822 -0.3137  0.8597
   19DOPE   H7Y 2419   0.620   4.256  15.616  0.5163  0.0587 -1.8598
   19DOPE   C38 2420   0.710   4.140  15.446 -0.4592 -0.5375  0.8563
   19DOPE   H8X 2421   0.684   4.038  15.410  0.7036 -1.3447  2.1991
   19DOPE   H8Y 2422   0.815   4.153  15.481  0.1591  1.3450 -1.4379
   19DOPE   C39 2423   0.680   4.247  15.339  0.0574 -0.4402 -0.4703
   19DOPE   H9X 2424   0.739   4.340  15.342 -1.2327  0.3969  2.5296
   19DOPE  C310 2425   0.602   4.233  15.229 -0.7000  0.3238 -0.0904
   19DOPE  H10X 2426   0.586   4.325  15.171 -1.7201  0.4263  0.3319
   19DOPE  C311 2427   0.514   4.116  15.205 -0.4476 -0.2785  0.2470
   19DOPE  H11X 2428   0.558   4.034  15.145  0.1001  0.1918  0.0028
   19DOPE  H11Y 2429   0.474   4.071  15.299 -0.4338 -0.6700  0.0698
   19DOPE  C312 2430   0.385   4.150  15.125 -0.6157 -0.6074  0.1045
   19DOPE  H12X 2431   0.418   4.210  15.037 -0.1760  0.4375  0.9642
   19DOPE  H12Y 2432   0.329   4.216  15.194  2.0142  0.6721  1.1353
   19DOPE  C313 2433   0.297   4.031  15.082  0.0316  0.2805  0.1644
   19DOPE  H13X 2434   0.356   3.947  15.039 -1.5685 -0.2833 -0.9991
   19DOPE  H13Y 2435   0.265   3.985  15.178 -1.0330 -2.1947 -1.2957
   19DOPE  C314 2436   0.176   4.071  15.000 -0.0263 -0.6554  0.4494
   19DOPE  H14X 2437   0.199   4.108  14.897  0.1107 -0.1162  0.6693
   19DOPE  H14Y 2438   0.146   4.166  15.049 -0.4501 -1.4347  1.7565
   19DOPE  C315 2439   0.068   3.971  14.996 -0.3652  0.2409  0.1469
   19DOPE  H15X 2440   0.033   3.954  15.100 -1.6967 -2.5397 -0.6653
   19DOPE  H15Y 2441   0.119   3.882  14.953 -1.2424 -0.5771  0.7577
   19DOPE  C316 2442  -0.058   4.012  14.915 -0.1962  0.7210 -0.0315
   19DOPE  H16X 2443  -0.130   3.927  14.922  0.1666  0.4234  0.1183
   19DOPE  H16Y 2444  -0.039   4.046  14.811 -1.1988 -1.3395 -0.9508
   19DOPE  C317 2445  -0.130   4.127  14.981 -0.0769  0.1042 -0.1973
   19DOPE  H17X 2446  -0.152   4.118  15.089 -1.2699  1.9700 -0.2468
   19DOPE  H17Y 2447  -0.052   4.206  14.993  2.2280 -2.2135  1.3037
   19DOPE  C318 2448  -0.257   4.167  14.907  0.8169  0.1128  0.0719
   19DOPE  H18X 2449  -0.327   4.081  14.896 -0.3695  1.1851 -1.3574
   19DOPE  H18Y 2450  -0.316   4.243  14.962  1.6827 -0.2799  1.5859
   19DOPE  H18Z 2451  -0.232   4.201  14.804  2.9434  0.9824  0.8329
   20DOPE     N 2452   7.410   5.353  16.175 -0.0405  0.2895  0.2843
   20DOPE   HN1 2453   7.396   5.344  16.277 -0.1743 -0.3550  0.2147
   20DOPE   HN2 2454   7.387   5.261  16.132 -0.2013 -0.6012  2.1813
   20DOPE   HN3 2455   7.507   5.377  16.145  1.0601 -1.9452  1.7823
   20DOPE   C12 2456   7.306   5.452  16.132  0.0707  0.6394 -0.2794
   20DOPE  H12A 2457   7.324   5.488  16.028  1.0197 -0.2800 -0.4535
   20DOPE  H12B 2458   7.318   5.535  16.205  0.3656 -1.7824  2.6013
   20DOPE   C11 2459   7.162   5.381  16.129  0.1345 -0.3304  0.9000
   20DOPE  H11A 2460   7.161   5.298  16.055 -1.5041 -0.3903  0.9715
   20DOPE  H11B 2461   7.084   5.446  16.084 -0.8040 -1.3470  1.0262
   20DOPE     P 2462   7.076   5.422  16.374 -0.3690  0.1166 -0.0048
   20DOPE   O13 2463   7.078   5.564  16.327 -0.3851 -0.0065  0.3443
   20DOPE   O14 2464   7.150   5.383  16.498  0.4493 -0.3173  0.7028
   20DOPE   O11 2465   6.925   5.383  16.390 -0.7893  0.0128 -0.1663
   20DOPE   O12 2466   7.127   5.326  16.254  0.8764  0.2595  0.2143
   20DOPE    C1 2467   6.840   5.327  16.287  0.1466 -0.4126  0.1421
   20DOPE    HA 2468   6.820   5.222  16.317 -1.4475  0.2197  1.4396
   20DOPE    HB 2469   6.883   5.324  16.184  0.2328 -0.5152  0.1820
   20DOPE    C2 2470   6.703   5.392  16.292  0.0587  0.0039 -0.2535
   20DOPE    HS 2471   6.671   5.396  16.398 -0.9939 -1.1980 -0.5025
   20DOPE   O21 2472   6.608   5.302  16.231 -0.3167  0.5178 -0.1523
   20DOPE   C21 2473   6.478   5.315  16.250 -0.4155 -0.4064 -0.9565
   20DOPE   O22 2474   6.435   5.389  16.341  0.1180 -0.0245  0.7011
   20DOPE   C22 2475   6.407   5.232  16.142 -0.4065  0.4304 -0.1533
   20DOPE   H2R 2476   6.349   5.151  16.190 -2.7098  3.0240  1.7459
   20DOPE   H2S 2477   6.488   5.191  16.077 -0.8135 -0.8965  0.1629
   20DOPE    C3 2478   6.695   5.545  16.249 -0.3362 -0.5639 -0.0043
   20DOPE    HX 2479   6.758   5.596  16.325 -1.1326 -0.3346  0.5164
   20DOPE    HY 2480   6.588   5.576  16.254 -0.4913 -1.1477  0.4836
   20DOPE   O31 2481   6.738   5.553  16.117  0.3088  0.0696  0.1272
   20DOPE   C31 2482   6.793   5.658  16.076 -0.6562 -0.3926  0.1021
   20DOPE   O32 2483   6.819   5.761  16.134  0.1947  0.3186 -0.6320
   20DOPE   C32 2484   6.846   5.642  15.932  0.8469 -0.1831  0.2617
   20DOPE   H2X 2485   6.921   5.559  15.935  1.2652  0.1869  0.0882
   20DOPE   H2Y 2486   6.765   5.606  15.865  2.0686  3.0122 -3.2773
   20DOPE   C23 2487   6.292   5.299  16.061 -0.7116 -0.7558 -0.1223
   20DOPE   H3R 2488   6.239   5.381  16.115  1.2183  1.3401 -1.2466
   20DOPE   H3S 2489   6.219   5.216  16.049  0.3499 -2.1953  2.4771
   20DOPE   C24 2490   6.339   5.347  15.917 -0.4121  0.4174 -0.3870
   20DOPE   H4R 2491   6.401   5.269  15.868 -0.1869  2.1906 -3.2032
   20DOPE   H4S 2492   6.412   5.429  15.935  0.1541  0.2532 -1.8022
   20DOPE   C25 2493   6.229   5.411  15.832  0.1390 -0.7349 -0.3326
   20DOPE   H5R 2494   6.284   5.447  15.743  1.9042  0.3329  1.0988
   20DOPE   H5S 2495   6.184   5.502  15.879  0.6633 -0.0655 -1.0985
   20DOPE   C26 2496   6.123   5.318  15.788 -0.2155  0.1451  0.1921
   20DOPE   H6R 2497   6.053   5.362  15.713  1.1661  2.1088 -0.0107
   20DOPE   H6S 2498   6.060   5.285  15.873 -0.7527 -2.3985 -1.0761
   20DOPE   C27 2499   6.180   5.185  15.724  0.2930  0.0224 -0.3806
   20DOPE   H7R 2500   6.100   5.108  15.730  0.6286 -0.2949  0.0910
   20DOPE   H7S 2501   6.264   5.138  15.779 -0.3207  0.4097  0.9169
   20DOPE   C28 2502   6.226   5.194  15.579 -0.0413  0.0235  0.7633
   20DOPE   H8R 2503   6.278   5.098  15.555  0.5385  0.5032  0.0658
   20DOPE   H8S 2504   6.302   5.270  15.553 -1.4564  0.4666 -2.6627
   20DOPE   C29 2505   6.114   5.217  15.484  0.2563 -0.1572  0.0247
   20DOPE   H9R 2506   6.027   5.151  15.496 -2.2642  3.0178  0.9007
   20DOPE  C210 2507   6.114   5.303  15.381  0.5872  0.1778 -0.1727
   20DOPE  H10R 2508   6.015   5.312  15.333  0.7549  1.6588 -0.2874
   20DOPE  C211 2509   6.215   5.405  15.335  0.6129  0.5427  0.0555
   20DOPE  H11R 2510   6.232   5.398  15.226  1.0623  1.7962  0.0204
   20DOPE  H11S 2511   6.318   5.387  15.372  0.9651  1.6276 -0.3481
   20DOPE  C212 2512   6.190   5.554  15.364  0.6982 -0.5898  0.2517
   20DOPE  H12R 2513   6.086   5.577  15.335  1.5088  3.3741 -0.0348
   20DOPE  H12S 2514   6.258   5.625  15.312 -0.4914  2.8609  2.9953
   20DOPE  C213 2515   6.205   5.588  15.510  0.4464 -0.3619 -0.2908
   20DOPE  H13R 2516   6.301   5.540  15.540  0.4806  0.2250  0.5670
   20DOPE  H13S 2517   6.127   5.531  15.565 -0.6201 -0.2816 -1.6326
   20DOPE  C214 2518   6.203   5.735  15.551  0.9042 -0.2508 -0.2953
   20DOPE  H14R 2519   6.277   5.783  15.484  0.5066 -0.7602 -1.1188
   20DOPE  H14S 2520   6.247   5.741  15.653  0.1771 -0.8337  0.0657
   20DOPE  C215 2521   6.066   5.797  15.558  0.1740  0.4658 -0.6734
   20DOPE  H15R 2522   5.999   5.736  15.623  0.0480  0.3155 -0.9443
   20DOPE  H15S 2523   6.012   5.773  15.464 -0.6058  2.8389 -0.8875
   20DOPE  C216 2524   6.065   5.945  15.597  0.0673  0.0138 -0.2714
   20DOPE  H16R 2525   6.153   5.987  15.544  0.4163 -0.2269  0.1132
   20DOPE  H16S 2526   6.072   5.960  15.706 -0.8231  2.0321 -0.4530
   20DOPE  C217 2527   5.935   6.017  15.550 -0.0734 -0.3121 -1.0347
   20DOPE  H17R 2528   5.950   6.006  15.440  0.4089 -1.0506 -0.9000
   20DOPE  H17S 2529   5.942   6.125  15.577 -0.1728 -0.2955 -1.0752
   20DOPE  C218 2530   5.806   5.956  15.601  0.0548 -0.0899  0.9280
   20DOPE  H18R 2531   5.798   5.846  15.588 -1.2067 -0.1283  1.8077
   20DOPE  H18S 2532   5.718   5.998  15.547 -1.1464 -1.1289  1.9992
   20DOPE  H18T 2533   5.799   5.955  15.712 -0.7094 -1.6474  0.8894
   20DOPE   C33 2534   6.906   5.778  15.873 -0.3859  0.5673  0.3510
   20DOPE   H3X 2535   6.973   5.834  15.942  1.3080  0.7405 -1.3628
   20DOPE   H3Y 2536   6.817   5.840  15.848 -1.0785 -0.7201 -0.4470
   20DOPE   C34 2537   6.978   5.745  15.738 -0.5060  0.5190  0.5585
   20DOPE   H4X 2538   7.063   5.678  15.765 -1.1512 -0.8185 -0.6532
   20DOPE   H4Y 2539   6.906   5.705  15.664  0.8665 -0.1398 -0.4671
   20DOPE   C35 2540   7.046   5.865  15.667 -0.9635  0.8868 -0.0651
   20DOPE   H5X 2541   7.112   5.831  15.584 -0.6084  0.7867  0.2494
   20DOPE   H5Y 2542   7.112   5.908  15.746  0.1653  2.1334 -1.6321
   20DOPE   C36 2543   6.950   5.971  15.621  0.1958 -0.3612  0.7120
   20DOPE   H6X 2544   6.854   5.975  15.676  0.1677  0.3558  0.6182
   20DOPE   H6Y 2545   6.909   5.939  15.523 -1.4637  1.1136  0.8772
   20DOPE   C37 2546   6.998   6.108  15.612 -0.9202  0.7731  0.1782
   20DOPE   H7X 2547   7.048   6.135  15.707 -0.7788  1.3001 -0.0411
   20DOPE   H7Y 2548   7.082   6.091  15.541  0.1494  0.7830  1.4083
   20DOPE   C38 2549   6.896   6.202  15.562 -0.4306  0.9584 -0.1757
   20DOPE   H8X 2550   6.828   6.221  15.647 -1.1313 -1.5659 -0.0781
   20DOPE   H8Y 2551   6.841   6.150  15.481  0.5286 -0.2116 -0.1055
   20DOPE   C39 2552   6.960   6.328  15.511 -0.0751  0.1003 -0.0022
   20DOPE   H9X 2553   7.041   6.364  15.576  0.2107  0.5507 -0.5910
   20DOPE  C310 2554   6.952   6.378  15.388  0.6899 -0.8028  0.1923
   20DOPE  H10X 2555   7.027   6.456  15.370 -0.2175  0.4796  1.6006
   20DOPE  C311 2556   6.851   6.328  15.284 -0.9206 -0.4950 -0.9903
   20DOPE  H11X 2557   6.783   6.246  15.316 -1.0191 -0.5471 -1.3312
   20DOPE  H11Y 2558   6.771   6.404  15.272 -1.7366 -0.7783  1.8400
   20DOPE  C312 2559   6.915   6.278  15.149  0.1068 -0.5905  0.2666
   20DOPE  H12X 2560   6.968   6.364  15.104  0.5265 -0.3074  1.2703
   20DOPE  H12Y 2561   6.842   6.248  15.071  1.8860  0.5021 -1.9166
   20DOPE  C313 2562   7.011   6.151  15.169  0.1896  0.0933  0.3825
   20DOPE  H13X 2563   7.065   6.147  15.072 -0.2166 -0.1985  0.1634
   20DOPE  H13Y 2564   7.084   6.171  15.251  2.4788 -1.9489 -1.0079
   20DOPE  C314 2565   6.942   6.018  15.199 -0.1852 -0.0721 -0.9444
   20DOPE  H14X 2566   6.875   5.996  15.113 -0.7534 -0.7472 -0.3389
   20DOPE  H14Y 2567   6.894   6.024  15.299 -1.0455  0.4254 -1.3748
   20DOPE  C315 2568   7.036   5.898  15.203 -0.1869 -0.1581  0.7784
   20DOPE  H15X 2569   7.123   5.926  15.266  1.5347 -1.7363 -0.7994
   20DOPE  H15Y 2570   7.077   5.879  15.102  0.7328  1.9889  0.7135
   20DOPE  C316 2571   6.969   5.774  15.256 -0.5623  0.4620  0.0306
   20DOPE  H16X 2572   6.891   5.737  15.186  0.4106 -0.3939 -0.6441
   20DOPE  H16Y 2573   6.919   5.805  15.350 -2.7156  0.0071 -0.9275
   20DOPE  C317 2574   7.062   5.659  15.289 -0.4560  0.2202 -0.5600
   20DOPE  H17X 2575   7.140   5.637  15.212  0.8508 -1.2758  1.1229
   20DOPE  H17Y 2576   7.125   5.699  15.371 -0.8819 -0.9016  0.3365
   20DOPE  C318 2577   7.012   5.528  15.328 -0.0179  0.0032  0.3912
   20DOPE  H18X 2578   6.952   5.536  15.421 -0.7623 -2.1385  0.1410
   20DOPE  H18Y 2579   6.941   5.485  15.254 -0.2389  3.5138 -1.6666
   20DOPE  H18Z 2580   7.090   5.456  15.361 -0.6851 -0.8478  0.1581
   21DOPE     N 2581   3.603   7.181  16.990  0.2104 -0.8512  0.0183
   21DOPE   HN1 2582   3.654   7.190  17.080 -1.6475  1.6034  0.9186
   21DOPE   HN2 2583   3.546   7.267  16.995 -2.2643 -2.4013  0.2341
   21DOPE   HN3 2584   3.528   7.109  17.001  0.1351 -0.7895 -0.0886
   21DOPE   C12 2585   3.683   7.142  16.875  1.0847  0.0949 -0.6337
   21DOPE  H12A 2586   3.728   7.042  16.891  2.0217 -0.3124 -4.8163
   21DOPE  H12B 2587   3.759   7.223  16.862  1.7244 -0.4519 -0.3378
   21DOPE   C11 2588   3.584   7.130  16.753  0.0682  0.0569 -0.3207
   21DOPE  H11A 2589   3.638   7.096  16.662 -0.3164 -1.6270  0.0350
   21DOPE  H11B 2590   3.536   7.226  16.724 -1.2196 -0.8933 -1.4638
   21DOPE     P 2591   3.493   6.888  16.737  0.3114 -0.3023  0.2733
   21DOPE   O13 2592   3.359   6.828  16.747  0.2780  0.3798 -0.6845
   21DOPE   O14 2593   3.605   6.827  16.809  0.0718  0.3539  0.3174
   21DOPE   O11 2594   3.530   6.901  16.585 -0.7793  0.0536 -0.0569
   21DOPE   O12 2595   3.482   7.034  16.778  0.4838 -0.5121 -0.1784
   21DOPE    C1 2596   3.442   6.978  16.501  0.4412 -0.5110 -0.1024
   21DOPE    HA 2597   3.409   7.073  16.547  2.8622 -0.3996  1.6093
   21DOPE    HB 2598   3.349   6.926  16.470 -0.4245  1.5173 -1.0929
   21DOPE    C2 2599   3.538   7.009  16.386  0.2227 -0.5099 -0.2049
   21DOPE    HS 2600   3.633   7.053  16.422  0.2440  0.8200 -1.7908
   21DOPE   O21 2601   3.468   7.094  16.292  0.1658 -0.1270 -0.2432
   21DOPE   C21 2602   3.463   7.224  16.321  0.6897  0.7948 -0.4157
   21DOPE   O22 2603   3.514   7.272  16.421 -0.4115 -0.0233 -0.2101
   21DOPE   C22 2604   3.389   7.289  16.209 -0.0706 -0.4086  0.2577
   21DOPE   H2R 2605   3.287   7.313  16.244  0.4777 -0.6603  2.1400
   21DOPE   H2S 2606   3.380   7.227  16.118  0.3816 -1.7482  1.0936
   21DOPE    C3 2607   3.583   6.869  16.318 -0.0870 -0.3680 -0.2289
   21DOPE    HX 2608   3.500   6.822  16.261  0.6165 -3.0465  0.8387
   21DOPE    HY 2609   3.601   6.790  16.393 -0.2832 -2.6554 -2.4547
   21DOPE   O31 2610   3.695   6.904  16.234  0.1452 -0.3249 -0.1828
   21DOPE   C31 2611   3.815   6.871  16.281 -0.3740  0.2586 -0.0190
   21DOPE   O32 2612   3.840   6.795  16.371 -0.1785  0.2994 -0.5212
   21DOPE   C32 2613   3.922   6.908  16.175  0.4118  0.8458 -0.6345
   21DOPE   H2X 2614   3.867   6.954  16.090 -2.0325 -1.3633 -0.3992
   21DOPE   H2Y 2615   3.990   6.981  16.223 -0.3927  1.0481  0.2214
   21DOPE   C23 2616   3.464   7.429  16.180 -0.2779  0.5463  0.0830
   21DOPE   H3R 2617   3.567   7.409  16.142 -0.7128  2.5695 -2.4231
   21DOPE   H3S 2618   3.477   7.476  16.280  1.0876 -2.6231  1.5604
   21DOPE   C24 2619   3.397   7.521  16.077 -0.3416  0.7297 -0.7075
   21DOPE   H4R 2620   3.444   7.621  16.078 -1.2289  1.1504 -0.2005
   21DOPE   H4S 2621   3.295   7.549  16.110 -0.5622 -2.1346  1.4668
   21DOPE   C25 2622   3.388   7.463  15.935 -0.4564  0.2964 -0.2770
   21DOPE   H5R 2623   3.344   7.361  15.940  1.5100 -0.7184 -1.8140
   21DOPE   H5S 2624   3.494   7.451  15.901  0.5562 -0.1071  2.7385
   21DOPE   C26 2625   3.323   7.546  15.826  0.1401 -0.1325  0.4716
   21DOPE   H6R 2626   3.374   7.641  15.801 -0.4588  0.4904  1.5325
   21DOPE   H6S 2627   3.227   7.581  15.869 -0.4185  0.9332 -1.5039
   21DOPE   C27 2628   3.291   7.457  15.699 -0.9359 -0.0882  0.3539
   21DOPE   H7R 2629   3.234   7.364  15.719 -2.6674  0.1258 -2.9125
   21DOPE   H7S 2630   3.390   7.433  15.654 -1.0165 -1.2698  0.7720
   21DOPE   C28 2631   3.216   7.525  15.580  0.6744  0.1508  0.0385
   21DOPE   H8R 2632   3.207   7.438  15.512  0.7332 -1.6085  2.1929
   21DOPE   H8S 2633   3.280   7.603  15.534 -1.0489  1.3566 -0.4238
   21DOPE   C29 2634   3.085   7.581  15.635  0.1816 -0.1273 -0.1463
   21DOPE   H9R 2635   3.092   7.632  15.732 -4.1116 -0.0656  0.3451
   21DOPE  C210 2636   2.964   7.569  15.576  0.3776 -0.2779  0.0509
   21DOPE  H10R 2637   2.886   7.601  15.647  0.0808  1.4069 -0.9643
   21DOPE  C211 2638   2.917   7.495  15.453 -0.1218 -0.1447  0.1958
   21DOPE  H11R 2639   2.984   7.408  15.440 -0.2699 -0.4618  1.4214
   21DOPE  H11S 2640   2.928   7.548  15.356  1.6263 -0.2794  0.2966
   21DOPE  C212 2641   2.778   7.436  15.472  0.5114 -1.2198  0.5976
   21DOPE  H12R 2642   2.692   7.503  15.455 -1.0555 -2.5678  2.6726
   21DOPE  H12S 2643   2.783   7.398  15.577  0.6645  2.6193  2.1525
   21DOPE  C213 2644   2.761   7.309  15.385  0.0965  0.5535  0.7577
   21DOPE  H13R 2645   2.660   7.263  15.396  0.1284 -0.0646 -1.1915
   21DOPE  H13S 2646   2.838   7.230  15.400 -0.0313 -0.2656 -2.3472
   21DOPE  C214 2647   2.765   7.335  15.230 -0.0255  0.0737 -0.5930
   21DOPE  H14R 2648   2.860   7.376  15.190 -0.9484  0.4222 -2.5932
   21DOPE  H14S 2649   2.691   7.417  15.210 -2.7801 -2.1468 -0.1482
   21DOPE  C215 2650   2.722   7.221  15.137  0.6741  0.1714  0.3537
   21DOPE  H15R 2651   2.612   7.214  15.132  0.2967  4.4725 -0.6991
   21DOPE  H15S 2652   2.778   7.129  15.166  3.3010  1.4724 -0.2898
   21DOPE  C216 2653   2.752   7.269  14.995  0.7043 -0.2667 -0.7115
   21DOPE  H16R 2654   2.854   7.313  14.989  0.3193  0.6820 -0.3940
   21DOPE  H16S 2655   2.680   7.352  14.980  0.7036  0.0661  0.9024
   21DOPE  C217 2656   2.729   7.179  14.869  0.0035 -0.0927 -0.7903
   21DOPE  H17R 2657   2.803   7.096  14.871 -0.2684 -0.3335  0.2111
   21DOPE  H17S 2658   2.752   7.241  14.780 -3.0296 -0.7585 -2.1705
   21DOPE  C218 2659   2.586   7.106  14.869 -0.0951 -0.3549  0.3099
   21DOPE  H18R 2660   2.596   7.026  14.793  0.9013  0.6963 -0.7041
   21DOPE  H18S 2661   2.507   7.178  14.838 -0.1694 -0.1939  0.8565
   21DOPE  H18T 2662   2.577   7.063  14.971  2.1362  0.6312  0.9867
   21DOPE   C33 2663   4.010   6.785  16.132 -0.0993 -0.1478  0.4181
   21DOPE   H3X 2664   4.063   6.737  16.217  1.2845  0.4247 -0.0978
   21DOPE   H3Y 2665   4.088   6.821  16.061  2.9955  2.1783  4.5435
   21DOPE   C34 2666   3.921   6.678  16.058  0.3591 -0.5846  0.0988
   21DOPE   H4X 2667   3.856   6.624  16.130 -0.5539  0.5737  0.1630
   21DOPE   H4Y 2668   3.845   6.729  15.995  1.4985  1.7145  0.4861
   21DOPE   C35 2669   4.018   6.586  15.985  0.0952 -0.1699  0.5604
   21DOPE   H5X 2670   4.080   6.522  16.051 -1.7479 -0.6074  1.9499
   21DOPE   H5Y 2671   4.094   6.645  15.930  1.0944 -2.2339 -0.3977
   21DOPE   C36 2672   3.950   6.500  15.882  0.0548 -0.0665  1.4323
   21DOPE   H6X 2673   3.867   6.551  15.829  0.4113 -0.6471  0.2750
   21DOPE   H6Y 2674   3.906   6.411  15.933 -0.6432 -0.1766  0.6625
   21DOPE   C37 2675   4.038   6.462  15.759 -0.3548  0.2519  0.2174
   21DOPE   H7X 2676   3.967   6.413  15.690  2.4848 -0.9603 -2.0767
   21DOPE   H7Y 2677   4.077   6.560  15.725  1.1164  0.7299  2.9651
   21DOPE   C38 2678   4.141   6.351  15.811 -0.4216 -0.4209  0.0679
   21DOPE   H8X 2679   4.089   6.260  15.848 -2.5963  1.0411  0.7800
   21DOPE   H8Y 2680   4.207   6.383  15.894 -1.3436  1.0698  0.2686
   21DOPE   C39 2681   4.225   6.324  15.693  0.0845 -0.5438  0.5587
   21DOPE   H9X 2682   4.301   6.398  15.662  0.6617 -1.6732 -0.8450
   21DOPE  C310 2683   4.214   6.222  15.601  0.1790  0.5100  0.1715
   21DOPE  H10X 2684   4.280   6.212  15.514 -0.4065 -1.1016 -0.1238
   21DOPE  C311 2685   4.124   6.104  15.612  0.1957  0.6209 -0.9251
   21DOPE  H11X 2686   4.047   6.113  15.691  0.1488 -0.5095 -0.8215
   21DOPE  H11Y 2687   4.070   6.090  15.515  1.5122 -2.4735 -1.3551
   21DOPE  C312 2688   4.203   5.971  15.642  0.1081 -0.0528  0.4930
   21DOPE  H12X 2689   4.270   5.943  15.558  0.9405 -0.4874  1.2807
   21DOPE  H12Y 2690   4.127   5.890  15.638  0.1134 -0.0216 -0.5035
   21DOPE  C313 2691   4.280   5.974  15.775 -0.3690 -0.2184  0.5933
   21DOPE  H13X 2692   4.354   6.056  15.776  0.7554 -1.2114  0.8580
   21DOPE  H13Y 2693   4.208   5.996  15.857 -2.8311  0.1825 -1.5401
   21DOPE  C314 2694   4.365   5.847  15.809 -0.5825 -0.4242  0.3733
   21DOPE  H14X 2695   4.431   5.821  15.724  0.7190  1.6937  0.6624
   21DOPE  H14Y 2696   4.306   5.755  15.831  0.9406 -1.6395 -0.4913
   21DOPE  C315 2697   4.434   5.864  15.943 -0.0375  0.0629  0.1523
   21DOPE  H15X 2698   4.357   5.869  16.024  2.3037  1.1180  2.4556
   21DOPE  H15Y 2699   4.492   5.956  15.967  0.5603  0.2793 -1.9166
   21DOPE  C316 2700   4.537   5.742  15.962  0.1489 -0.4265 -0.1014
   21DOPE  H16X 2701   4.589   5.743  15.864  1.9055  0.6416  0.7919
   21DOPE  H16Y 2702   4.473   5.654  15.985  1.2673 -1.4982 -0.9575
   21DOPE  C317 2703   4.641   5.771  16.069  0.2033  0.6879 -0.6805
   21DOPE  H17X 2704   4.698   5.676  16.073  1.2304  1.3269  0.9250
   21DOPE  H17Y 2705   4.711   5.852  16.041  1.2821  0.4902  1.2674
   21DOPE  C318 2706   4.586   5.797  16.208 -0.1371  0.0010 -0.2225
   21DOPE  H18X 2707   4.528   5.892  16.214 -1.4741 -0.8227  0.1997
   21DOPE  H18Y 2708   4.513   5.719  16.239  0.1623 -0.1713  0.0542
   21DOPE  H18Z 2709   4.667   5.803  16.284 -0.5719  0.7967  0.1912
   22DOPE     N 2710   0.105   4.482  16.795 -0.0409 -0.1084 -0.0743
   22DOPE   HN1 2711   0.182   4.413  16.783  2.8794  2.7799  0.7409
   22DOPE   HN2 2712   0.164   4.567  16.801  0.3285 -0.3412 -0.3420
   22DOPE   HN3 2713   0.060   4.460  16.886 -0.3013  0.2612 -0.1100
   22DOPE   C12 2714   0.009   4.486  16.680  0.2587 -0.9221 -0.7871
   22DOPE  H12A 2715   0.066   4.497  16.586  0.2285 -2.4788 -1.0014
   22DOPE  H12B 2716  -0.042   4.584  16.694 -1.5963 -1.6503 -1.9751
   22DOPE   C11 2717  -0.088   4.369  16.678 -0.0767  0.8746  0.0577
   22DOPE  H11A 2718  -0.028   4.276  16.685  1.5608  1.8071 -0.9314
   22DOPE  H11B 2719  -0.132   4.374  16.576 -0.9392  1.5779  0.4493
   22DOPE     P 2720  -0.264   4.265  16.848 -0.4101 -0.0987 -0.0498
   22DOPE   O13 2721  -0.385   4.317  16.912 -0.0504 -0.1449  0.5689
   22DOPE   O14 2722  -0.172   4.198  16.938  0.4207  0.7800 -0.4155
   22DOPE   O11 2723  -0.312   4.160  16.734 -0.2051 -0.7563 -0.3876
   22DOPE   O12 2724  -0.187   4.388  16.777 -0.2211  0.1363 -0.5476
   22DOPE    C1 2725  -0.428   4.186  16.653  0.0377  0.0209  0.4378
   22DOPE    HA 2726  -0.441   4.296  16.649 -0.2105 -0.0124  0.3130
   22DOPE    HB 2727  -0.514   4.141  16.707 -0.8210 -0.6663 -1.4145
   22DOPE    C2 2728  -0.416   4.128  16.506  0.0944 -0.4174 -1.0540
   22DOPE    HS 2729  -0.511   4.153  16.456 -1.7627  3.0026  3.4891
   22DOPE   O21 2730  -0.388   3.986  16.519 -0.5095 -0.1797  0.0306
   22DOPE   C21 2731  -0.443   3.902  16.434  0.1293  0.6307 -0.2515
   22DOPE   O22 2732  -0.531   3.932  16.356  0.0078  0.0815 -0.2327
   22DOPE   C22 2733  -0.387   3.763  16.448  0.9287  0.8970  0.8924
   22DOPE   H2R 2734  -0.462   3.708  16.510  2.3277 -0.7769  1.1867
   22DOPE   H2S 2735  -0.293   3.765  16.507  0.8481 -2.4696  1.3229
   22DOPE    C3 2736  -0.298   4.191  16.422 -0.4417  0.0886  0.1284
   22DOPE    HX 2737  -0.207   4.188  16.485 -0.4767 -1.3769  0.1463
   22DOPE    HY 2738  -0.320   4.296  16.395  3.4425  0.2635 -3.4042
   22DOPE   O31 2739  -0.280   4.113  16.302 -0.2660 -0.2756  0.0323
   22DOPE   C31 2740  -0.333   4.155  16.191 -0.5386 -0.6481  0.5075
   22DOPE   O32 2741  -0.382   4.264  16.171 -0.3601  0.0114 -0.1389
   22DOPE   C32 2742  -0.347   4.036  16.092 -0.1836  0.0787 -0.1874
   22DOPE   H2X 2743  -0.251   3.982  16.108 -0.3902 -0.2804 -0.1438
   22DOPE   H2Y 2744  -0.429   3.968  16.124 -2.2455  2.7512  0.5322
   22DOPE   C23 2745  -0.350   3.693  16.314 -0.2157  0.3270 -0.4009
   22DOPE   H3R 2746  -0.260   3.630  16.332  0.7043  2.0595  1.4400
   22DOPE   H3S 2747  -0.319   3.770  16.241  0.5248 -0.5061 -0.9826
   22DOPE   C24 2748  -0.458   3.604  16.256 -0.2826  0.4913 -0.3042
   22DOPE   H4R 2749  -0.406   3.566  16.165 -3.1140  0.0027 -1.8184
   22DOPE   H4S 2750  -0.531   3.674  16.211  2.8993  2.1133 -3.5181
   22DOPE   C25 2751  -0.499   3.483  16.346 -0.9553  0.0527  0.2298
   22DOPE   H5R 2752  -0.552   3.521  16.436  1.2592 -0.7461  1.9836
   22DOPE   H5S 2753  -0.402   3.439  16.379 -1.0750 -1.3358 -1.1596
   22DOPE   C26 2754  -0.579   3.389  16.259  0.4611 -0.0507 -0.3685
   22DOPE   H6R 2755  -0.559   3.387  16.150  0.0229 -0.8430 -0.4490
   22DOPE   H6S 2756  -0.685   3.422  16.259 -0.1485 -1.6411 -2.9720
   22DOPE   C27 2757  -0.581   3.245  16.309 -0.0000  0.3488 -0.8800
   22DOPE   H7R 2758  -0.590   3.252  16.419  0.9942  0.4488 -0.7968
   22DOPE   H7S 2759  -0.485   3.193  16.288  1.2293  1.5118  1.4609
   22DOPE   C28 2760  -0.706   3.173  16.255 -0.1938  0.2633  0.1142
   22DOPE   H8R 2761  -0.682   3.172  16.146 -0.0189 -0.3730  0.1525
   22DOPE   H8S 2762  -0.800   3.232  16.256 -2.0665 -2.4897  2.6145
   22DOPE   C29 2763  -0.725   3.034  16.315  0.0892 -1.0958 -0.2892
   22DOPE   H9R 2764  -0.663   3.016  16.404  0.7509  0.2230 -0.4552
   22DOPE  C210 2765  -0.782   2.932  16.254  0.2316  0.3195 -0.2940
   22DOPE  H10R 2766  -0.769   2.839  16.310  2.4225  0.7256 -0.0185
   22DOPE  C211 2767  -0.865   2.930  16.124  0.4350 -0.3620 -0.1839
   22DOPE  H11R 2768  -0.903   3.031  16.098 -0.6576 -1.0215 -1.2361
   22DOPE  H11S 2769  -0.960   2.873  16.133 -0.1039  0.1788 -2.0097
   22DOPE  C212 2770  -0.784   2.877  16.003  0.5641 -0.4787  0.2704
   22DOPE  H12R 2771  -0.862   2.848  15.930 -1.0622 -0.2692  1.8593
   22DOPE  H12S 2772  -0.730   2.786  16.038  0.3922 -0.8100 -0.3277
   22DOPE  C213 2773  -0.676   2.966  15.944 -0.1948 -0.1784  0.3005
   22DOPE  H13R 2774  -0.586   2.985  16.006  0.1199  0.1985 -0.2710
   22DOPE  H13S 2775  -0.718   3.063  15.908  0.8418 -0.8512 -3.0969
   22DOPE  C214 2776  -0.619   2.909  15.812 -0.7045 -0.3036 -0.0458
   22DOPE  H14R 2777  -0.700   2.896  15.737  0.2926  0.4575 -1.2997
   22DOPE  H14S 2778  -0.564   2.816  15.837  1.0886  0.0613 -2.3047
   22DOPE  C215 2779  -0.516   3.005  15.752 -0.8163  0.5304  0.2504
   22DOPE  H15R 2780  -0.434   3.021  15.826 -0.0241 -2.5796  0.1941
   22DOPE  H15S 2781  -0.566   3.102  15.733 -3.8419 -1.0996 -0.6846
   22DOPE  C216 2782  -0.437   2.966  15.626 -0.1208 -0.1784 -0.5455
   22DOPE  H16R 2783  -0.384   2.870  15.642  1.1696  0.7183  0.7728
   22DOPE  H16S 2784  -0.353   3.036  15.607 -0.9810  1.4406  1.2410
   22DOPE  C217 2785  -0.523   2.945  15.506 -0.1272  0.3248 -0.4934
   22DOPE  H17R 2786  -0.578   3.041  15.495 -0.1539  0.3334 -0.3019
   22DOPE  H17S 2787  -0.586   2.854  15.522  0.3326  0.2237  0.8966
   22DOPE  C218 2788  -0.443   2.926  15.373 -0.2384  0.3967  0.2160
   22DOPE  H18R 2789  -0.339   2.964  15.374  1.1169 -2.9199  0.2239
   22DOPE  H18S 2790  -0.502   2.979  15.296 -2.8263 -0.5018  1.4797
   22DOPE  H18T 2791  -0.415   2.822  15.346 -0.3876  0.7316 -1.3111
   22DOPE   C33 2792  -0.376   4.080  15.945 -0.7613  0.1328  0.4857
   22DOPE   H3X 2793  -0.478   4.122  15.938  0.3284  2.7328 -2.0502
   22DOPE   H3Y 2794  -0.369   3.991  15.879 -0.3993 -0.5543  1.4246
   22DOPE   C34 2795  -0.270   4.170  15.888  0.0056  0.0765  0.0858
   22DOPE   H4X 2796  -0.293   4.274  15.919  2.4696  0.2223  1.7320
   22DOPE   H4Y 2797  -0.169   4.147  15.928 -0.1713 -2.4948 -0.7991
   22DOPE   C35 2798  -0.253   4.162  15.733  1.1317 -0.5799  0.4626
   22DOPE   H5X 2799  -0.213   4.069  15.688 -1.7452 -0.5564 -2.4158
   22DOPE   H5Y 2800  -0.171   4.233  15.708 -0.2537  0.7683 -0.4101
   22DOPE   C36 2801  -0.373   4.208  15.645  0.4417 -0.3140  0.0994
   22DOPE   H6X 2802  -0.456   4.136  15.659 -0.0143  0.2539  0.3948
   22DOPE   H6Y 2803  -0.337   4.208  15.540 -1.7534 -1.4119 -0.7079
   22DOPE   C37 2804  -0.425   4.352  15.676  0.6813  0.5144 -0.4413
   22DOPE   H7X 2805  -0.479   4.356  15.773  1.9152  0.3359  0.2714
   22DOPE   H7Y 2806  -0.336   4.418  15.680  1.3051 -0.1690 -2.0927
   22DOPE   C38 2807  -0.523   4.417  15.572  0.3379  0.4946 -0.5849
   22DOPE   H8X 2808  -0.461   4.432  15.481 -0.6844  2.3297 -1.0144
   22DOPE   H8Y 2809  -0.540   4.520  15.609 -0.2763  0.0835  0.3148
   22DOPE   C39 2810  -0.650   4.334  15.547 -0.5742  0.8469  0.2918
   22DOPE   H9X 2811  -0.712   4.336  15.637 -1.2849  0.6900 -0.1922
   22DOPE  C310 2812  -0.690   4.265  15.438  0.0045 -0.0392 -0.5324
   22DOPE  H10X 2813  -0.785   4.209  15.440 -1.8948  2.9868  0.9929
   22DOPE  C311 2814  -0.625   4.265  15.305 -0.2757 -0.2278  0.4424
   22DOPE  H11X 2815  -0.690   4.319  15.233  2.9462  0.4540 -2.1826
   22DOPE  H11Y 2816  -0.531   4.325  15.308 -1.3260  1.4909  0.2552
   22DOPE  C312 2817  -0.581   4.129  15.247  0.3680  0.0771  0.6790
   22DOPE  H12X 2818  -0.555   4.143  15.140  0.2577 -1.7443  0.3819
   22DOPE  H12Y 2819  -0.671   4.064  15.253  0.8149 -0.5940  0.1081
   22DOPE  C313 2820  -0.473   4.058  15.329 -0.5047 -0.1303 -0.2113
   22DOPE  H13X 2821  -0.381   4.119  15.338  0.4256 -1.7233  2.0931
   22DOPE  H13Y 2822  -0.521   4.030  15.426 -1.1286 -0.5221 -0.6194
   22DOPE  C314 2823  -0.408   3.935  15.271 -0.0598 -0.7700  0.4520
   22DOPE  H14X 2824  -0.348   3.959  15.180 -2.0691  1.2891 -0.4455
   22DOPE  H14Y 2825  -0.483   3.858  15.241 -1.1889 -0.9871  3.4990
   22DOPE  C315 2826  -0.304   3.881  15.366  0.2338 -0.3769 -0.3865
   22DOPE  H15X 2827  -0.352   3.822  15.447 -1.6285  1.4970 -0.0428
   22DOPE  H15Y 2828  -0.266   3.971  15.418  0.4847 -0.0615 -1.1006
   22DOPE  C316 2829  -0.193   3.804  15.298  0.7967 -0.4624 -0.3251
   22DOPE  H16X 2830  -0.135   3.866  15.227  3.4802 -1.8186  0.5316
   22DOPE  H16Y 2831  -0.244   3.726  15.237  2.0821 -1.4619 -0.1682
   22DOPE  C317 2832  -0.081   3.736  15.387  0.0172  0.1511  0.2604
   22DOPE  H17X 2833  -0.025   3.812  15.447  2.8076 -1.4833 -0.0903
   22DOPE  H17Y 2834  -0.139   3.672  15.457 -0.0830 -1.2281 -1.0277
   22DOPE  C318 2835   0.021   3.661  15.304  0.0867  0.2329  0.1269
   22DOPE  H18X 2836  -0.027   3.592  15.231 -0.3614 -1.0566  1.5983
   22DOPE  H18Y 2837   0.083   3.730  15.242  0.7858 -1.0900 -0.6902
   22DOPE  H18Z 2838   0.088   3.596  15.362 -1.3737 -2.4206 -0.9621
   23DOPE     N 2839   5.288   0.499  16.938 -0.6400  0.4422 -0.1394
   23DOPE   HN1 2840   5.341   0.552  16.866 -1.8396  0.8493 -0.7359
   23DOPE   HN2 2841   5.192   0.489  16.900 -0.8235  0.8697  0.2215
   23DOPE   HN3 2842   5.276   0.558  17.022  0.1356  0.7771 -0.2565
   23DOPE   C12 2843   5.368   0.375  16.982  0.3202  0.0505 -0.0714
   23DOPE  H12A 2844   5.471   0.407  17.010  0.8002  0.1721 -1.8633
   23DOPE  H12B 2845   5.371   0.307  16.895 -2.2226  0.5360 -0.6400
   23DOPE   C11 2846   5.303   0.299  17.108  0.4278 -0.3546  0.2716
   23DOPE  H11A 2847   5.326   0.355  17.200  0.2251 -0.0549  0.1402
   23DOPE  H11B 2848   5.356   0.201  17.111  3.0256  0.8868 -1.4704
   23DOPE     P 2849   5.091   0.167  17.037 -0.1769  0.1367  0.0017
   23DOPE   O13 2850   4.958   0.217  17.004 -0.2241 -0.5939 -0.2576
   23DOPE   O14 2851   5.100   0.052  17.129  0.3074 -0.1659 -0.3457
   23DOPE   O11 2852   5.165   0.144  16.904  0.3231 -0.3489 -0.5444
   23DOPE   O12 2853   5.158   0.296  17.093  0.3590 -0.7051 -0.0804
   23DOPE    C1 2854   5.223   0.021  16.881  0.2524 -0.2256  0.3567
   23DOPE    HA 2855   5.162  -0.067  16.910  0.0761  0.3868  1.8903
   23DOPE    HB 2856   5.322   0.011  16.931 -0.6275  0.5982  2.3474
   23DOPE    C2 2857   5.238   0.010  16.727 -0.0762 -0.0225 -0.3380
   23DOPE    HS 2858   5.293   0.100  16.694 -1.3465  0.9924  0.1959
   23DOPE   O21 2859   5.112  -0.006  16.657  0.1747 -0.5097 -0.4760
   23DOPE   C21 2860   5.048   0.108  16.638 -0.2859  0.4549  0.5496
   23DOPE   O22 2861   5.092   0.216  16.661 -0.0656 -0.0562 -0.3492
   23DOPE   C22 2862   4.932   0.074  16.546  0.3527  0.4193 -0.1319
   23DOPE   H2R 2863   4.859   0.010  16.600 -1.4051  2.4812  0.0855
   23DOPE   H2S 2864   4.963   0.016  16.457 -1.4364  1.1561 -1.2994
   23DOPE    C3 2865   5.333  -0.108  16.686 -0.0354  0.3953  0.5926
   23DOPE    HX 2866   5.274  -0.199  16.711 -2.2867  0.8690 -2.4174
   23DOPE    HY 2867   5.431  -0.096  16.738  0.3383 -0.7808  0.1975
   23DOPE   O31 2868   5.351  -0.117  16.540  0.3246  0.0027  0.1319
   23DOPE   C31 2869   5.425  -0.007  16.502  0.3099 -0.5811 -0.1634
   23DOPE   O32 2870   5.485   0.063  16.582 -0.1638 -0.0846  0.6522
   23DOPE   C32 2871   5.408   0.032  16.360  0.2311  0.3618  0.3369
   23DOPE   H2X 2872   5.467   0.123  16.338  1.0354 -0.1732  0.2666
   23DOPE   H2Y 2873   5.444  -0.058  16.306 -1.5237 -0.8048  1.0160
   23DOPE   C23 2874   4.857   0.204  16.491 -0.5768 -0.0885 -0.6664
   23DOPE   H3R 2875   4.941   0.263  16.447 -0.7767 -0.5101 -1.6563
   23DOPE   H3S 2876   4.812   0.259  16.577  1.4417  1.6289 -0.6161
   23DOPE   C24 2877   4.759   0.176  16.383  0.1102 -0.5379 -0.4781
   23DOPE   H4R 2878   4.714   0.274  16.355  2.2263  0.6893  0.1829
   23DOPE   H4S 2879   4.675   0.113  16.421 -1.7229  1.1707 -1.4980
   23DOPE   C25 2880   4.830   0.132  16.258  0.1834  0.3011 -0.2139
   23DOPE   H5R 2881   4.867   0.028  16.274 -2.4644 -0.5697  0.6921
   23DOPE   H5S 2882   4.924   0.189  16.239  0.5729 -0.2729 -0.0457
   23DOPE   C26 2883   4.738   0.145  16.131 -0.0655 -0.4080  0.0047
   23DOPE   H6R 2884   4.697   0.248  16.128  0.0656 -0.3221  0.9161
   23DOPE   H6S 2885   4.650   0.078  16.138  0.0072 -0.4523  0.5479
   23DOPE   C27 2886   4.827   0.129  16.000 -0.9211 -0.8272 -0.7702
   23DOPE   H7R 2887   4.883   0.033  15.996  0.9479  0.2551 -2.5636
   23DOPE   H7S 2888   4.906   0.206  16.013 -3.1967  1.2384  1.8678
   23DOPE   C28 2889   4.743   0.160  15.875  0.1353  0.3954  0.0653
   23DOPE   H8R 2890   4.714   0.265  15.894  0.6226 -0.0063  3.8412
   23DOPE   H8S 2891   4.655   0.093  15.866  0.2620  0.0531  1.1895
   23DOPE   C29 2892   4.823   0.152  15.747 -0.8657 -0.1667 -1.1412
   23DOPE   H9R 2893   4.886   0.241  15.732 -1.4452  0.4262 -0.1501
   23DOPE  C210 2894   4.817   0.060  15.653 -0.1702 -0.4299  0.5408
   23DOPE  H10R 2895   4.886   0.088  15.572  1.6504  1.4980  2.6104
   23DOPE  C211 2896   4.743  -0.071  15.641  0.1668 -0.1286  0.2043
   23DOPE  H11R 2897   4.647  -0.062  15.695 -0.4861  0.9304 -1.0785
   23DOPE  H11S 2898   4.815  -0.147  15.678  0.8966 -0.6989 -2.1893
   23DOPE  C212 2899   4.695  -0.107  15.502  0.2083 -0.7531  0.4690
   23DOPE  H12R 2900   4.780  -0.125  15.432  0.8337 -2.0941  1.5325
   23DOPE  H12S 2901   4.637  -0.020  15.465 -1.3051 -1.1293  1.8179
   23DOPE  C213 2902   4.609  -0.231  15.493  0.3282  0.6637 -0.2359
   23DOPE  H13R 2903   4.532  -0.232  15.573 -0.2647 -1.3475 -0.7883
   23DOPE  H13S 2904   4.673  -0.319  15.515 -1.0272 -0.6557 -1.4304
   23DOPE  C214 2905   4.545  -0.251  15.352 -0.0245  0.1073 -0.2598
   23DOPE  H14R 2906   4.499  -0.156  15.316 -0.6690 -0.6468 -1.4614
   23DOPE  H14S 2907   4.465  -0.328  15.356 -0.2678  0.3592 -0.2144
   23DOPE  C215 2908   4.658  -0.298  15.252  0.4309 -0.5307  0.4107
   23DOPE  H15R 2909   4.728  -0.372  15.296  0.0645 -0.2440  1.4896
   23DOPE  H15S 2910   4.723  -0.210  15.234  1.3104 -0.8888  1.7725
   23DOPE  C216 2911   4.611  -0.360  15.112 -0.3846 -0.4113 -0.5215
   23DOPE  H16R 2912   4.538  -0.439  15.139 -0.4891 -0.0025  0.4503
   23DOPE  H16S 2913   4.705  -0.400  15.068 -0.8216 -0.7960 -1.1169
   23DOPE  C217 2914   4.552  -0.257  15.012  0.6657  0.2972  0.4877
   23DOPE  H17R 2915   4.494  -0.197  15.086 -0.0368 -0.0392  0.2260
   23DOPE  H17S 2916   4.478  -0.305  14.944  1.7552  0.5635 -0.9333
   23DOPE  C218 2917   4.647  -0.183  14.921  0.3855 -0.1795  0.3207
   23DOPE  H18R 2918   4.590  -0.095  14.884  0.4433  0.5384  1.8704
   23DOPE  H18S 2919   4.683  -0.256  14.844 -1.1838  0.6114 -1.2323
   23DOPE  H18T 2920   4.735  -0.146  14.978  0.3283  1.7513 -0.7589
   23DOPE   C33 2921   5.257   0.053  16.332 -0.0539  0.0256 -0.8447
   23DOPE   H3X 2922   5.225   0.130  16.405 -1.1928  2.2835 -3.5087
   23DOPE   H3Y 2923   5.193  -0.035  16.356  0.2370  0.2334  0.8263
   23DOPE   C34 2924   5.221   0.100  16.191 -0.1564 -0.1589  0.2591
   23DOPE   H4X 2925   5.126   0.157  16.204 -0.9144 -1.3687  0.2507
   23DOPE   H4Y 2926   5.299   0.168  16.152 -0.1494 -0.0574  0.4465
   23DOPE   C35 2927   5.201  -0.015  16.095  0.2318 -0.8670  0.7629
   23DOPE   H5X 2928   5.093  -0.037  16.081  0.0617 -1.0372  2.2404
   23DOPE   H5Y 2929   5.252  -0.105  16.136  1.7149  0.1223  1.1770
   23DOPE   C36 2930   5.263   0.019  15.957 -0.1032  0.3645  0.8734
   23DOPE   H6X 2931   5.373   0.030  15.966  0.1429  0.9352 -1.8804
   23DOPE   H6Y 2932   5.226   0.120  15.932  0.3889  0.3765  0.1514
   23DOPE   C37 2933   5.232  -0.084  15.848 -0.5547  0.0184  0.4331
   23DOPE   H7X 2934   5.253  -0.188  15.881  0.8890  0.6344  1.5766
   23DOPE   H7Y 2935   5.125  -0.083  15.818  0.4192  1.9810 -3.7383
   23DOPE   C38 2936   5.313  -0.045  15.722  0.0021 -0.1886 -0.1316
   23DOPE   H8X 2937   5.331  -0.144  15.675  0.1523 -0.5904  0.7464
   23DOPE   H8Y 2938   5.412   0.001  15.745  0.3025  0.7203 -2.8271
   23DOPE   C39 2939   5.252   0.054  15.618  0.7859 -0.0055  0.4507
   23DOPE   H9X 2940   5.148   0.034  15.589  1.1350 -0.1901 -0.7026
   23DOPE  C310 2941   5.316   0.164  15.563 -0.6302 -0.0150  0.5150
   23DOPE  H10X 2942   5.268   0.243  15.503 -0.3792  1.0001  1.6039
   23DOPE  C311 2943   5.454   0.203  15.608  0.1347  0.2619 -0.0432
   23DOPE  H11X 2944   5.525   0.117  15.607  2.6145  2.1332  1.5813
   23DOPE  H11Y 2945   5.508   0.269  15.537  1.1217 -1.3298 -0.8251
   23DOPE  C312 2946   5.452   0.266  15.751  0.1551  0.0082 -0.1489
   23DOPE  H12X 2947   5.433   0.201  15.839  1.8572  0.6750  0.7706
   23DOPE  H12Y 2948   5.370   0.340  15.752 -0.0566 -0.2270 -0.0522
   23DOPE  C313 2949   5.583   0.348  15.781 -0.6855  0.5113  0.0845
   23DOPE  H13X 2950   5.672   0.281  15.781 -1.7096 -1.1318 -3.8332
   23DOPE  H13Y 2951   5.600   0.416  15.695 -0.7759 -0.1022 -0.4222
   23DOPE  C314 2952   5.581   0.424  15.917 -0.8801  0.5652  0.2508
   23DOPE  H14X 2953   5.568   0.339  15.987  1.3294 -0.5774 -0.6284
   23DOPE  H14Y 2954   5.488   0.484  15.917 -0.0511  1.9381 -1.3114
   23DOPE  C315 2955   5.712   0.495  15.935 -0.6431 -0.1292 -0.0000
   23DOPE  H15X 2956   5.730   0.569  15.854 -3.5959 -1.8710 -2.4790
   23DOPE  H15Y 2957   5.792   0.417  15.927  0.2219  0.9425 -2.8521
   23DOPE  C316 2958   5.713   0.561  16.068  0.1363 -0.0780  0.2903
   23DOPE  H16X 2959   5.706   0.474  16.137  0.6792  0.1154  0.5895
   23DOPE  H16Y 2960   5.628   0.631  16.088 -0.4840 -1.0745  1.2649
   23DOPE  C317 2961   5.848   0.623  16.104  0.5631 -0.5619 -0.6967
   23DOPE  H17X 2962   5.933   0.553  16.088  0.8062 -0.6206  0.7193
   23DOPE  H17Y 2963   5.860   0.708  16.033 -2.2533  0.9082  0.4007
   23DOPE  C318 2964   5.846   0.663  16.260 -0.4093 -0.1898 -0.2961
   23DOPE  H18X 2965   5.798   0.763  16.261 -1.2808 -0.4469 -3.7646
   23DOPE  H18Y 2966   5.794   0.586  16.320  2.0320 -0.2239  1.9740
   23DOPE  H18Z 2967   5.947   0.672  16.306 -0.5603 -3.2328  0.8337
   24DOPE     N 2968   6.620   5.006  16.820 -0.2017  0.2112 -0.8328
   24DOPE   HN1 2969   6.568   4.992  16.909 -0.4481  0.3216 -0.9586
   24DOPE   HN2 2970   6.721   4.982  16.828 -0.5286 -0.8685  0.4504
   24DOPE   HN3 2971   6.614   5.107  16.799  2.4432  0.2021 -2.0290
   24DOPE   C12 2972   6.571   4.917  16.708  0.0317  0.4947  0.0212
   24DOPE  H12A 2973   6.509   4.978  16.639 -0.7505 -2.0993 -1.7264
   24DOPE  H12B 2974   6.506   4.846  16.764  1.2774  1.4931  2.9253
   24DOPE   C11 2975   6.680   4.847  16.615 -0.5252 -1.1906 -0.7328
   24DOPE  H11A 2976   6.643   4.791  16.527 -1.8487  1.0283 -1.6762
   24DOPE  H11B 2977   6.736   4.777  16.681  1.0444  1.2848  0.7347
   24DOPE     P 2978   6.889   4.936  16.477  0.1933  0.1575  0.0946
   24DOPE   O13 2979   6.956   4.808  16.481 -0.1317  0.1106  0.4523
   24DOPE   O14 2980   6.975   5.055  16.510  0.1506  0.4863 -0.4781
   24DOPE   O11 2981   6.844   4.955  16.326 -0.0305  0.1594 -0.0179
   24DOPE   O12 2982   6.767   4.950  16.570 -0.2662 -0.3720  0.3893
   24DOPE    C1 2983   6.704   4.947  16.290  0.2738  0.1171  0.1731
   24DOPE    HA 2984   6.678   5.052  16.266  2.9671  0.3928 -2.0329
   24DOPE    HB 2985   6.633   4.910  16.367  0.3001  1.2196  0.7441
   24DOPE    C2 2986   6.679   4.862  16.167  0.1995  0.4012  0.0890
   24DOPE    HS 2987   6.578   4.880  16.125  0.3178 -2.4269 -1.6939
   24DOPE   O21 2988   6.704   4.721  16.191 -0.4217 -0.0436 -0.4160
   24DOPE   C21 2989   6.600   4.662  16.255  0.2153 -0.4904 -0.9382
   24DOPE   O22 2990   6.498   4.719  16.282  0.4693  0.3076  0.3519
   24DOPE   C22 2991   6.636   4.513  16.296 -0.4427 -0.0241  0.2301
   24DOPE   H2R 2992   6.726   4.524  16.360 -0.5674 -0.8936  0.5694
   24DOPE   H2S 2993   6.644   4.450  16.206  0.2211 -0.2377  0.4356
   24DOPE    C3 2994   6.772   4.901  16.049 -0.2584 -0.0131  0.1748
   24DOPE    HX 2995   6.880   4.890  16.071 -0.4418 -1.2978  0.4735
   24DOPE    HY 2996   6.764   5.008  16.018  1.5963  0.1494  0.1790
   24DOPE   O31 2997   6.738   4.829  15.932  0.3479  0.0958  0.4228
   24DOPE   C31 2998   6.846   4.828  15.850 -0.5672 -0.1638 -0.1767
   24DOPE   O32 2999   6.955   4.878  15.870 -0.0783  0.5936 -0.3384
   24DOPE   C32 3000   6.806   4.753  15.727 -0.0260 -0.6939 -0.4652
   24DOPE   H2X 3001   6.818   4.643  15.736  0.8205 -0.8224 -2.5439
   24DOPE   H2Y 3002   6.697   4.770  15.717  0.0165 -0.2093 -0.1213
   24DOPE   C23 3003   6.535   4.428  16.382  0.1147  0.2130  0.6662
   24DOPE   H3R 3004   6.541   4.478  16.481  2.0813  1.1312  0.1386
   24DOPE   H3S 3005   6.561   4.326  16.417  0.7089  0.4868  1.0396
   24DOPE   C24 3006   6.387   4.419  16.336  0.2247 -0.1811 -0.4138
   24DOPE   H4R 3007   6.344   4.520  16.348 -0.3195 -0.4739  0.1352
   24DOPE   H4S 3008   6.339   4.343  16.402  0.5519 -0.0052  0.0403
   24DOPE   C25 3009   6.381   4.390  16.194  0.0545  0.3908 -0.2456
   24DOPE   H5R 3010   6.434   4.294  16.178 -1.6762 -0.2994 -2.3138
   24DOPE   H5S 3011   6.422   4.465  16.123 -1.0409  2.4390  1.1821
   24DOPE   C26 3012   6.236   4.368  16.160  0.1566 -0.4743 -0.1870
   24DOPE   H6R 3013   6.189   4.467  16.181 -1.2626 -0.9563 -0.9753
   24DOPE   H6S 3014   6.184   4.295  16.225 -2.8350  0.6489 -1.1229
   24DOPE   C27 3015   6.226   4.336  16.010 -0.1930 -0.3019  0.2005
   24DOPE   H7R 3016   6.290   4.248  15.988 -0.4965 -0.7359  1.0044
   24DOPE   H7S 3017   6.278   4.419  15.958  0.9127 -1.0185  0.1289
   24DOPE   C28 3018   6.077   4.327  15.966 -0.5633 -0.1101  0.3952
   24DOPE   H8R 3019   6.046   4.433  15.954  2.7730  0.8127 -1.5673
   24DOPE   H8S 3020   6.015   4.281  16.046 -1.2504 -1.6857 -0.9819
   24DOPE   C29 3021   6.069   4.260  15.829  0.1508  0.0693 -0.6088
   24DOPE   H9R 3022   6.074   4.328  15.743  3.1526 -2.3799 -2.6014
   24DOPE  C210 3023   6.064   4.131  15.792  0.0900  0.1693 -0.2746
   24DOPE  H10R 3024   6.046   4.103  15.687  0.8500 -1.4107 -0.0111
   24DOPE  C211 3025   6.072   4.013  15.879  0.5801 -0.7476 -0.0009
   24DOPE  H11R 3026   6.099   4.047  15.981 -0.6906  0.1813  0.0460
   24DOPE  H11S 3027   6.149   3.941  15.844  1.5166  0.1470  0.1552
   24DOPE  C212 3028   5.938   3.931  15.885  0.3431  0.1298 -0.6357
   24DOPE  H12R 3029   5.858   3.990  15.935  0.5493 -1.3204  1.5300
   24DOPE  H12S 3030   5.956   3.850  15.959  1.2297  1.8710  1.1330
   24DOPE  C213 3031   5.909   3.867  15.749 -0.3982  0.2452 -0.9099
   24DOPE  H13R 3032   5.996   3.818  15.700  1.0516  0.7842  0.9851
   24DOPE  H13S 3033   5.902   3.948  15.673 -0.1926  0.6220 -0.5298
   24DOPE  C214 3034   5.806   3.757  15.754 -0.0009 -0.1469 -0.2164
   24DOPE  H14R 3035   5.709   3.802  15.784 -1.1982 -2.1899 -0.7705
   24DOPE  H14S 3036   5.829   3.677  15.828 -1.0450 -0.0078  0.2763
   24DOPE  C215 3037   5.770   3.683  15.627  0.8938  0.3945  0.1703
   24DOPE  H15R 3038   5.674   3.630  15.642  1.7990 -2.0688 -1.8739
   24DOPE  H15S 3039   5.843   3.609  15.587  1.0913  1.2099 -1.0366
   24DOPE  C216 3040   5.749   3.770  15.499  0.2386 -0.0644 -0.5183
   24DOPE  H16R 3041   5.836   3.829  15.464  0.1606 -0.9798 -2.3334
   24DOPE  H16S 3042   5.672   3.847  15.523  0.5555 -0.2630  1.3036
   24DOPE  C217 3043   5.715   3.695  15.378 -0.0874 -0.4122  1.0375
   24DOPE  H17R 3044   5.613   3.652  15.389 -1.2568  1.2499 -2.0290
   24DOPE  H17S 3045   5.779   3.605  15.362  0.8122  0.7389 -3.1465
   24DOPE  C218 3046   5.705   3.777  15.247  0.8401 -0.7046  0.8906
   24DOPE  H18R 3047   5.668   3.880  15.268  2.2320  0.1965 -0.8274
   24DOPE  H18S 3048   5.638   3.732  15.171  1.6290 -1.0504  0.3866
   24DOPE  H18T 3049   5.808   3.796  15.212  0.8571 -1.4254  0.5263
   24DOPE   C33 3050   6.881   4.801  15.592  0.1046 -0.2462  0.2389
   24DOPE   H3X 3051   6.985   4.766  15.604  0.6394  0.6203 -1.5470
   24DOPE   H3Y 3052   6.874   4.911  15.582  0.5975 -0.2350 -0.0043
   24DOPE   C34 3053   6.835   4.735  15.467  0.2426  0.1618 -0.1179
   24DOPE   H4X 3054   6.842   4.626  15.487 -1.2393 -0.1258 -1.0121
   24DOPE   H4Y 3055   6.730   4.760  15.440 -0.3789 -2.6235 -0.6574
   24DOPE   C35 3056   6.926   4.775  15.351  0.0226 -0.0986  0.4387
   24DOPE   H5X 3057   6.917   4.883  15.327  1.3876 -0.3837 -1.6667
   24DOPE   H5Y 3058   6.889   4.719  15.262  3.2476 -2.0780  0.1763
   24DOPE   C36 3059   7.072   4.721  15.366  0.3076  0.7092 -0.5705
   24DOPE   H6X 3060   7.105   4.688  15.265 -1.5394 -0.2568 -0.8988
   24DOPE   H6Y 3061   7.066   4.622  15.416 -1.0156 -0.3075 -2.6350
   24DOPE   C37 3062   7.183   4.805  15.424 -0.0470  0.3724 -0.4149
   24DOPE   H7X 3063   7.182   4.905  15.376 -0.0788  1.4294  1.6735
   24DOPE   H7Y 3064   7.164   4.832  15.531 -1.6137 -0.0927 -0.5512
   24DOPE   C38 3065   7.323   4.749  15.416  0.1156 -0.0012 -0.0855
   24DOPE   H8X 3066   7.337   4.647  15.457  0.2281 -0.8574 -2.1359
   24DOPE   H8Y 3067   7.391   4.815  15.474  1.8124 -2.6525  1.1135
   24DOPE   C39 3068   7.364   4.747  15.274  0.1152  0.1083  0.1286
   24DOPE   H9X 3069   7.310   4.818  15.209  0.7903  1.2920  0.8406
   24DOPE  C310 3070   7.456   4.659  15.226 -0.5188  0.3071  0.0833
   24DOPE  H10X 3071   7.486   4.655  15.120 -2.0833  1.8015 -0.4739
   24DOPE  C311 3072   7.546   4.571  15.315 -0.1498  0.1288 -0.1893
   24DOPE  H11X 3073   7.648   4.603  15.284 -0.6884  0.5299 -1.6630
   24DOPE  H11Y 3074   7.537   4.596  15.423 -0.1146 -0.1951 -0.1112
   24DOPE  C312 3075   7.541   4.412  15.281  0.3802 -0.1771 -0.7318
   24DOPE  H12X 3076   7.581   4.390  15.179  2.8127 -0.6587  0.2566
   24DOPE  H12Y 3077   7.437   4.380  15.306  0.6683  0.6939  1.8084
   24DOPE  C313 3078   7.636   4.335  15.368 -0.2896 -0.6380 -0.0838
   24DOPE  H13X 3079   7.740   4.371  15.352 -0.3215 -0.7075 -0.4465
   24DOPE  H13Y 3080   7.597   4.336  15.472  0.4428 -0.8916  0.2008
   24DOPE  C314 3081   7.653   4.188  15.317 -0.3146 -0.6537 -1.3132
   24DOPE  H14X 3082   7.690   4.198  15.213  1.3751  1.0276 -0.6081
   24DOPE  H14Y 3083   7.558   4.133  15.335  0.5447 -1.9702 -0.6022
   24DOPE  C315 3084   7.759   4.121  15.403 -0.7069 -0.7359  0.4727
   24DOPE  H15X 3085   7.847   4.137  15.338 -1.7357 -0.1616 -0.8286
   24DOPE  H15Y 3086   7.746   4.011  15.397  2.8469 -1.2697 -5.0842
   24DOPE  C316 3087   7.789   4.165  15.550  0.1642 -0.3912  0.4504
   24DOPE  H16X 3088   7.695   4.181  15.607  0.6133  0.7857  0.8747
   24DOPE  H16Y 3089   7.839   4.263  15.540 -2.6162  0.9715 -1.6258
   24DOPE  C317 3090   7.880   4.071  15.630 -0.9434  0.3332  0.2799
   24DOPE  H17X 3091   7.831   3.971  15.629  0.0675 -0.1818  0.7423
   24DOPE  H17Y 3092   7.977   4.070  15.575 -1.9709 -0.0782 -1.6125
   24DOPE  C318 3093   7.914   4.119  15.771  0.5438  0.5415  0.3747
   24DOPE  H18X 3094   7.823   4.126  15.835  1.4447 -2.1700  2.1498
   24DOPE  H18Y 3095   7.979   4.040  15.815 -0.6660 -1.1234 -0.7440
   24DOPE  H18Z 3096   7.969   4.215  15.762  2.8886 -0.7823 -0.3842
   25DOPE     N 3097   7.221   4.826  16.467  0.0789  0.3765 -0.1181
   25DOPE   HN1 3098   7.259   4.830  16.564 -1.1923 -0.5566  0.4389
   25DOPE   HN2 3099   7.118   4.816  16.464  0.0244 -0.5425  2.4044
   25DOPE   HN3 3100   7.262   4.738  16.430 -1.6178 -0.3942 -0.2229
   25DOPE   C12 3101   7.276   4.931  16.375  0.0872 -0.2438  0.2592
   25DOPE  H12A 3102   7.266   5.034  16.417 -2.5766 -1.5880  3.3443
   25DOPE  H12B 3103   7.209   4.932  16.287 -0.8732  0.3052  0.9778
   25DOPE   C11 3104   7.425   4.913  16.330 -0.1402  0.0072 -0.2215
   25DOPE  H11A 3105   7.444   4.968  16.235  0.5390  1.0043  0.4624
   25DOPE  H11B 3106   7.440   4.807  16.303  0.5946  0.2269 -0.7208
   25DOPE     P 3107   7.584   4.860  16.533  0.5773 -0.0984 -0.3880
   25DOPE   O13 3108   7.472   4.792  16.600  0.6200 -0.6017 -0.3043
   25DOPE   O14 3109   7.668   4.942  16.618 -0.2790  0.3606  0.1091
   25DOPE   O11 3110   7.679   4.764  16.453  0.2054  0.3072  0.0751
   25DOPE   O12 3111   7.520   4.958  16.423 -0.3143 -0.0578 -0.0391
   25DOPE    C1 3112   7.811   4.799  16.414  0.3985 -0.6402 -0.6420
   25DOPE    HA 3113   7.880   4.713  16.398  4.3157  1.8900  0.9986
   25DOPE    HB 3114   7.861   4.855  16.496  0.6157 -2.1663  0.2981
   25DOPE    C2 3115   7.809   4.866  16.271  0.0569 -0.3629  1.0993
   25DOPE    HS 3116   7.748   4.959  16.274  1.8579  0.9030  0.3534
   25DOPE   O21 3117   7.766   4.769  16.178  0.0217  0.2532 -0.5989
   25DOPE   C21 3118   7.688   4.818  16.087  0.2840 -0.3598 -0.4705
   25DOPE   O22 3119   7.639   4.930  16.074  0.2218  0.1195 -0.4329
   25DOPE   C22 3120   7.659   4.715  15.977  0.2358  0.5806  0.1926
   25DOPE   H2R 3121   7.574   4.649  16.005 -0.5793  2.0113  1.2379
   25DOPE   H2S 3122   7.744   4.645  15.960 -0.2219  0.7873 -3.9381
   25DOPE    C3 3123   7.949   4.919  16.232  0.4945  0.5524 -0.0321
   25DOPE    HX 3124   8.016   4.832  16.243 -0.2194 -0.2358 -1.5081
   25DOPE    HY 3125   7.998   4.988  16.304 -1.8401  3.1276 -0.7098
   25DOPE   O31 3126   7.958   4.972  16.095 -0.6805  0.4147 -0.0452
   25DOPE   C31 3127   7.901   5.090  16.077 -0.3059 -0.6393 -0.6984
   25DOPE   O32 3128   7.851   5.163  16.165 -0.4403  0.0417  0.2736
   25DOPE   C32 3129   7.923   5.130  15.930  0.3567 -0.4275  0.2109
   25DOPE   H2X 3130   7.977   5.225  15.945 -0.9790  0.5453 -0.8574
   25DOPE   H2Y 3131   7.989   5.052  15.886 -0.4826 -0.9118 -0.2218
   25DOPE   C23 3132   7.608   4.770  15.842 -0.5947  0.7134  0.1695
   25DOPE   H3R 3133   7.684   4.840  15.802 -0.4556  0.8307  0.6271
   25DOPE   H3S 3134   7.518   4.826  15.875 -0.5171  0.8978  0.0733
   25DOPE   C24 3135   7.562   4.662  15.752  0.9177 -0.0520  0.5828
   25DOPE   H4R 3136   7.491   4.699  15.674 -1.9209  0.4768  3.2246
   25DOPE   H4S 3137   7.497   4.592  15.809 -0.1532  1.1678  0.9053
   25DOPE   C25 3138   7.671   4.573  15.686  0.0782 -0.5062  0.1289
   25DOPE   H5R 3139   7.633   4.507  15.605  0.6078  0.3568 -0.8455
   25DOPE   H5S 3140   7.705   4.507  15.768  1.0224  0.2844  0.3821
   25DOPE   C26 3141   7.786   4.662  15.627 -0.1697  0.4129 -0.3572
   25DOPE   H6R 3142   7.829   4.738  15.695 -1.1334  0.5228  0.1319
   25DOPE   H6S 3143   7.746   4.717  15.539  1.8809 -0.1605 -1.7407
   25DOPE   C27 3144   7.894   4.569  15.565 -0.1703  0.1190 -0.4781
   25DOPE   H7R 3145   7.840   4.502  15.494 -1.3139 -1.3525  1.6669
   25DOPE   H7S 3146   7.934   4.498  15.641 -0.9838  1.4304  1.2436
   25DOPE   C28 3147   8.022   4.645  15.510 -0.8571  0.4646 -0.8374
   25DOPE   H8R 3148   8.101   4.573  15.480  1.1001  0.9760  2.5629
   25DOPE   H8S 3149   8.059   4.710  15.592 -2.5227  1.9527 -1.2067
   25DOPE   C29 3150   7.985   4.731  15.398  0.1277  0.3415  0.4360
   25DOPE   H9R 3151   7.952   4.833  15.422 -0.3487  0.4787 -0.7419
   25DOPE  C210 3152   7.970   4.685  15.272  0.1730 -0.1265  0.5504
   25DOPE  H10R 3153   7.941   4.754  15.191 -0.5249 -1.1668 -0.1168
   25DOPE  C211 3154   8.011   4.548  15.220  0.3720 -0.4044  0.1725
   25DOPE  H11R 3155   7.952   4.475  15.278  0.8821  1.7686  3.7588
   25DOPE  H11S 3156   8.111   4.517  15.259 -0.7421 -1.6335  2.2036
   25DOPE  C212 3157   8.003   4.524  15.069 -0.1462 -0.0583 -0.5708
   25DOPE  H12R 3158   8.030   4.419  15.043 -1.0208 -0.6468  0.7413
   25DOPE  H12S 3159   8.078   4.584  15.015  0.0415 -0.3692 -0.6570
   25DOPE  C213 3160   7.860   4.545  15.025 -0.6636  0.1197 -0.3494
   25DOPE  H13R 3161   7.836   4.653  15.025 -0.0762  0.2648 -1.2549
   25DOPE  H13S 3162   7.784   4.491  15.085 -0.3493  1.5743  1.4343
   25DOPE  C214 3163   7.844   4.501  14.879 -0.0378  0.3292 -0.0681
   25DOPE  H14R 3164   7.885   4.398  14.879  0.0892  0.3693 -1.0283
   25DOPE  H14S 3165   7.903   4.555  14.802 -0.3208 -0.6154 -0.9806
   25DOPE  C215 3166   7.686   4.494  14.848 -0.1652 -0.4123  0.5283
   25DOPE  H15R 3167   7.645   4.595  14.869  0.2771  0.0236 -0.6290
   25DOPE  H15S 3168   7.627   4.429  14.916  0.7273 -0.5273  1.2289
   25DOPE  C216 3169   7.650   4.461  14.706 -0.0426 -0.1088  0.1786
   25DOPE  H16R 3170   7.688   4.546  14.645 -1.2561  1.4884  1.5376
   25DOPE  H16S 3171   7.539   4.463  14.702 -0.1874  1.2336  2.6570
   25DOPE  C217 3172   7.716   4.329  14.657 -0.0376  0.1986  0.1658
   25DOPE  H17R 3173   7.670   4.244  14.712  1.9844 -2.0210 -1.3491
   25DOPE  H17S 3174   7.826   4.314  14.664 -0.4435 -3.6412  0.8503
   25DOPE  C218 3175   7.690   4.304  14.509 -0.1344 -0.3558 -0.4249
   25DOPE  H18R 3176   7.751   4.368  14.442  1.5884 -1.6681 -0.1783
   25DOPE  H18S 3177   7.584   4.322  14.482  0.3018  3.0866 -0.2327
   25DOPE  H18T 3178   7.698   4.194  14.491  1.9113 -0.0462 -1.7527
   25DOPE   C33 3179   7.795   5.129  15.840  0.0144 -0.0956 -0.2716
   25DOPE   H3X 3180   7.713   5.182  15.893  0.5547  0.5259 -0.0376
   25DOPE   H3Y 3181   7.761   5.028  15.812  0.8062 -0.1743 -0.9807
   25DOPE   C34 3182   7.817   5.206  15.714  0.5623  0.0486 -0.7005
   25DOPE   H4X 3183   7.837   5.315  15.728 -0.5238  0.3713 -1.4631
   25DOPE   H4Y 3184   7.916   5.172  15.677  0.6031  0.6251 -1.1280
   25DOPE   C35 3185   7.700   5.199  15.615  0.2910  0.0069 -0.4743
   25DOPE   H5X 3186   7.710   5.280  15.539  0.3971 -1.9287 -2.6532
   25DOPE   H5Y 3187   7.602   5.225  15.661 -0.1506  0.6916 -1.7358
   25DOPE   C36 3188   7.689   5.059  15.550 -0.4763  0.2573 -0.2057
   25DOPE   H6X 3189   7.667   4.978  15.623 -0.2481 -0.1285 -0.5607
   25DOPE   H6Y 3190   7.783   5.034  15.496  0.1578  0.6114  0.6993
   25DOPE   C37 3191   7.581   5.065  15.440  0.3610  0.3255 -0.6391
   25DOPE   H7X 3192   7.541   4.965  15.413 -0.2185  0.4849 -0.4061
   25DOPE   H7Y 3193   7.492   5.122  15.476  0.7948  0.6682 -0.0941
   25DOPE   C38 3194   7.628   5.127  15.313  0.7000 -0.0535  0.5108
   25DOPE   H8X 3195   7.710   5.060  15.279  0.6751 -0.3574  1.0348
   25DOPE   H8Y 3196   7.664   5.229  15.334  1.3778 -0.5722  2.0180
   25DOPE   C39 3197   7.517   5.135  15.211 -0.1319  0.6246  0.5772
   25DOPE   H9X 3198   7.435   5.197  15.249  1.1188  2.3061  0.6524
   25DOPE  C310 3199   7.512   5.083  15.084  0.1432  0.2494 -0.1679
   25DOPE  H10X 3200   7.432   5.121  15.019 -1.6877 -1.0220  1.2253
   25DOPE  C311 3201   7.607   4.994  15.013 -0.3597 -0.5838  0.0136
   25DOPE  H11X 3202   7.661   5.054  14.936 -2.4714  1.9590  0.3780
   25DOPE  H11Y 3203   7.683   4.957  15.085 -0.3101 -0.7628 -0.1302
   25DOPE  C312 3204   7.540   4.875  14.944 -0.1772  0.0407 -0.9183
   25DOPE  H12X 3205   7.474   4.831  15.022 -0.4934  1.9242 -0.0579
   25DOPE  H12Y 3206   7.618   4.797  14.928  0.3887  0.4325 -0.1518
   25DOPE  C313 3207   7.454   4.899  14.817 -0.1639  0.0944 -0.2880
   25DOPE  H13X 3208   7.375   4.966  14.857  0.5527 -0.1993  1.7226
   25DOPE  H13Y 3209   7.516   4.969  14.756 -0.3126  1.5865  1.1947
   25DOPE  C314 3210   7.395   4.770  14.756  1.0800 -0.5452  0.1925
   25DOPE  H14X 3211   7.473   4.693  14.740  0.0107 -1.1198 -3.1254
   25DOPE  H14Y 3212   7.352   4.797  14.657 -0.7256 -0.9044  0.8501
   25DOPE  C315 3213   7.275   4.717  14.835 -0.0711  0.0456  0.1096
   25DOPE  H15X 3214   7.223   4.805  14.879 -1.3509 -0.9353  0.6078
   25DOPE  H15Y 3215   7.319   4.663  14.922  2.0382 -0.5560 -1.2491
   25DOPE  C316 3216   7.179   4.634  14.752  0.3717  0.2797  0.2006
   25DOPE  H16X 3217   7.218   4.599  14.654  2.4448  0.7024  0.8262
   25DOPE  H16Y 3218   7.092   4.698  14.726 -0.3783 -1.4315 -1.8104
   25DOPE  C317 3219   7.131   4.520  14.839 -0.3256  0.2389  1.1947
   25DOPE  H17X 3220   7.048   4.485  14.775 -0.0311  1.6257  0.0169
   25DOPE  H17Y 3221   7.214   4.447  14.830 -1.1327 -0.3891 -2.5509
   25DOPE  C318 3222   7.082   4.551  14.979 -0.4010  0.2286  0.5654
   25DOPE  H18X 3223   7.172   4.565  15.043  1.2527  1.5740 -1.9205
   25DOPE  H18Y 3224   7.022   4.644  14.983  0.0132  0.4781  1.1349
   25DOPE  H18Z 3225   7.032   4.465  15.029 -0.9165  0.0618 -0.2271
   26DOPE     N 3226   0.953   6.114  16.975 -0.3469 -0.1968  0.7464
   26DOPE   HN1 3227   0.954   6.191  17.045  0.0116 -0.1350  0.6785
   26DOPE   HN2 3228   0.915   6.029  17.021  0.6107  0.0051  1.9785
   26DOPE   HN3 3229   1.051   6.083  16.956 -1.2434 -2.4823 -0.3857
   26DOPE   C12 3230   0.907   6.160  16.837  0.5313 -0.1780  0.1754
   26DOPE  H12A 3231   0.966   6.246  16.798 -0.1950 -0.1523 -0.9102
   26DOPE  H12B 3232   0.802   6.195  16.840  0.4604 -0.3099 -0.6409
   26DOPE   C11 3233   0.922   6.046  16.743  0.2951  0.2700  0.3975
   26DOPE  H11A 3234   0.880   6.074  16.644 -2.1116  0.7377  1.4838
   26DOPE  H11B 3235   0.853   5.965  16.775 -1.2366  1.5058  0.3648
   26DOPE     P 3236   1.098   5.889  16.636 -0.1367  0.0531 -0.0611
   26DOPE   O13 3237   1.045   5.761  16.685 -0.3371  0.1091 -0.0264
   26DOPE   O14 3238   1.239   5.890  16.602 -0.0650  0.0069 -0.0228
   26DOPE   O11 3239   1.014   5.934  16.511 -0.0153 -0.3069  0.2119
   26DOPE   O12 3240   1.056   6.005  16.740  0.2298 -0.6292  0.5171
   26DOPE    C1 3241   0.933   5.864  16.420  0.5082  0.2123  0.7317
   26DOPE    HA 3242   0.828   5.891  16.443 -0.2252 -0.4937 -1.6006
   26DOPE    HB 3243   0.943   5.754  16.433  0.3872 -0.0367 -1.1156
   26DOPE    C2 3244   0.972   5.893  16.271  0.6327 -0.8154 -0.4855
   26DOPE    HS 3245   1.009   5.998  16.269  2.3327 -1.3569  0.3625
   26DOPE   O21 3246   0.855   5.866  16.191  0.0188  0.0388  0.7874
   26DOPE   C21 3247   0.785   5.963  16.147 -0.2965 -0.7438  0.1553
   26DOPE   O22 3248   0.798   6.077  16.187 -0.3230 -0.1309  0.3401
   26DOPE   C22 3249   0.687   5.921  16.035 -0.4344 -0.5116  0.0277
   26DOPE   H2R 3250   0.623   6.011  16.022  0.7069  0.4830  0.9656
   26DOPE   H2S 3251   0.615   5.847  16.076 -1.1568  0.4702  0.5891
   26DOPE    C3 3252   1.083   5.796  16.218  0.0222 -0.0265  0.5364
   26DOPE    HX 3253   1.049   5.691  16.212 -0.1922  0.1214 -1.0734
   26DOPE    HY 3254   1.170   5.798  16.288  0.8390  0.7152 -0.4638
   26DOPE   O31 3255   1.127   5.844  16.089  1.0490  0.0947  0.4619
   26DOPE   C31 3256   1.195   5.755  16.019  0.1517 -0.0666  0.1642
   26DOPE   O32 3257   1.233   5.641  16.052  0.2303  0.1600 -0.5888
   26DOPE   C32 3258   1.234   5.809  15.881 -0.2574 -0.3723  0.2602
   26DOPE   H2X 3259   1.196   5.734  15.808  2.7573 -0.2992 -1.5568
   26DOPE   H2Y 3260   1.184   5.906  15.863  1.9153  0.6844 -0.4276
   26DOPE   C23 3261   0.748   5.865  15.900 -0.0279  0.3251 -0.0438
   26DOPE   H3R 3262   0.846   5.916  15.887  2.1117 -2.8694  2.1399
   26DOPE   H3S 3263   0.677   5.896  15.820 -1.0259  0.8435  1.0158
   26DOPE   C24 3264   0.792   5.717  15.913 -0.1980 -1.3860  0.3604
   26DOPE   H4R 3265   0.697   5.661  15.917 -1.1016  0.0309 -0.5212
   26DOPE   H4S 3266   0.845   5.708  16.010  2.2285  1.6284 -0.5216
   26DOPE   C25 3267   0.869   5.664  15.796 -0.0075  0.4622 -0.2120
   26DOPE   H5R 3268   0.951   5.736  15.778  1.5673 -1.0849  0.4547
   26DOPE   H5S 3269   0.799   5.645  15.712 -1.2916 -2.3824  1.3391
   26DOPE   C26 3270   0.942   5.533  15.822  0.1227 -0.1749 -1.0354
   26DOPE   H6R 3271   0.857   5.475  15.865 -1.2681  1.5982 -1.2867
   26DOPE   H6S 3272   1.015   5.537  15.906 -0.3582  3.2657 -0.6213
   26DOPE   C27 3273   1.008   5.462  15.704 -0.1304  0.2537 -0.2953
   26DOPE   H7R 3274   1.080   5.395  15.755  0.3237 -0.9876 -2.4452
   26DOPE   H7S 3275   1.063   5.531  15.637 -0.7800 -0.0794 -1.2060
   26DOPE   C28 3276   0.906   5.391  15.609  0.0600 -0.6245 -0.0228
   26DOPE   H8R 3277   0.888   5.460  15.524 -2.0686 -1.8896 -0.6567
   26DOPE   H8S 3278   0.812   5.373  15.666  0.3420  1.0528  1.0545
   26DOPE   C29 3279   0.963   5.269  15.551 -0.0653 -1.1195 -0.0476
   26DOPE   H9R 3280   1.024   5.222  15.629  0.9371  4.6167  3.1779
   26DOPE  C210 3281   0.938   5.216  15.431  0.3574 -0.4508 -0.0660
   26DOPE  H10R 3282   0.975   5.115  15.411 -2.9526 -2.1444  1.5744
   26DOPE  C211 3283   0.852   5.277  15.319 -0.3761  0.4629 -0.8819
   26DOPE  H11R 3284   0.887   5.382  15.306 -0.2331  0.4823 -0.3691
   26DOPE  H11S 3285   0.741   5.285  15.328 -0.9581 -1.9726 -4.0207
   26DOPE  C212 3286   0.881   5.209  15.188  0.1019 -0.6627  0.8219
   26DOPE  H12R 3287   0.820   5.243  15.101  1.7294 -1.4846 -0.7316
   26DOPE  H12S 3288   0.854   5.101  15.193  1.3585 -1.0417 -0.0420
   26DOPE  C213 3289   1.022   5.224  15.132 -0.1182  0.1825 -0.1872
   26DOPE  H13R 3290   1.100   5.187  15.202 -0.3773  0.8280  0.4589
   26DOPE  H13S 3291   1.043   5.332  15.120  1.0100 -0.3480 -4.3071
   26DOPE  C214 3292   1.034   5.158  14.997  0.0854 -0.0382  1.2018
   26DOPE  H14R 3293   0.961   5.210  14.931  3.0425  0.2886 -2.1867
   26DOPE  H14S 3294   1.002   5.051  15.001 -1.2572  0.2833  0.1322
   26DOPE  C215 3295   1.179   5.162  14.938  0.7339  0.8445  0.0701
   26DOPE  H15R 3296   1.189   5.070  14.877  0.5809 -1.4913  3.2867
   26DOPE  H15S 3297   1.252   5.161  15.022  0.2381  1.9162  0.5259
   26DOPE  C216 3298   1.211   5.281  14.853  0.3726 -0.1946 -0.0728
   26DOPE  H16R 3299   1.213   5.381  14.902  2.7572  0.8482 -2.1254
   26DOPE  H16S 3300   1.126   5.309  14.787 -2.1190  3.3069  4.0020
   26DOPE  C217 3301   1.341   5.259  14.779 -0.1721 -0.0968  0.2098
   26DOPE  H17R 3302   1.325   5.165  14.722 -0.5084  0.9243 -1.4389
   26DOPE  H17S 3303   1.417   5.241  14.858  1.9184  3.3379 -0.8275
   26DOPE  C218 3304   1.391   5.359  14.672 -0.3794  0.4494  0.4850
   26DOPE  H18R 3305   1.418   5.459  14.714  1.6951 -0.6284  1.8632
   26DOPE  H18S 3306   1.320   5.370  14.587  3.2562 -1.7842 -3.2100
   26DOPE  H18T 3307   1.487   5.316  14.638 -0.9063 -0.4275  0.0835
   26DOPE   C33 3308   1.383   5.835  15.867  0.4513 -0.4192 -0.4609
   26DOPE   H3X 3309   1.440   5.749  15.907  1.5501  0.2148 -0.5977
   26DOPE   H3Y 3310   1.416   5.919  15.932  1.4777 -2.2466  1.4878
   26DOPE   C34 3311   1.420   5.865  15.726 -0.6575  0.0099 -0.2507
   26DOPE   H4X 3312   1.369   5.796  15.655 -0.2481 -0.4828 -0.0696
   26DOPE   H4Y 3313   1.408   5.973  15.703  0.9181  0.1525 -0.4831
   26DOPE   C35 3314   1.569   5.837  15.689 -0.1933 -0.2279  1.2536
   26DOPE   H5X 3315   1.610   5.734  15.702 -0.0693 -0.6630 -1.8205
   26DOPE   H5Y 3316   1.632   5.906  15.748 -2.0070  1.5190  1.2658
   26DOPE   C36 3317   1.608   5.864  15.542  0.2543  0.1744  0.6585
   26DOPE   H6X 3318   1.715   5.837  15.542  0.5247  1.0328 -1.5386
   26DOPE   H6Y 3319   1.589   5.968  15.509  1.2967  0.6806  1.5868
   26DOPE   C37 3320   1.543   5.757  15.451 -0.1780 -0.1076  1.2109
   26DOPE   H7X 3321   1.607   5.738  15.362 -1.8965  1.1421 -0.3694
   26DOPE   H7Y 3322   1.532   5.662  15.507  0.0462 -2.9615 -3.0594
   26DOPE   C38 3323   1.413   5.812  15.386  0.0681 -0.1186  0.1460
   26DOPE   H8X 3324   1.436   5.887  15.308 -2.4456 -0.4914 -1.0538
   26DOPE   H8Y 3325   1.354   5.871  15.459 -1.1812 -1.4647  0.2726
   26DOPE   C39 3326   1.328   5.706  15.313 -0.1890 -1.1695 -0.2014
   26DOPE   H9X 3327   1.376   5.644  15.236 -1.4568 -1.4777 -0.7568
   26DOPE  C310 3328   1.201   5.684  15.346 -0.1207 -0.2498 -0.2012
   26DOPE  H10X 3329   1.138   5.612  15.292 -0.8066 -1.5646  2.1943
   26DOPE  C311 3330   1.122   5.752  15.456  0.5406  0.1116  0.7881
   26DOPE  H11X 3331   1.043   5.682  15.490  0.5336  0.2389  1.0379
   26DOPE  H11Y 3332   1.192   5.767  15.541 -0.4170 -1.2053  1.8601
   26DOPE  C312 3333   1.053   5.885  15.422 -0.1855  0.6643 -0.1712
   26DOPE  H12X 3334   0.983   5.881  15.336 -0.4285  0.6306  0.0275
   26DOPE  H12Y 3335   1.123   5.968  15.398 -0.2623  1.0496  0.8758
   26DOPE  C313 3336   0.978   5.931  15.542  0.7843 -0.1490  0.0603
   26DOPE  H13X 3337   0.900   5.858  15.574  0.6992  0.3437  1.0548
   26DOPE  H13Y 3338   1.050   5.929  15.626 -0.6076 -1.3812  1.2934
   26DOPE  C314 3339   0.914   6.069  15.532 -0.1359 -0.1413  0.2305
   26DOPE  H14X 3340   0.858   6.075  15.436  1.7585 -1.8098 -1.0548
   26DOPE  H14Y 3341   1.005   6.133  15.525  1.2219 -2.0214 -0.1563
   26DOPE  C315 3342   0.828   6.109  15.655 -0.2770 -0.1343  0.5977
   26DOPE  H15X 3343   0.892   6.099  15.745  1.3314 -1.3206 -0.6166
   26DOPE  H15Y 3344   0.742   6.038  15.659 -1.2808  0.7820 -2.2295
   26DOPE  C316 3345   0.779   6.254  15.655  0.2010 -0.5108  0.3953
   26DOPE  H16X 3346   0.721   6.268  15.561 -1.5605  0.1311  1.5215
   26DOPE  H16Y 3347   0.852   6.335  15.633 -0.6375 -0.1115 -1.1032
   26DOPE  C317 3348   0.691   6.281  15.778 -0.9656 -0.5055  0.8617
   26DOPE  H17X 3349   0.667   6.390  15.778  1.1469  0.0318 -1.1701
   26DOPE  H17Y 3350   0.593   6.228  15.782 -1.4705 -0.0523 -2.4560
   26DOPE  C318 3351   0.746   6.239  15.914 -0.2298 -0.8825  0.0939
   26DOPE  H18X 3352   0.681   6.242  16.003  0.3180 -1.5192  0.5262
   26DOPE  H18Y 3353   0.787   6.136  15.908  1.5533 -0.1464 -2.2084
   26DOPE  H18Z 3354   0.833   6.304  15.940 -0.0167 -1.3423  0.5494
   27DOPE     N 3355   7.379   5.835  16.473 -0.1141 -0.1865 -0.4878
   27DOPE   HN1 3356   7.366   5.934  16.444  0.9660 -0.2622 -1.2634
   27DOPE   HN2 3357   7.447   5.850  16.550 -1.8609  1.1809  0.8676
   27DOPE   HN3 3358   7.426   5.782  16.396  2.0347  0.6710  0.1710
   27DOPE   C12 3359   7.243   5.776  16.502  0.6831 -0.1756 -0.4329
   27DOPE  H12A 3360   7.239   5.775  16.613  2.0137  1.8551 -0.3132
   27DOPE  H12B 3361   7.243   5.672  16.464  1.8011  0.1817 -1.4757
   27DOPE   C11 3362   7.133   5.861  16.442 -0.0709  0.2930 -0.1891
   27DOPE  H11A 3363   7.031   5.823  16.468 -0.1586  0.8650  0.3464
   27DOPE  H11B 3364   7.155   5.849  16.334  1.0062 -2.0484  0.2249
   27DOPE     P 3365   7.026   6.102  16.472  0.1593  0.5147 -0.1944
   27DOPE   O13 3366   7.079   6.240  16.480  0.3348  0.0048 -0.3597
   27DOPE   O14 3367   6.942   6.065  16.589  0.1319 -0.6701 -0.6550
   27DOPE   O11 3368   6.943   6.098  16.343  0.2761  0.4791  0.6218
   27DOPE   O12 3369   7.140   5.999  16.468 -0.2289 -0.1000  0.3375
   27DOPE    C1 3370   7.016   6.072  16.221  0.1311 -0.3049 -0.6320
   27DOPE    HA 3371   7.004   5.964  16.197  2.7288 -0.1848 -3.1266
   27DOPE    HB 3372   7.125   6.094  16.225 -0.2648  1.6697  1.0693
   27DOPE    C2 3373   6.951   6.145  16.103 -0.2189  0.4870  0.2012
   27DOPE    HS 3374   7.003   6.108  16.013  2.3908 -2.1496  2.5998
   27DOPE   O21 3375   6.965   6.280  16.132  0.1253 -0.3717 -0.5822
   27DOPE   C21 3376   7.066   6.343  16.066  0.1504  0.8169  0.4043
   27DOPE   O22 3377   7.122   6.292  15.969 -0.1606  0.2402 -0.9963
   27DOPE   C22 3378   7.086   6.475  16.130 -1.0721 -0.5169 -0.1726
   27DOPE   H2R 3379   7.192   6.500  16.106 -1.2663  2.3893  1.5134
   27DOPE   H2S 3380   7.081   6.471  16.241 -0.2766 -1.4549 -0.1554
   27DOPE    C3 3381   6.801   6.115  16.078  0.4024 -0.3777 -0.1055
   27DOPE    HX 3382   6.738   6.122  16.169  1.9330  0.4414  0.9525
   27DOPE    HY 3383   6.797   6.006  16.058  2.7773 -0.7351  0.9337
   27DOPE   O31 3384   6.747   6.192  15.959  0.1465  0.1212 -0.4470
   27DOPE   C31 3385   6.701   6.312  15.985  0.7108 -0.2285  0.9412
   27DOPE   O32 3386   6.681   6.362  16.096 -0.1454 -0.5360  0.1790
   27DOPE   C32 3387   6.680   6.391  15.852 -0.1379  0.3899 -0.5067
   27DOPE   H2X 3388   6.780   6.407  15.805  1.2661 -0.3540  2.0448
   27DOPE   H2Y 3389   6.622   6.320  15.791 -0.2721 -2.4253  2.6430
   27DOPE   C23 3390   6.987   6.577  16.072  0.7566 -0.1628 -0.1345
   27DOPE   H3R 3391   7.011   6.667  16.133  0.8314 -0.4443  0.2549
   27DOPE   H3S 3392   6.881   6.548  16.087  1.2800 -2.4099 -0.4902
   27DOPE   C24 3393   7.024   6.624  15.932  0.2158 -0.1193 -0.0575
   27DOPE   H4R 3394   7.007   6.539  15.863  1.8115  0.2540 -0.9670
   27DOPE   H4S 3395   7.133   6.646  15.925  0.2588 -0.6135 -1.0625
   27DOPE   C25 3396   6.953   6.758  15.903 -0.8088  0.2909 -0.4859
   27DOPE   H5R 3397   6.991   6.847  15.959 -1.3391  0.9752 -1.1855
   27DOPE   H5S 3398   6.847   6.751  15.936 -0.7007  0.8005 -0.0079
   27DOPE   C26 3399   6.959   6.802  15.755 -0.1285  0.3106  0.7308
   27DOPE   H6R 3400   7.057   6.782  15.708 -1.4136 -0.9789 -1.5931
   27DOPE   H6S 3401   6.934   6.907  15.730 -0.5100 -0.1728 -1.0696
   27DOPE   C27 3402   6.851   6.730  15.672 -0.0092 -0.1621  0.1229
   27DOPE   H7R 3403   6.751   6.756  15.713  0.1349 -0.3657  0.6027
   27DOPE   H7S 3404   6.863   6.622  15.691  1.1600 -0.3613 -1.4737
   27DOPE   C28 3405   6.851   6.758  15.514 -0.0436 -0.5152 -0.0816
   27DOPE   H8R 3406   6.947   6.726  15.468  1.1090  2.3289  0.0948
   27DOPE   H8S 3407   6.853   6.869  15.508  2.6851 -0.4598  0.5924
   27DOPE   C29 3408   6.729   6.700  15.450 -0.0123 -0.2171  0.1174
   27DOPE   H9R 3409   6.723   6.592  15.465 -2.3161 -0.1153  0.1806
   27DOPE  C210 3410   6.628   6.760  15.388 -0.1251 -0.3248  0.5173
   27DOPE  H10R 3411   6.562   6.688  15.337  0.7762 -1.3715  0.8065
   27DOPE  C211 3412   6.612   6.909  15.365 -0.0036  0.4948 -0.3527
   27DOPE  H11R 3413   6.703   6.966  15.396  0.5448 -0.1020 -0.8293
   27DOPE  H11S 3414   6.520   6.949  15.411 -1.5356  1.2491 -3.7345
   27DOPE  C212 3415   6.584   6.923  15.212  0.1109 -0.4261 -0.0397
   27DOPE  H12R 3416   6.487   6.877  15.187  0.4368 -0.4458 -1.3256
   27DOPE  H12S 3417   6.663   6.873  15.151  0.2072  1.1681 -1.2728
   27DOPE  C213 3418   6.578   7.065  15.161  0.7149  0.2275  0.4126
   27DOPE  H13R 3419   6.523   7.125  15.236 -3.0902 -1.1372 -1.0154
   27DOPE  H13S 3420   6.533   7.067  15.060 -0.5637  2.5395  0.9827
   27DOPE  C214 3421   6.713   7.130  15.147 -0.8218 -0.0695  0.4516
   27DOPE  H14R 3422   6.771   7.092  15.061  0.3640  0.6888  0.8961
   27DOPE  H14S 3423   6.779   7.105  15.233  0.9802 -1.3931 -1.2050
   27DOPE  C215 3424   6.721   7.283  15.117 -0.2438 -1.3527 -0.6324
   27DOPE  H15R 3425   6.648   7.306  15.036 -2.3328 -2.0042  0.9778
   27DOPE  H15S 3426   6.824   7.314  15.089 -0.5629  1.2013  0.6758
   27DOPE  C216 3427   6.692   7.378  15.230 -0.9060 -0.0620 -0.2514
   27DOPE  H16R 3428   6.783   7.385  15.292 -0.5728  2.0659 -0.8776
   27DOPE  H16S 3429   6.601   7.341  15.283  0.1739 -1.1823  0.8981
   27DOPE  C217 3430   6.657   7.515  15.177  0.0696  0.1998  0.4950
   27DOPE  H17R 3431   6.586   7.499  15.093 -0.7571 -0.3781  1.2925
   27DOPE  H17S 3432   6.756   7.560  15.150  0.1482 -0.1753  0.1418
   27DOPE  C218 3433   6.595   7.612  15.277 -0.3651 -0.4222  0.7354
   27DOPE  H18R 3434   6.574   7.713  15.237  1.1365  0.2361  1.5289
   27DOPE  H18S 3435   6.666   7.618  15.362  1.2340  1.3108 -0.6330
   27DOPE  H18T 3436   6.505   7.561  15.317 -1.7222  2.1683  1.1535
   27DOPE   C33 3437   6.590   6.515  15.885  0.2249 -0.3241 -0.1663
   27DOPE   H3X 3438   6.652   6.584  15.945 -0.8478 -0.9909  1.8314
   27DOPE   H3Y 3439   6.503   6.472  15.941 -0.9171 -0.7257 -2.1580
   27DOPE   C34 3440   6.523   6.569  15.762  0.0962  0.0200 -0.2965
   27DOPE   H4X 3441   6.597   6.580  15.681  1.2138  0.2197  0.7175
   27DOPE   H4Y 3442   6.447   6.494  15.731 -0.7165  0.0379  1.5109
   27DOPE   C35 3443   6.440   6.695  15.800 -0.5597  0.4739 -0.1589
   27DOPE   H5X 3444   6.495   6.772  15.858  0.4521 -0.7281  0.5440
   27DOPE   H5Y 3445   6.354   6.657  15.858 -0.1106 -0.0417  0.1782
   27DOPE   C36 3446   6.396   6.753  15.664 -0.4432 -0.4635  0.6194
   27DOPE   H6X 3447   6.354   6.670  15.603  0.4100  0.1032 -0.7942
   27DOPE   H6Y 3448   6.481   6.785  15.600 -0.7071 -2.4688 -0.8304
   27DOPE   C37 3449   6.294   6.865  15.686  0.1065 -0.2067  0.9514
   27DOPE   H7X 3450   6.206   6.823  15.739 -2.2846  1.0187 -1.7652
   27DOPE   H7Y 3451   6.336   6.952  15.742 -0.4873  0.1361  0.8740
   27DOPE   C38 3452   6.240   6.928  15.558 -0.1049  0.1471 -0.4635
   27DOPE   H8X 3453   6.212   6.845  15.488  1.1915 -2.0941  1.5269
   27DOPE   H8Y 3454   6.324   6.982  15.509 -0.1766  0.0608 -0.6848
   27DOPE   C39 3455   6.127   7.026  15.591  0.6315  0.1596  0.1743
   27DOPE   H9X 3456   6.049   6.978  15.651 -1.2031  2.7598  0.0281
   27DOPE  C310 3457   6.118   7.159  15.583  0.5559 -0.2182  0.2124
   27DOPE  H10X 3458   6.025   7.208  15.617  0.2782  2.2197 -3.4583
   27DOPE  C311 3459   6.222   7.247  15.525  0.0900  0.1269 -0.3407
   27DOPE  H11X 3460   6.248   7.324  15.601  0.8161 -1.3308  0.9440
   27DOPE  H11Y 3461   6.315   7.190  15.504  1.0358  0.6181  2.1094
   27DOPE  C312 3462   6.170   7.300  15.389 -0.2820 -0.5601 -0.0142
   27DOPE  H12X 3463   6.078   7.360  15.410 -1.6306 -1.9881 -1.4872
   27DOPE  H12Y 3464   6.142   7.216  15.322 -0.3281  1.8752 -3.3110
   27DOPE  C313 3465   6.275   7.387  15.325 -0.2417 -0.5034 -0.0603
   27DOPE  H13X 3466   6.309   7.446  15.413 -0.1480 -0.0439 -0.3992
   27DOPE  H13Y 3467   6.364   7.340  15.279 -0.9267 -1.2982 -0.5955
   27DOPE  C314 3468   6.219   7.479  15.219  0.7230 -0.0417  0.4505
   27DOPE  H14X 3469   6.293   7.561  15.206  0.2479  0.9338  3.1098
   27DOPE  H14Y 3470   6.126   7.524  15.260  0.1445  1.0464 -1.9304
   27DOPE  C315 3471   6.192   7.409  15.088  0.5337  0.4911  0.9344
   27DOPE  H15X 3472   6.102   7.346  15.107  0.8413 -0.6795 -1.1558
   27DOPE  H15Y 3473   6.275   7.339  15.064 -0.6919 -0.6505 -0.1631
   27DOPE  C316 3474   6.167   7.504  14.963  0.4733 -0.1915  0.0913
   27DOPE  H16X 3475   6.149   7.451  14.867  1.0928  1.5093 -1.0215
   27DOPE  H16Y 3476   6.261   7.562  14.950  1.2186 -1.2899  0.4266
   27DOPE  C317 3477   6.052   7.606  14.979  0.4488 -0.0318  0.3429
   27DOPE  H17X 3478   5.961   7.560  15.023 -1.7006  1.2620 -2.3857
   27DOPE  H17Y 3479   6.081   7.680  15.057 -1.4596  0.0624  1.0133
   27DOPE  C318 3480   6.019   7.679  14.846 -0.1874 -0.2002  0.0001
   27DOPE  H18X 3481   6.115   7.709  14.798  0.1480 -0.7504  0.3177
   27DOPE  H18Y 3482   5.955   7.610  14.788  2.3240 -1.4708 -1.4310
   27DOPE  H18Z 3483   5.976   7.779  14.868  1.9775  0.4565  1.5991
   28DOPE     N 3484   0.507   5.324  16.588  0.4270  0.4843 -0.1520
   28DOPE   HN1 3485   0.420   5.299  16.538  0.0725  0.7805  0.3074
   28DOPE   HN2 3486   0.585   5.310  16.520  1.6831  1.1257  1.1057
   28DOPE   HN3 3487   0.518   5.250  16.659  2.4066  0.1804 -0.7063
   28DOPE   C12 3488   0.502   5.464  16.651  0.4430  0.5053  0.3728
   28DOPE  H12A 3489   0.484   5.539  16.571  0.7739 -0.8218 -0.9673
   28DOPE  H12B 3490   0.607   5.478  16.685  0.8525  0.3212 -0.7917
   28DOPE   C11 3491   0.402   5.479  16.764  0.6078 -0.6152 -0.5597
   28DOPE  H11A 3492   0.405   5.587  16.788  1.1578 -0.7221 -0.1049
   28DOPE  H11B 3493   0.434   5.424  16.855 -0.3920  1.1806  0.9164
   28DOPE     P 3494   0.158   5.540  16.683 -0.1959 -0.3594 -0.2837
   28DOPE   O13 3495   0.101   5.594  16.812  0.3788 -0.7040 -0.0662
   28DOPE   O14 3496   0.066   5.484  16.584 -0.3790  0.0239  0.0720
   28DOPE   O11 3497   0.251   5.660  16.610 -0.2568  0.2497 -0.2110
   28DOPE   O12 3498   0.267   5.433  16.717 -0.3213 -0.3139 -0.1212
   28DOPE    C1 3499   0.185   5.767  16.546  0.1427 -0.0283  0.4394
   28DOPE    HA 3500   0.250   5.857  16.541 -0.2829  0.2527 -0.2782
   28DOPE    HB 3501   0.086   5.802  16.582  0.0934  2.0654 -1.5117
   28DOPE    C2 3502   0.157   5.745  16.392  0.0285 -0.2404 -0.2557
   28DOPE    HS 3503   0.092   5.655  16.394 -0.8741  0.3856 -0.5087
   28DOPE   O21 3504   0.285   5.732  16.330 -0.2987  0.4285  0.6572
   28DOPE   C21 3505   0.270   5.632  16.241 -0.1050  0.6597  0.5930
   28DOPE   O22 3506   0.173   5.571  16.216 -0.0096 -0.2233 -0.1877
   28DOPE   C22 3507   0.404   5.601  16.170 -0.0741  0.1496 -0.1791
   28DOPE   H2R 3508   0.474   5.572  16.252 -0.1784 -0.5510 -0.3297
   28DOPE   H2S 3509   0.435   5.689  16.110 -0.0598  0.1272 -0.2045
   28DOPE    C3 3510   0.094   5.873  16.345 -0.7241 -0.3964  0.2525
   28DOPE    HX 3511   0.167   5.956  16.353 -0.7631 -0.2076 -1.1244
   28DOPE    HY 3512   0.005   5.905  16.403  0.4053  1.3176  1.1283
   28DOPE   O31 3513   0.070   5.863  16.200 -0.1114 -0.4297  0.2042
   28DOPE   C31 3514  -0.048   5.804  16.165 -0.6580 -0.6935  0.2880
   28DOPE   O32 3515  -0.134   5.770  16.244  0.1518 -0.1433  0.3157
   28DOPE   C32 3516  -0.047   5.787  16.015  0.7905  0.1267  0.1377
   28DOPE   H2X 3517  -0.085   5.883  15.973  1.1244  2.6861  5.0008
   28DOPE   H2Y 3518   0.053   5.774  15.970  0.3126  0.5095 -1.0815
   28DOPE   C23 3519   0.394   5.474  16.072  0.7022  0.4181 -0.4930
   28DOPE   H3R 3520   0.324   5.404  16.120  0.6254  0.7550 -0.1093
   28DOPE   H3S 3521   0.489   5.420  16.052 -0.0072 -0.8642 -0.4903
   28DOPE   C24 3522   0.337   5.513  15.933  0.5109 -0.6214  0.4659
   28DOPE   H4R 3523   0.245   5.572  15.953 -0.0685 -0.3266 -2.6146
   28DOPE   H4S 3524   0.298   5.422  15.883 -0.7422 -0.6012  1.3643
   28DOPE   C25 3525   0.433   5.600  15.854 -0.4067 -0.1384  1.0546
   28DOPE   H5R 3526   0.528   5.544  15.841 -1.9143 -2.4586 -0.6349
   28DOPE   H5S 3527   0.448   5.698  15.904  0.4596  0.3808 -0.1753
   28DOPE   C26 3528   0.375   5.633  15.711 -0.8576 -0.1052  0.3764
   28DOPE   H6R 3529   0.279   5.688  15.719 -1.0240  0.1452 -2.3539
   28DOPE   H6S 3530   0.359   5.542  15.650 -0.5061  0.8063 -1.1193
   28DOPE   C27 3531   0.478   5.711  15.622 -0.0526  0.0280 -0.2911
   28DOPE   H7R 3532   0.578   5.663  15.633 -0.5276 -0.3733  3.8005
   28DOPE   H7S 3533   0.492   5.819  15.647 -0.6035  0.4981 -1.8870
   28DOPE   C28 3534   0.433   5.718  15.479  0.5041  0.1419 -0.3709
   28DOPE   H8R 3535   0.408   5.613  15.453  0.6486  0.3518 -1.4237
   28DOPE   H8S 3536   0.513   5.765  15.417  0.2912  0.5182 -0.3649
   28DOPE   C29 3537   0.307   5.801  15.463  0.0898 -0.0767 -0.7072
   28DOPE   H9R 3538   0.338   5.905  15.442  0.9821 -0.0331  0.7079
   28DOPE  C210 3539   0.181   5.761  15.447 -0.3010 -0.5488  0.2777
   28DOPE  H10R 3540   0.102   5.833  15.423  0.3899  0.1673  0.1341
   28DOPE  C211 3541   0.131   5.618  15.459 -0.6353  0.1982  0.2791
   28DOPE  H11R 3542   0.021   5.614  15.469 -0.8430 -0.2115 -1.7191
   28DOPE  H11S 3543   0.178   5.581  15.552  1.3226  1.7759 -0.0049
   28DOPE  C212 3544   0.172   5.535  15.342 -0.6496  0.9060 -0.1598
   28DOPE  H12R 3545   0.157   5.432  15.380 -1.0242  1.1902  0.4823
   28DOPE  H12S 3546   0.282   5.532  15.326 -0.5146  0.2287  0.8060
   28DOPE  C213 3547   0.087   5.555  15.219 -0.2213 -0.6387 -0.2428
   28DOPE  H13R 3548   0.107   5.659  15.185  0.9098 -0.2085  1.5589
   28DOPE  H13S 3549  -0.022   5.556  15.238 -0.2832  0.9353 -0.5440
   28DOPE  C214 3550   0.104   5.455  15.098 -0.2431 -0.6467 -0.4122
   28DOPE  H14R 3551   0.073   5.357  15.139  0.0132 -1.2600 -1.6495
   28DOPE  H14S 3552   0.212   5.453  15.071 -0.7238  2.4323 -3.2587
   28DOPE  C215 3553   0.021   5.484  14.976  1.0082  0.5414  0.2094
   28DOPE  H15R 3554   0.068   5.563  14.913  2.9052 -0.7071 -0.0312
   28DOPE  H15S 3555  -0.080   5.505  15.017  0.0614 -0.1534 -1.6891
   28DOPE  C216 3556   0.023   5.350  14.886  0.7032 -0.6448  0.7835
   28DOPE  H16R 3557  -0.027   5.264  14.936 -1.1957  0.1215  0.3006
   28DOPE  H16S 3558   0.128   5.332  14.856  0.5768  3.4570 -3.2953
   28DOPE  C217 3559  -0.034   5.371  14.745  0.2672  0.0898  0.4326
   28DOPE  H17R 3560   0.019   5.448  14.685 -1.7989 -0.9942 -3.0844
   28DOPE  H17S 3561  -0.140   5.402  14.743  0.7504  1.8449 -1.4372
   28DOPE  C218 3562  -0.027   5.238  14.668 -0.3469  0.6852  0.4909
   28DOPE  H18R 3563  -0.084   5.157  14.718  0.8871 -1.4898 -1.4141
   28DOPE  H18S 3564   0.078   5.203  14.668 -0.3252  0.7275  1.5588
   28DOPE  H18T 3565  -0.057   5.265  14.564 -1.8171 -0.0966  0.6830
   28DOPE   C33 3566  -0.126   5.666  15.961 -0.3738 -0.4320  0.1659
   28DOPE   H3X 3567  -0.227   5.672  16.007 -0.8924 -1.0720 -0.8435
   28DOPE   H3Y 3568  -0.083   5.565  15.981  0.2167 -0.5191 -1.4099
   28DOPE   C34 3569  -0.139   5.679  15.808  1.1224 -0.2504  0.3112
   28DOPE   H4X 3570  -0.196   5.774  15.797  1.0271 -0.3513 -0.1072
   28DOPE   H4Y 3571  -0.039   5.682  15.760  0.1371  0.5194 -1.8249
   28DOPE   C35 3572  -0.211   5.571  15.736  0.2074  0.4179 -0.5380
   28DOPE   H5X 3573  -0.203   5.477  15.794 -0.0892  0.6282 -0.1561
   28DOPE   H5Y 3574  -0.177   5.563  15.630 -0.0543  1.0181 -0.6762
   28DOPE   C36 3575  -0.363   5.590  15.733  0.1005 -0.0471 -0.0644
   28DOPE   H6X 3576  -0.388   5.694  15.705 -0.9003 -0.2812 -0.0811
   28DOPE   H6Y 3577  -0.402   5.579  15.836  0.0122  0.0956 -0.0840
   28DOPE   C37 3578  -0.429   5.481  15.638  0.0315  0.2760 -0.0695
   28DOPE   H7X 3579  -0.534   5.517  15.642  0.5965  2.2093 -1.3323
   28DOPE   H7Y 3580  -0.398   5.493  15.532 -0.7243  1.4195 -0.1753
   28DOPE   C38 3581  -0.427   5.334  15.679  0.1369 -0.1456 -0.1147
   28DOPE   H8X 3582  -0.442   5.326  15.789 -1.0417  2.5723 -0.0027
   28DOPE   H8Y 3583  -0.322   5.305  15.654 -0.4201 -0.3999 -2.3526
   28DOPE   C39 3584  -0.511   5.245  15.606 -0.2250 -0.1833 -1.0357
   28DOPE   H9X 3585  -0.491   5.225  15.499  1.9387 -2.1652 -0.3414
   28DOPE  C310 3586  -0.625   5.187  15.653  0.2223 -0.1127 -0.0922
   28DOPE  H10X 3587  -0.672   5.117  15.582  1.6106 -1.2630  0.0590
   28DOPE  C311 3588  -0.694   5.208  15.790  0.0532 -0.0155  0.2831
   28DOPE  H11X 3589  -0.685   5.112  15.845 -0.1408 -0.1587  0.0641
   28DOPE  H11Y 3590  -0.646   5.288  15.852 -1.2230  0.4451  0.7180
   28DOPE  C312 3591  -0.836   5.231  15.761  0.2326  0.3469 -0.1696
   28DOPE  H12X 3592  -0.890   5.247  15.857 -0.3734 -1.5281 -0.1695
   28DOPE  H12Y 3593  -0.889   5.145  15.714 -0.7745  1.4708 -1.1625
   28DOPE  C313 3594  -0.869   5.359  15.679  0.0497 -0.5083  0.4271
   28DOPE  H13X 3595  -0.826   5.442  15.738  3.1459 -0.9041 -1.0585
   28DOPE  H13Y 3596  -0.835   5.371  15.574  0.2968 -1.8401  0.3307
   28DOPE  C314 3597  -1.021   5.375  15.664 -0.3815 -0.1517 -0.3072
   28DOPE  H14X 3598  -1.075   5.357  15.759  2.4235 -1.4757  1.1322
   28DOPE  H14Y 3599  -1.060   5.312  15.581 -0.1506 -0.1268 -0.4347
   28DOPE  C315 3600  -1.055   5.516  15.604 -0.2468 -0.1124  0.6645
   28DOPE  H15X 3601  -0.987   5.594  15.645  0.1366  0.6304 -1.2752
   28DOPE  H15Y 3602  -1.159   5.545  15.633  0.2301  1.7321  0.6842
   28DOPE  C316 3603  -1.059   5.528  15.452 -0.3083  0.6238  0.0689
   28DOPE  H16X 3604  -1.128   5.454  15.407 -1.3399  1.2854  0.5223
   28DOPE  H16Y 3605  -0.961   5.507  15.404 -0.2719  1.0566 -0.0522
   28DOPE  C317 3606  -1.101   5.666  15.403 -0.6281 -0.2211 -0.7804
   28DOPE  H17X 3607  -1.201   5.686  15.448  0.1396  0.5168  0.6803
   28DOPE  H17Y 3608  -1.036   5.734  15.463 -0.8290 -1.8072  1.3437
   28DOPE  C318 3609  -1.104   5.698  15.256  0.3114 -0.5814  0.0226
   28DOPE  H18X 3610  -1.013   5.668  15.200  2.1601  0.3170  2.3552
   28DOPE  H18Y 3611  -1.198   5.649  15.221  0.0266 -0.3937  0.5131
   28DOPE  H18Z 3612  -1.112   5.807  15.235  4.2959 -0.6141 -2.7812
   29DOPE     N 3613   0.022   0.052  16.825  0.4820  0.5456  0.4489
   29DOPE   HN1 3614   0.117   0.078  16.792  0.5444  0.9557  0.9550
   29DOPE   HN2 3615  -0.038   0.084  16.747 -0.5589 -1.5158  0.3513
   29DOPE   HN3 3616   0.004   0.109  16.910  0.3770  1.9329 -0.4769
   29DOPE   C12 3617   0.004  -0.094  16.851 -0.0947  0.2430  0.1341
   29DOPE  H12A 3618   0.086  -0.123  16.921  0.4908  1.9926  0.2166
   29DOPE  H12B 3619   0.021  -0.147  16.755 -3.2280 -2.3873  0.8622
   29DOPE   C11 3620  -0.139  -0.116  16.918 -0.0803 -0.0966 -0.0719
   29DOPE  H11A 3621  -0.216  -0.057  16.864  0.7237 -0.1799 -1.3500
   29DOPE  H11B 3622  -0.137  -0.067  17.017 -1.0902 -1.6909  0.7770
   29DOPE     P 3623  -0.308  -0.298  16.856  0.0092  0.2103 -0.3007
   29DOPE   O13 3624  -0.399  -0.184  16.828  0.7276 -0.2504  0.3500
   29DOPE   O14 3625  -0.360  -0.411  16.939  0.5081 -0.1175 -0.5819
   29DOPE   O11 3626  -0.251  -0.351  16.722  0.1439 -0.6980 -0.7279
   29DOPE   O12 3627  -0.164  -0.255  16.920  0.2514 -0.2042 -0.2132
   29DOPE    C1 3628  -0.131  -0.431  16.717 -0.6113 -0.3096 -0.0684
   29DOPE    HA 3629  -0.123  -0.491  16.809  1.9486  0.7602  0.4926
   29DOPE    HB 3630  -0.037  -0.372  16.721  0.1026 -1.4921  1.6022
   29DOPE    C2 3631  -0.141  -0.531  16.593 -1.1728 -0.4874  0.3512
   29DOPE    HS 3632  -0.049  -0.593  16.592 -1.9865 -1.7365  0.3173
   29DOPE   O21 3633  -0.157  -0.456  16.470 -0.1142 -0.8683  0.5362
   29DOPE   C21 3634  -0.046  -0.401  16.418 -0.3076  0.2351 -0.2863
   29DOPE   O22 3635   0.065  -0.414  16.461 -0.4423 -0.1036 -0.1305
   29DOPE   C22 3636  -0.078  -0.352  16.274 -0.1781 -0.4817 -0.6466
   29DOPE   H2R 3637  -0.093  -0.242  16.274  1.5290 -0.2114 -1.1357
   29DOPE   H2S 3638  -0.178  -0.398  16.257 -0.3150 -0.7535  0.7864
   29DOPE    C3 3639  -0.254  -0.632  16.628  0.2960 -0.2667 -0.2567
   29DOPE    HX 3640  -0.349  -0.578  16.645  1.1087  0.7892  1.1484
   29DOPE    HY 3641  -0.227  -0.677  16.726 -1.5749  1.8579  1.3302
   29DOPE   O31 3642  -0.276  -0.724  16.519  0.4385  0.1092  0.1232
   29DOPE   C31 3643  -0.166  -0.797  16.480  0.0418 -0.0726 -0.5367
   29DOPE   O32 3644  -0.059  -0.802  16.541  0.1404 -0.2749  0.3897
   29DOPE   C32 3645  -0.195  -0.862  16.349  0.5705  0.5612 -0.5245
   29DOPE   H2X 3646  -0.149  -0.962  16.330 -1.0031  0.1345 -2.4909
   29DOPE   H2Y 3647  -0.303  -0.887  16.345  1.1185 -2.2434 -0.1997
   29DOPE   C23 3648   0.025  -0.392  16.163 -0.2862 -0.1990  0.1657
   29DOPE   H3R 3649   0.018  -0.502  16.148  2.8104 -0.7369  1.7617
   29DOPE   H3S 3650   0.125  -0.376  16.209 -0.2256  0.0489 -0.0531
   29DOPE   C24 3651   0.017  -0.321  16.023 -0.1623  0.7127  0.1561
   29DOPE   H4R 3652   0.047  -0.215  16.036 -0.4247  1.0037 -1.3594
   29DOPE   H4S 3653  -0.092  -0.337  16.006 -0.1178 -0.8274  1.1095
   29DOPE   C25 3654   0.101  -0.379  15.910  0.0355  0.1074 -0.1140
   29DOPE   H5R 3655   0.075  -0.336  15.810 -0.1585  2.2143  0.8027
   29DOPE   H5S 3656   0.071  -0.486  15.900 -1.1507  0.2669  1.3950
   29DOPE   C26 3657   0.259  -0.355  15.924  0.8202  0.4970 -0.2400
   29DOPE   H6R 3658   0.292  -0.407  16.017 -0.6147 -0.6307 -0.3355
   29DOPE   H6S 3659   0.263  -0.245  15.943  0.8306  0.8675 -2.1928
   29DOPE   C27 3660   0.335  -0.376  15.796  0.3399 -0.4838  0.8197
   29DOPE   H7R 3661   0.294  -0.318  15.711  0.5341 -1.2504  0.1876
   29DOPE   H7S 3662   0.309  -0.479  15.764  3.2990 -1.1293  0.2413
   29DOPE   C28 3663   0.487  -0.361  15.812  0.1509  0.5741  0.3422
   29DOPE   H8R 3664   0.523  -0.431  15.891  1.1673  0.4412 -0.2296
   29DOPE   H8S 3665   0.511  -0.255  15.835  3.0537  0.0238  0.1427
   29DOPE   C29 3666   0.547  -0.406  15.679  0.1332  0.1689 -0.0566
   29DOPE   H9R 3667   0.524  -0.510  15.649  0.1386 -0.3176  1.5258
   29DOPE  C210 3668   0.629  -0.335  15.602  1.0651  0.1460  0.1031
   29DOPE  H10R 3669   0.646  -0.364  15.498  1.5521  1.2090 -0.1283
   29DOPE  C211 3670   0.648  -0.182  15.627  0.1912 -0.0859 -0.6023
   29DOPE  H11R 3671   0.630  -0.152  15.732 -0.3076  1.8495 -1.1880
   29DOPE  H11S 3672   0.585  -0.113  15.566  0.3657  1.0720  0.4953
   29DOPE  C212 3673   0.786  -0.136  15.581 -0.4869  0.2954 -0.7333
   29DOPE  H12R 3674   0.832  -0.182  15.491 -1.0079  1.4329 -1.5999
   29DOPE  H12S 3675   0.857  -0.148  15.666 -0.3057  0.5731 -0.8434
   29DOPE  C213 3676   0.768   0.018  15.550 -0.3645  0.5121  0.0608
   29DOPE  H13R 3677   0.700   0.054  15.629 -0.9389 -1.6183  0.6222
   29DOPE  H13S 3678   0.707   0.019  15.457 -0.3045 -1.3115 -0.0440
   29DOPE  C214 3679   0.898   0.084  15.551  0.0787 -0.3935  0.1399
   29DOPE  H14R 3680   0.970   0.029  15.487  2.3655 -1.4642  3.3733
   29DOPE  H14S 3681   0.950   0.069  15.649  0.1803 -1.2414 -0.0335
   29DOPE  C215 3682   0.906   0.234  15.525  0.4183  0.3308 -0.0167
   29DOPE  H15R 3683   1.007   0.280  15.534 -0.1559  1.6323 -0.0326
   29DOPE  H15S 3684   0.831   0.285  15.589  0.9440  0.0676  0.8270
   29DOPE  C216 3685   0.863   0.268  15.375 -0.1416 -0.0105 -0.8212
   29DOPE  H16R 3686   0.873   0.379  15.369  0.3736  0.1973  2.4831
   29DOPE  H16S 3687   0.762   0.226  15.352 -0.5349  0.1093  0.6093
   29DOPE  C217 3688   0.954   0.201  15.268  0.1828 -0.9603  0.4192
   29DOPE  H17R 3689   0.923   0.094  15.269  0.2340 -0.9972 -0.7902
   29DOPE  H17S 3690   1.057   0.210  15.309  0.3550  4.5894 -0.4266
   29DOPE  C218 3691   0.959   0.265  15.128  0.2284  0.1905  0.1974
   29DOPE  H18R 3692   0.992   0.371  15.132  1.1755 -0.0663 -0.5882
   29DOPE  H18S 3693   0.858   0.265  15.081  1.1631  3.1842 -2.1286
   29DOPE  H18T 3694   1.029   0.206  15.066  1.7826  1.3460  0.7910
   29DOPE   C33 3695  -0.159  -0.769  16.235 -0.0043 -0.2603 -0.0679
   29DOPE   H3X 3696  -0.052  -0.743  16.249 -0.0801 -0.4528  0.9495
   29DOPE   H3Y 3697  -0.231  -0.685  16.245 -1.0029 -1.2536  1.6344
   29DOPE   C34 3698  -0.192  -0.815  16.093 -0.5889  0.3532 -0.7986
   29DOPE   H4X 3699  -0.136  -0.911  16.081 -0.3822 -0.1836  3.1120
   29DOPE   H4Y 3700  -0.299  -0.844  16.088 -0.1341 -1.4709 -0.7742
   29DOPE   C35 3701  -0.153  -0.708  15.988 -0.5196  0.1225 -0.2117
   29DOPE   H5X 3702  -0.046  -0.679  16.001 -0.8801  1.2710  0.3790
   29DOPE   H5Y 3703  -0.216  -0.618  16.005 -0.5662 -0.1527  1.2122
   29DOPE   C36 3704  -0.172  -0.765  15.850 -0.0992  0.0412 -0.3143
   29DOPE   H6X 3705  -0.279  -0.793  15.838 -0.1238  0.3466 -0.8253
   29DOPE   H6Y 3706  -0.108  -0.855  15.837 -0.3744 -0.0203 -1.2921
   29DOPE   C37 3707  -0.152  -0.657  15.745  0.0407  0.8413 -0.0894
   29DOPE   H7X 3708  -0.222  -0.576  15.773  0.0199  0.3398  1.4097
   29DOPE   H7Y 3709  -0.050  -0.611  15.749  1.8621 -2.8694  0.3457
   29DOPE   C38 3710  -0.171  -0.700  15.598 -0.2009  0.0816 -0.4553
   29DOPE   H8X 3711  -0.145  -0.616  15.530  0.7653 -1.5864 -2.2674
   29DOPE   H8Y 3712  -0.276  -0.728  15.574  0.0324 -1.1052 -0.1649
   29DOPE   C39 3713  -0.082  -0.820  15.559 -0.0983  0.2367  0.0318
   29DOPE   H9X 3714  -0.099  -0.918  15.606 -0.6927 -1.3802 -3.2624
   29DOPE  C310 3715  -0.009  -0.828  15.442 -0.4099 -0.1302 -0.0984
   29DOPE  H10X 3716   0.045  -0.921  15.421 -2.9923 -2.0626  1.2707
   29DOPE  C311 3717  -0.007  -0.719  15.338  0.0872 -0.0740 -0.0180
   29DOPE  H11X 3718   0.049  -0.634  15.383 -0.2775  0.0105  0.2852
   29DOPE  H11Y 3719   0.058  -0.751  15.254  0.4667  0.3058  0.1318
   29DOPE  C312 3720  -0.140  -0.684  15.271  0.3472 -0.4831 -0.4917
   29DOPE  H12X 3721  -0.213  -0.635  15.339  2.2448 -1.6031  2.5243
   29DOPE  H12Y 3722  -0.190  -0.781  15.247  0.3359 -0.5714 -0.1154
   29DOPE  C313 3723  -0.128  -0.589  15.157  0.0128  0.9335  0.5898
   29DOPE  H13X 3724  -0.064  -0.640  15.081  0.8831  1.9103  0.6447
   29DOPE  H13Y 3725  -0.229  -0.561  15.118 -0.4330  0.3427  1.3081
   29DOPE  C314 3726  -0.047  -0.459  15.182 -0.0090  0.9985 -0.8020
   29DOPE  H14X 3727   0.053  -0.481  15.226  0.0984  1.3887 -0.8501
   29DOPE  H14Y 3728  -0.111  -0.393  15.243 -0.7904 -1.4826  1.2639
   29DOPE  C315 3729  -0.021  -0.398  15.041  0.1938 -0.0436 -0.3663
   29DOPE  H15X 3730  -0.123  -0.374  15.005  0.4670  0.2355 -0.9767
   29DOPE  H15Y 3731   0.024  -0.476  14.975 -3.1886 -2.0256 -0.5976
   29DOPE  C316 3732   0.079  -0.280  15.045 -0.7139 -0.1576  0.2115
   29DOPE  H16X 3733   0.081  -0.247  14.939  1.0903 -1.0243 -0.0626
   29DOPE  H16Y 3734   0.184  -0.307  15.067  0.7654  2.9563 -2.2989
   29DOPE  C317 3735   0.028  -0.165  15.130  0.2932  0.7341 -0.2903
   29DOPE  H17X 3736  -0.072  -0.142  15.087  0.0024 -1.1390 -0.6771
   29DOPE  H17Y 3737   0.001  -0.197  15.232  1.9624  0.8430  0.2253
   29DOPE  C318 3738   0.135  -0.053  15.145 -0.4250 -0.4851  0.4581
   29DOPE  H18X 3739   0.098   0.048  15.173  2.7735  0.3613  2.0459
   29DOPE  H18Y 3740   0.217  -0.068  15.218  0.7452  1.3841 -0.4142
   29DOPE  H18Z 3741   0.176  -0.044  15.042  0.3425 -1.2010  0.6864
   30DOPE     N 3742   0.652   6.524  17.059 -0.3079 -0.1628 -0.1474
   30DOPE   HN1 3743   0.655   6.431  17.104  2.6326  0.4483  1.1316
   30DOPE   HN2 3744   0.724   6.584  17.105 -1.8758  1.6468  0.0934
   30DOPE   HN3 3745   0.563   6.568  17.091  0.7530 -0.1992  3.1912
   30DOPE   C12 3746   0.687   6.533  16.914 -0.0521 -0.6762  0.0176
   30DOPE  H12A 3747   0.598   6.537  16.847 -0.0205  1.0042  0.0368
   30DOPE  H12B 3748   0.749   6.444  16.891  0.7734  0.5807 -2.9792
   30DOPE   C11 3749   0.782   6.657  16.889 -0.2872  0.1609 -0.8086
   30DOPE  H11A 3750   0.719   6.747  16.875  0.2290  0.6989  0.1488
   30DOPE  H11B 3751   0.836   6.634  16.795  1.9368 -1.7164  0.8135
   30DOPE     P 3752   1.023   6.677  16.993  0.0363 -0.1013  0.0472
   30DOPE   O13 3753   1.075   6.539  16.997 -0.2587  0.6024  0.0543
   30DOPE   O14 3754   1.081   6.775  17.088  0.0755  0.5407 -0.3737
   30DOPE   O11 3755   1.031   6.742  16.842  0.1764  0.3862 -0.3461
   30DOPE   O12 3756   0.872   6.660  17.004 -0.6364  0.5047  0.3418
   30DOPE    C1 3757   1.157   6.740  16.778 -0.1857  0.4246  0.2219
   30DOPE    HA 3758   1.239   6.691  16.836 -2.1905 -0.4581  2.4856
   30DOPE    HB 3759   1.182   6.842  16.743  0.5490 -0.0825 -0.7853
   30DOPE    C2 3760   1.145   6.644  16.655  0.6366 -0.0675  0.3769
   30DOPE    HS 3761   1.219   6.678  16.580 -0.0833  2.6755  0.8216
   30DOPE   O21 3762   1.011   6.641  16.598  0.1918  0.3658  0.4358
   30DOPE   C21 3763   0.970   6.756  16.543  0.0052 -0.2042 -0.1785
   30DOPE   O22 3764   1.044   6.848  16.516 -0.7625 -0.0358  0.0723
   30DOPE   C22 3765   0.817   6.769  16.525  0.9605 -0.3023 -0.2082
   30DOPE   H2R 3766   0.791   6.874  16.550  1.1208  0.2028 -2.0233
   30DOPE   H2S 3767   0.774   6.699  16.599 -1.1816  1.8095  0.6654
   30DOPE    C3 3768   1.171   6.495  16.690 -0.5829 -0.8156  0.3457
   30DOPE    HX 3769   1.109   6.478  16.780  0.2274 -0.1997  1.0346
   30DOPE    HY 3770   1.275   6.476  16.725 -0.2591 -0.2735 -0.3035
   30DOPE   O31 3771   1.132   6.413  16.586 -0.8994 -0.3138  0.2076
   30DOPE   C31 3772   1.228   6.383  16.495 -0.5511 -1.3191 -0.0188
   30DOPE   O32 3773   1.340   6.428  16.502 -0.3522  0.1789  0.2299
   30DOPE   C32 3774   1.172   6.276  16.398 -0.2235 -0.5634  0.0699
   30DOPE   H2X 3775   1.140   6.199  16.471 -3.5953  2.2940  1.9183
   30DOPE   H2Y 3776   1.084   6.328  16.355  1.3043  2.1661  0.0301
   30DOPE   C23 3777   0.778   6.742  16.378  0.4936 -0.0519  0.6361
   30DOPE   H3R 3778   0.838   6.791  16.299 -2.7283  1.2765 -1.1748
   30DOPE   H3S 3779   0.682   6.792  16.352  1.1549 -0.1212 -2.2658
   30DOPE   C24 3780   0.760   6.600  16.363  0.1956  0.0971 -0.6435
   30DOPE   H4R 3781   0.684   6.566  16.436 -0.1887 -0.5048 -1.3122
   30DOPE   H4S 3782   0.854   6.552  16.397  0.3631 -0.0520 -1.2994
   30DOPE   C25 3783   0.711   6.557  16.225  0.1971  0.1737 -0.9741
   30DOPE   H5R 3784   0.610   6.599  16.211 -0.0961 -0.7069 -1.6238
   30DOPE   H5S 3785   0.705   6.446  16.216 -0.1317  0.1207 -0.1429
   30DOPE   C26 3786   0.796   6.598  16.107 -0.2811 -0.4720  0.3017
   30DOPE   H6R 3787   0.818   6.706  16.114 -0.0920 -0.5209  0.4820
   30DOPE   H6S 3788   0.745   6.571  16.012  1.1985 -1.8320 -0.1662
   30DOPE   C27 3789   0.935   6.522  16.102  0.2915 -0.3114 -0.4999
   30DOPE   H7R 3790   0.911   6.416  16.128 -0.7806  0.1545  0.4869
   30DOPE   H7S 3791   0.986   6.559  16.193 -0.9450  0.8568 -0.2583
   30DOPE   C28 3792   1.001   6.538  15.966 -0.2453 -0.6238 -0.5178
   30DOPE   H8R 3793   0.973   6.632  15.914  1.6507  1.1656  1.4533
   30DOPE   H8S 3794   0.971   6.453  15.901 -1.2705 -0.9344  0.3222
   30DOPE   C29 3795   1.152   6.553  15.972  0.2256 -0.7324  0.7574
   30DOPE   H9R 3796   1.192   6.651  16.000  1.5837 -0.9023 -0.4679
   30DOPE  C210 3797   1.245   6.450  15.959  0.1668 -0.0270 -0.7472
   30DOPE  H10R 3798   1.348   6.479  15.987  0.9831 -1.5365 -2.0401
   30DOPE  C211 3799   1.222   6.312  15.918 -0.5142  0.5766 -0.3303
   30DOPE  H11R 3800   1.152   6.262  15.989  1.3246 -2.7184 -0.6280
   30DOPE  H11S 3801   1.317   6.256  15.934  0.3885  1.8782 -1.0047
   30DOPE  C212 3802   1.178   6.284  15.776  0.4976  0.1306  0.1453
   30DOPE  H12R 3803   1.093   6.348  15.742  0.1696 -1.4335 -2.2473
   30DOPE  H12S 3804   1.131   6.183  15.772  1.0408 -0.1275  0.1957
   30DOPE  C213 3805   1.303   6.276  15.678  0.6845  0.2906  0.2051
   30DOPE  H13R 3806   1.382   6.206  15.713  0.7299  0.6321  0.8138
   30DOPE  H13S 3807   1.339   6.380  15.661  1.2718  0.2362  1.0354
   30DOPE  C214 3808   1.252   6.225  15.542  0.0127 -0.5940 -0.6419
   30DOPE  H14R 3809   1.155   6.273  15.520  1.2371  1.2760 -2.3355
   30DOPE  H14S 3810   1.228   6.117  15.545  1.7331 -1.0148 -0.5455
   30DOPE  C215 3811   1.349   6.249  15.421 -0.2922  0.0009  0.7500
   30DOPE  H15R 3812   1.450   6.214  15.452  0.3138  2.3542  1.6472
   30DOPE  H15S 3813   1.354   6.358  15.401  0.3004 -0.0084  0.8264
   30DOPE  C216 3814   1.302   6.172  15.301  0.1493  0.1963  0.2783
   30DOPE  H16R 3815   1.198   6.205  15.279  0.4615  0.6027 -0.6096
   30DOPE  H16S 3816   1.293   6.064  15.327 -0.1566  0.5401  1.7303
   30DOPE  C217 3817   1.392   6.195  15.187  0.0103  0.2329 -0.2318
   30DOPE  H17R 3818   1.495   6.161  15.212  0.8136  1.0463 -2.1457
   30DOPE  H17S 3819   1.396   6.305  15.168  0.3049  0.0559 -1.2727
   30DOPE  C218 3820   1.352   6.122  15.061  0.5221  0.4208 -1.1573
   30DOPE  H18R 3821   1.421   6.145  14.978  0.9266  0.1931 -0.8889
   30DOPE  H18S 3822   1.248   6.148  15.033  0.8094  1.9424 -0.9133
   30DOPE  H18T 3823   1.366   6.014  15.080  0.5689  0.6402  0.1744
   30DOPE   C33 3824   1.259   6.238  16.274 -0.2891  0.1899 -0.3407
   30DOPE   H3X 3825   1.303   6.331  16.233  0.3788  0.7723  1.5945
   30DOPE   H3Y 3826   1.184   6.200  16.201 -0.7654 -1.1714  0.8125
   30DOPE   C34 3827   1.359   6.129  16.315  0.3750 -0.0608  0.5372
   30DOPE   H4X 3828   1.420   6.176  16.395 -2.3616  0.0366  2.7179
   30DOPE   H4Y 3829   1.309   6.044  16.367  1.5593 -1.5754 -0.7076
   30DOPE   C35 3830   1.436   6.079  16.193  0.1974 -0.4861 -0.5154
   30DOPE   H5X 3831   1.365   6.047  16.114 -0.3007 -0.4333 -0.0968
   30DOPE   H5Y 3832   1.500   5.992  16.219  0.9887 -0.5379 -2.4612
   30DOPE   C36 3833   1.526   6.178  16.123 -0.7483  0.5585  0.0698
   30DOPE   H6X 3834   1.591   6.221  16.202  1.2793 -1.3258 -0.4869
   30DOPE   H6Y 3835   1.461   6.260  16.085 -0.1079  1.3303  0.5886
   30DOPE   C37 3836   1.612   6.127  16.005 -0.0529  0.9467 -0.6246
   30DOPE   H7X 3837   1.650   6.024  16.023 -2.0023  0.6494  2.4084
   30DOPE   H7Y 3838   1.542   6.105  15.921  0.5308 -2.0221 -0.4533
   30DOPE   C38 3839   1.716   6.225  15.950 -0.3565  0.0475  0.9588
   30DOPE   H8X 3840   1.777   6.162  15.882 -1.2557  1.5769 -1.4027
   30DOPE   H8Y 3841   1.796   6.257  16.020 -0.5642  1.4654  0.5757
   30DOPE   C39 3842   1.656   6.334  15.878  0.4941  0.6036 -0.1766
   30DOPE   H9X 3843   1.583   6.397  15.931 -0.1026 -0.2557  0.0329
   30DOPE  C310 3844   1.660   6.338  15.739  0.6096 -1.6929 -0.0621
   30DOPE  H10X 3845   1.607   6.421  15.691 -0.3107 -2.5149 -0.4980
   30DOPE  C311 3846   1.726   6.252  15.639  0.1747  0.4495 -0.0657
   30DOPE  H11X 3847   1.827   6.224  15.678  0.1207  0.4355  0.0669
   30DOPE  H11Y 3848   1.663   6.163  15.616  0.9868 -0.4916  1.1818
   30DOPE  C312 3849   1.729   6.333  15.507  0.1983 -0.3495  0.6166
   30DOPE  H12X 3850   1.788   6.425  15.527  0.0562 -0.4801  1.7373
   30DOPE  H12Y 3851   1.625   6.358  15.478  0.3933 -1.7766 -1.5712
   30DOPE  C313 3852   1.792   6.242  15.394  0.1580 -0.0979  0.7949
   30DOPE  H13X 3853   1.899   6.219  15.416  1.0053  2.4560 -0.3041
   30DOPE  H13Y 3854   1.730   6.151  15.380  0.1803  0.2332 -2.2583
   30DOPE  C314 3855   1.787   6.320  15.257 -0.7459  0.4227 -0.3562
   30DOPE  H14X 3856   1.682   6.339  15.223  0.0726  1.4108 -2.5563
   30DOPE  H14Y 3857   1.818   6.256  15.171  0.2922  0.8285 -0.2951
   30DOPE  C315 3858   1.877   6.444  15.261 -0.3279  0.6729  0.8724
   30DOPE  H15X 3859   1.982   6.420  15.290  0.7142  1.1550 -2.1336
   30DOPE  H15Y 3860   1.830   6.523  15.323 -0.1119  1.3406  0.2038
   30DOPE  C316 3861   1.880   6.513  15.114  0.0239 -0.1871  0.1095
   30DOPE  H16X 3862   1.907   6.619  15.132  0.3306 -0.6313  2.8042
   30DOPE  H16Y 3863   1.781   6.514  15.064  1.2052 -0.9629 -2.4099
   30DOPE  C317 3864   1.990   6.439  15.034 -1.2869  0.6786 -0.1941
   30DOPE  H17X 3865   2.077   6.426  15.101 -2.2581  0.2210  1.0272
   30DOPE  H17Y 3866   1.949   6.339  15.009 -1.4743  0.5540  0.5660
   30DOPE  C318 3867   2.033   6.508  14.903 -0.3309 -0.0491  0.1796
   30DOPE  H18X 3868   2.119   6.578  14.915  3.0195 -3.3051 -2.4419
   30DOPE  H18Y 3869   2.069   6.444  14.819 -0.5226  1.9760 -1.5338
   30DOPE  H18Z 3870   1.946   6.569  14.873 -0.4718  0.3139  1.2856
   31DOPE     N 3871   3.206   2.095  12.772 -0.1449  0.4695 -0.0646
   31DOPE   HN1 3872   3.134   2.022  12.786  1.0565 -0.7195  0.0882
   31DOPE   HN2 3873   3.209   2.125  12.672 -0.3930 -0.2195 -0.2856
   31DOPE   HN3 3874   3.299   2.053  12.792 -0.1215  0.3510 -0.4171
   31DOPE   C12 3875   3.192   2.202  12.877  0.2474 -0.0500  0.3250
   31DOPE  H12A 3876   3.088   2.242  12.869  0.8717  1.4027 -0.9799
   31DOPE  H12B 3877   3.271   2.276  12.855  1.3645 -1.2394  0.2134
   31DOPE   C11 3878   3.200   2.140  13.015 -0.5330 -0.3942 -0.3432
   31DOPE  H11A 3879   3.198   2.221  13.091 -2.8253  1.2475 -2.0371
   31DOPE  H11B 3880   3.284   2.070  13.033 -1.0170 -0.8835  0.0678
   31DOPE     P 3881   2.977   2.085  13.145 -0.1486  0.3609  0.2697
   31DOPE   O13 3882   2.885   1.970  13.157 -0.0466 -0.4360  0.4991
   31DOPE   O14 3883   2.911   2.212  13.102  0.1955  0.2978  0.3038
   31DOPE   O11 3884   3.043   2.107  13.280 -0.0182 -0.2690  0.1058
   31DOPE   O12 3885   3.094   2.053  13.038  0.0598 -0.0685  0.1650
   31DOPE    C1 3886   3.162   2.031  13.319 -0.1242  0.3084 -0.3238
   31DOPE    HA 3887   3.257   2.069  13.278  1.0755 -0.3389  1.6909
   31DOPE    HB 3888   3.156   1.925  13.287 -1.4556  0.7329 -1.6225
   31DOPE    C2 3889   3.180   2.012  13.473  0.3749  0.0437  0.3232
   31DOPE    HS 3890   3.235   1.918  13.493 -1.2475 -0.9463  0.2964
   31DOPE   O21 3891   3.056   2.014  13.544 -0.0911  0.0402  0.6699
   31DOPE   C21 3892   2.970   1.915  13.529  0.8840 -0.0900  0.3943
   31DOPE   O22 3893   2.983   1.824  13.449 -0.0278  0.1504 -0.1921
   31DOPE   C22 3894   2.852   1.945  13.613  1.6861  0.3970  0.2756
   31DOPE   H2R 3895   2.784   1.858  13.599  1.0395  1.0487 -0.8316
   31DOPE   H2S 3896   2.813   2.039  13.569  2.0826 -0.0697 -1.1245
   31DOPE    C3 3897   3.271   2.118  13.533  0.1945  0.6644 -0.0683
   31DOPE    HX 3898   3.246   2.216  13.487 -1.0936 -0.7664 -2.5975
   31DOPE    HY 3899   3.372   2.092  13.494 -1.1051 -0.1741 -3.0866
   31DOPE   O31 3900   3.275   2.123  13.680 -0.5091  0.5202  0.3439
   31DOPE   C31 3901   3.182   2.193  13.736  0.4658 -0.1210 -0.1851
   31DOPE   O32 3902   3.108   2.268  13.679  0.2544  0.1760  0.4267
   31DOPE   C32 3903   3.192   2.159  13.888  0.2383 -0.1902  0.2016
   31DOPE   H2X 3904   3.175   2.052  13.909  0.8916 -0.1570  0.9675
   31DOPE   H2Y 3905   3.295   2.173  13.929  0.3304 -0.4164  0.0515
   31DOPE   C23 3906   2.885   1.956  13.767 -0.2587  0.3238  0.1034
   31DOPE   H3R 3907   2.792   1.984  13.820 -0.4283  1.3003 -0.6811
   31DOPE   H3S 3908   2.939   2.052  13.784 -0.9008  0.6829  0.1596
   31DOPE   C24 3909   2.921   1.828  13.854  0.0537 -0.0871  0.4078
   31DOPE   H4R 3910   3.029   1.824  13.831 -0.1257  1.1636 -0.7976
   31DOPE   H4S 3911   2.876   1.732  13.820 -1.4267  1.2626 -1.6944
   31DOPE   C25 3912   2.902   1.852  14.005  0.3611  0.3131  0.5789
   31DOPE   H5R 3913   2.791   1.845  14.016 -0.0620  1.5572 -2.0350
   31DOPE   H5S 3914   2.925   1.959  14.027  1.8577  0.8435 -2.9313
   31DOPE   C26 3915   2.971   1.752  14.101  0.4142 -0.5378  0.0112
   31DOPE   H6R 3916   3.082   1.766  14.101  0.3925 -0.2005  1.2949
   31DOPE   H6S 3917   2.944   1.650  14.068  0.7353 -0.6262  0.0143
   31DOPE   C27 3918   2.909   1.775  14.239 -0.0164 -0.5897 -0.1819
   31DOPE   H7R 3919   2.909   1.883  14.265  0.4786 -0.0715 -2.1180
   31DOPE   H7S 3920   2.967   1.720  14.316 -1.5300 -1.4767  0.3597
   31DOPE   C28 3921   2.768   1.715  14.257  0.6804  0.5996 -0.3554
   31DOPE   H8R 3922   2.752   1.617  14.208 -1.1904  0.2756  0.8187
   31DOPE   H8S 3923   2.709   1.791  14.201 -0.9894  0.1935  0.7996
   31DOPE   C29 3924   2.718   1.717  14.398  1.0788 -0.7158  0.1037
   31DOPE   H9R 3925   2.777   1.658  14.470  2.6577  1.3548  0.5911
   31DOPE  C210 3926   2.588   1.760  14.433 -1.2019 -0.2731 -0.2366
   31DOPE  H10R 3927   2.548   1.728  14.531 -1.1589 -1.3615 -0.5588
   31DOPE  C211 3928   2.485   1.836  14.352 -0.3937 -0.1966 -0.0334
   31DOPE  H11R 3929   2.521   1.860  14.250 -0.3764 -1.0821 -0.2451
   31DOPE  H11S 3930   2.459   1.934  14.397  1.8572  0.1808  0.6036
   31DOPE  C212 3931   2.355   1.757  14.321  0.5955 -0.0456 -0.0415
   31DOPE  H12R 3932   2.370   1.656  14.279  0.8840  0.1847 -0.4978
   31DOPE  H12S 3933   2.285   1.813  14.256  0.5463 -0.7067 -0.5595
   31DOPE  C213 3934   2.265   1.728  14.446  0.1187  0.4961 -0.0829
   31DOPE  H13R 3935   2.314   1.654  14.513 -1.2182 -3.4925 -3.0802
   31DOPE  H13S 3936   2.175   1.674  14.410  1.4990 -0.8646 -1.7027
   31DOPE  C214 3937   2.225   1.858  14.521  0.1176 -0.1044  0.2533
   31DOPE  H14R 3938   2.184   1.913  14.434 -1.3003 -2.5934 -0.7526
   31DOPE  H14S 3939   2.318   1.905  14.560  0.3651 -0.4111  0.0408
   31DOPE  C215 3940   2.107   1.848  14.615 -0.2516  0.6870  0.2630
   31DOPE  H15R 3941   2.135   1.771  14.690 -1.5112  0.2071  0.2764
   31DOPE  H15S 3942   2.016   1.817  14.560 -0.7636  1.9810  0.3321
   31DOPE  C216 3943   2.078   1.979  14.691  0.1225 -0.0663  0.0315
   31DOPE  H16R 3944   2.052   2.061  14.621 -2.8995 -0.9121  0.0484
   31DOPE  H16S 3945   2.178   1.993  14.738 -0.8833 -1.6357  2.9251
   31DOPE  C217 3946   1.978   1.978  14.797  0.1410 -0.1190 -0.0854
   31DOPE  H17R 3947   2.011   2.062  14.861  2.0602  1.0631 -2.4583
   31DOPE  H17S 3948   1.980   1.886  14.859 -1.1759  0.6239  1.0949
   31DOPE  C218 3949   1.833   2.007  14.741  0.0311 -0.2618 -0.4800
   31DOPE  H18R 3950   1.758   1.982  14.819  1.3351 -2.2310  0.2491
   31DOPE  H18S 3951   1.810   1.941  14.654  1.6472  0.8195 -1.7882
   31DOPE  H18T 3952   1.815   2.112  14.711 -1.5375 -0.1845  0.6057
   31DOPE   C33 3953   3.100   2.245  13.970  0.3978  1.6988 -0.4115
   31DOPE   H3X 3954   2.997   2.258  13.930  0.3929 -0.8713 -1.3995
   31DOPE   H3Y 3955   3.136   2.348  13.992  1.1856  1.6230 -1.2936
   31DOPE   C34 3956   3.080   2.176  14.114 -0.8765 -0.1055  0.1519
   31DOPE   H4X 3957   3.077   2.065  14.107  2.4381 -0.2664 -0.5004
   31DOPE   H4Y 3958   3.164   2.204  14.181 -2.2713  0.0298  1.9065
   31DOPE   C35 3959   2.961   2.242  14.187 -0.0792 -0.0444 -0.1673
   31DOPE   H5X 3960   2.967   2.352  14.172  2.0429  0.2262  2.0856
   31DOPE   H5Y 3961   2.964   2.224  14.296 -1.3506  2.8909  0.4509
   31DOPE   C36 3962   2.820   2.203  14.141  0.3430  0.5501  0.6676
   31DOPE   H6X 3963   2.803   2.098  14.170 -0.6146  0.5239  0.0453
   31DOPE   H6Y 3964   2.803   2.209  14.031  1.1694 -0.3144  0.4865
   31DOPE   C37 3965   2.705   2.277  14.220  0.0015 -0.4439 -0.6667
   31DOPE   H7X 3966   2.748   2.304  14.319 -0.1764  0.3624 -0.8017
   31DOPE   H7Y 3967   2.694   2.378  14.175  0.3793 -0.5018 -0.8963
   31DOPE   C38 3968   2.570   2.207  14.228  0.0443  0.2257 -0.2168
   31DOPE   H8X 3969   2.519   2.266  14.308  2.1248  1.2621  0.4254
   31DOPE   H8Y 3970   2.576   2.101  14.261 -1.4567 -0.3616 -1.6588
   31DOPE   C39 3971   2.489   2.203  14.106  0.8214 -0.0517  0.2260
   31DOPE   H9X 3972   2.550   2.224  14.018 -1.3779  1.0367 -1.1384
   31DOPE  C310 3973   2.360   2.166  14.080 -0.0518 -0.8047 -0.4821
   31DOPE  H10X 3974   2.323   2.159  13.977 -0.2395 -0.7744 -0.4162
   31DOPE  C311 3975   2.261   2.136  14.190 -0.9014 -0.0185 -0.3584
   31DOPE  H11X 3976   2.206   2.042  14.168 -1.5081  0.2632 -0.0595
   31DOPE  H11Y 3977   2.309   2.115  14.288 -0.2402 -0.0638 -0.6821
   31DOPE  C312 3978   2.158   2.256  14.201  0.2567  0.2950 -0.1229
   31DOPE  H12X 3979   2.130   2.291  14.099 -0.8881 -1.4536 -0.4542
   31DOPE  H12Y 3980   2.203   2.338  14.260 -0.8843  0.2614  0.8237
   31DOPE  C313 3981   2.033   2.223  14.286  0.5263  0.9395  0.0746
   31DOPE  H13X 3982   1.969   2.163  14.218  1.0655  1.1087 -0.5926
   31DOPE  H13Y 3983   2.065   2.151  14.364  1.3317  0.2962 -0.8195
   31DOPE  C314 3984   1.970   2.350  14.338  0.1548 -0.4178  0.0240
   31DOPE  H14X 3985   1.962   2.427  14.258 -0.2722 -0.5561 -0.0732
   31DOPE  H14Y 3986   2.039   2.390  14.415  0.2218 -0.7087  0.1150
   31DOPE  C315 3987   1.837   2.325  14.415  0.1962 -0.7549 -0.0222
   31DOPE  H15X 3988   1.866   2.246  14.487  0.5359  1.1603  2.0392
   31DOPE  H15Y 3989   1.756   2.281  14.353  1.6840 -1.4930 -1.5137
   31DOPE  C316 3990   1.799   2.443  14.514  0.0995 -0.5735 -0.3400
   31DOPE  H16X 3991   1.823   2.534  14.455 -1.7285 -0.7108 -1.3449
   31DOPE  H16Y 3992   1.867   2.446  14.602 -0.3224  1.2707 -0.0243
   31DOPE  C317 3993   1.652   2.457  14.552  0.4371  0.2327 -0.0772
   31DOPE  H17X 3994   1.637   2.563  14.582 -1.5074 -0.4010  1.4651
   31DOPE  H17Y 3995   1.586   2.414  14.473 -0.2911  1.4669 -0.1669
   31DOPE  C318 3996   1.622   2.367  14.668 -0.6321 -0.4182 -0.1307
   31DOPE  H18X 3997   1.664   2.416  14.759  1.0678 -1.9107 -0.0669
   31DOPE  H18Y 3998   1.513   2.345  14.672 -1.0809  1.6553  0.1345
   31DOPE  H18Z 3999   1.673   2.269  14.656 -1.7926 -0.9675 -0.6319
   32DOPE     N 4000   5.914   2.244  12.536  0.1139 -0.4922  0.3667
   32DOPE   HN1 4001   5.919   2.317  12.462  0.0615  1.0157  1.7828
   32DOPE   HN2 4002   6.005   2.249  12.586  1.9693 -0.9173 -2.7193
   32DOPE   HN3 4003   5.908   2.151  12.489  0.7771  0.0868 -0.9162
   32DOPE   C12 4004   5.791   2.262  12.619  0.0475  0.4577  0.1007
   32DOPE  H12A 4005   5.702   2.251  12.553  0.5969 -2.1500 -0.3163
   32DOPE  H12B 4006   5.791   2.367  12.657 -2.2728  1.7544 -2.9865
   32DOPE   C11 4007   5.784   2.150  12.724  0.5812  0.1609 -0.1813
   32DOPE  H11A 4008   5.793   2.046  12.687  0.2652 -0.4164  1.2575
   32DOPE  H11B 4009   5.681   2.162  12.765 -0.3318  0.3217 -2.4226
   32DOPE     P 4010   5.872   2.147  12.970  0.3516  0.2152 -0.3849
   32DOPE   O13 4011   5.804   2.261  13.034 -0.2098 -0.5380 -0.6649
   32DOPE   O14 4012   6.003   2.118  13.028  0.2635 -0.2510 -0.4937
   32DOPE   O11 4013   5.772   2.027  12.986 -0.4759 -0.2041  0.1729
   32DOPE   O12 4014   5.887   2.172  12.819 -0.2767  0.3250 -0.6478
   32DOPE    C1 4015   5.639   2.040  13.031  1.0731  0.9272  0.3475
   32DOPE    HA 4016   5.577   1.993  12.952  0.8113  0.7752  0.6416
   32DOPE    HB 4017   5.614   2.148  13.041  3.8752  1.6637  0.1346
   32DOPE    C2 4018   5.617   1.972  13.172  0.3812 -0.4272 -0.0442
   32DOPE    HS 4019   5.509   1.987  13.194  0.7309  0.9376  0.8487
   32DOPE   O21 4020   5.685   2.041  13.276 -0.3236  0.0920 -0.6677
   32DOPE   C21 4021   5.623   2.062  13.390  0.2507  0.3101 -0.7099
   32DOPE   O22 4022   5.513   2.020  13.416  0.3600  0.5315 -0.0902
   32DOPE   C22 4023   5.703   2.134  13.495 -0.8257  0.0691  0.2847
   32DOPE   H2R 4024   5.646   2.143  13.590 -0.3925  3.8263  0.3265
   32DOPE   H2S 4025   5.721   2.240  13.469 -0.5094 -0.5313 -2.1947
   32DOPE    C3 4026   5.650   1.819  13.176 -0.0752  0.3319 -0.3227
   32DOPE    HX 4027   5.761   1.816  13.173 -0.0358 -3.2735 -0.3737
   32DOPE    HY 4028   5.615   1.749  13.098 -0.8447  0.3130  0.0341
   32DOPE   O31 4029   5.622   1.761  13.309 -0.3893  0.2154  0.3627
   32DOPE   C31 4030   5.492   1.731  13.328  0.3130  0.0605  0.6368
   32DOPE   O32 4031   5.409   1.739  13.241 -0.0918  0.3011 -0.0005
   32DOPE   C32 4032   5.454   1.710  13.470  0.6148  1.2711 -0.0197
   32DOPE   H2X 4033   5.456   1.602  13.495 -0.0882  1.5626  1.4314
   32DOPE   H2Y 4034   5.533   1.766  13.525 -0.1665  2.9311 -0.5105
   32DOPE   C23 4035   5.842   2.075  13.526  0.1512 -0.1407  0.0941
   32DOPE   H3R 4036   5.908   2.146  13.581  0.1091 -0.0586  0.0404
   32DOPE   H3S 4037   5.899   2.046  13.434 -1.3264  1.1222 -1.2785
   32DOPE   C24 4038   5.820   1.952  13.623  0.1464 -0.1748  0.1481
   32DOPE   H4R 4039   5.791   1.853  13.580  2.2158 -1.0494  0.6224
   32DOPE   H4S 4040   5.741   1.982  13.694 -1.1494 -1.9144 -0.4822
   32DOPE   C25 4041   5.946   1.925  13.704  0.1407 -0.3077 -0.2413
   32DOPE   H5R 4042   5.974   2.009  13.772 -0.2786 -1.0217  0.8343
   32DOPE   H5S 4043   6.020   1.908  13.624  1.2278 -2.1776  1.0959
   32DOPE   C26 4044   5.935   1.799  13.793 -0.3231 -0.3855  0.2124
   32DOPE   H6R 4045   6.043   1.776  13.808 -0.3108  0.9061  2.4912
   32DOPE   H6S 4046   5.881   1.714  13.746 -0.2519  1.4501 -3.5831
   32DOPE   C27 4047   5.883   1.824  13.927 -0.7702 -0.3358 -0.1473
   32DOPE   H7R 4048   5.790   1.884  13.915  0.3646  1.5082 -0.0401
   32DOPE   H7S 4049   5.950   1.896  13.979  1.7424 -0.8551 -2.4362
   32DOPE   C28 4050   5.876   1.698  14.011  0.0640 -0.0084  0.0521
   32DOPE   H8R 4051   5.833   1.614  13.953 -0.0681 -0.4981  0.8375
   32DOPE   H8S 4052   5.812   1.719  14.099 -0.8437 -0.2221 -0.5477
   32DOPE   C29 4053   6.023   1.665  14.046  1.2114 -0.4226  0.1062
   32DOPE   H9R 4054   6.082   1.630  13.960 -0.3479  0.5393 -1.4241
   32DOPE  C210 4055   6.072   1.694  14.166 -0.3582  0.2321 -0.5054
   32DOPE  H10R 4056   6.181   1.686  14.173 -0.1790  2.3182 -0.3672
   32DOPE  C211 4057   6.007   1.736  14.297 -0.1820 -0.0762  0.9721
   32DOPE  H11R 4058   5.901   1.765  14.278  0.2005 -0.3108 -1.9025
   32DOPE  H11S 4059   6.055   1.825  14.345  0.5103  0.4472 -0.6154
   32DOPE  C212 4060   6.014   1.626  14.407 -0.3684  0.1062  0.3347
   32DOPE  H12R 4061   6.121   1.596  14.404 -0.5965 -0.6492 -1.6725
   32DOPE  H12S 4062   5.951   1.539  14.381 -0.0623  0.5207 -1.9701
   32DOPE  C213 4063   5.992   1.679  14.550 -0.2263 -0.2716  0.4461
   32DOPE  H13R 4064   5.984   1.590  14.615 -1.4804 -2.9277 -3.0395
   32DOPE  H13S 4065   5.906   1.749  14.561 -0.2292 -0.3080  0.6515
   32DOPE  C214 4066   6.121   1.741  14.608 -1.0141  0.0099 -0.2347
   32DOPE  H14R 4067   6.157   1.830  14.552 -1.0395 -0.3921 -0.9080
   32DOPE  H14S 4068   6.199   1.662  14.605 -1.2846 -0.2876  0.4655
   32DOPE  C215 4069   6.107   1.780  14.753  0.1059 -0.9709 -0.2845
   32DOPE  H15R 4070   6.055   1.696  14.803  1.6409 -2.6541 -1.3782
   32DOPE  H15S 4071   6.052   1.877  14.758  1.2044 -0.2780 -1.0419
   32DOPE  C216 4072   6.246   1.807  14.807  0.7520  0.3986  0.2290
   32DOPE  H16R 4073   6.304   1.861  14.729 -2.6437  0.7229 -2.3015
   32DOPE  H16S 4074   6.298   1.709  14.812 -0.9728 -0.5334  1.0097
   32DOPE  C217 4075   6.250   1.862  14.949 -0.0911 -0.0235 -0.3354
   32DOPE  H17R 4076   6.188   1.798  15.016  0.6174  0.0828  0.4414
   32DOPE  H17S 4077   6.216   1.967  14.951 -2.0947 -0.6309  1.3949
   32DOPE  C218 4078   6.393   1.850  15.007  0.0722  0.0208 -0.4688
   32DOPE  H18R 4079   6.470   1.901  14.946 -0.0036  0.8921  0.1486
   32DOPE  H18S 4080   6.421   1.742  15.009 -0.2110 -0.0415  0.4214
   32DOPE  H18T 4081   6.404   1.899  15.106 -1.6755  0.7109 -0.5834
   32DOPE   C33 4082   5.312   1.778  13.500  0.4570 -0.0605 -0.7210
   32DOPE   H3X 4083   5.301   1.863  13.430  2.6011 -0.4835 -1.6518
   32DOPE   H3Y 4084   5.306   1.820  13.603  1.6017  0.2583 -0.7759
   32DOPE   C34 4085   5.189   1.676  13.482 -0.0949 -1.0149 -0.1650
   32DOPE   H4X 4086   5.197   1.639  13.377 -1.2945 -1.2430 -0.1941
   32DOPE   H4Y 4087   5.215   1.596  13.554  1.3382  0.0321  0.5324
   32DOPE   C35 4088   5.055   1.745  13.506 -0.0221  0.4645 -0.4554
   32DOPE   H5X 4089   5.045   1.829  13.434  0.0036  1.5720  0.7913
   32DOPE   H5Y 4090   5.075   1.795  13.603  1.1052  0.4065 -0.6409
   32DOPE   C36 4091   4.934   1.654  13.509 -0.3413 -0.8875  0.3612
   32DOPE   H6X 4092   4.927   1.588  13.420  1.7102  1.9645 -2.1159
   32DOPE   H6Y 4093   4.845   1.720  13.519  0.3936 -0.0554  1.6832
   32DOPE   C37 4094   4.927   1.569  13.641 -0.2680  0.9101 -0.5287
   32DOPE   H7X 4095   4.836   1.505  13.634 -0.2597  0.9160 -0.7027
   32DOPE   H7Y 4096   5.022   1.510  13.640  0.1568  1.5823 -0.0919
   32DOPE   C38 4097   4.918   1.655  13.766 -0.0359 -0.3265  0.4564
   32DOPE   H8X 4098   5.010   1.716  13.776 -0.7669  0.7514  0.8164
   32DOPE   H8Y 4099   4.937   1.589  13.852 -0.6628 -1.0170  0.0743
   32DOPE   C39 4100   4.799   1.748  13.772  0.4431  0.0038  0.6014
   32DOPE   H9X 4101   4.785   1.825  13.694 -1.0258 -1.8719 -1.1148
   32DOPE  C310 4102   4.687   1.739  13.851  0.4927  0.1551 -0.2095
   32DOPE  H10X 4103   4.600   1.806  13.845  0.2849 -0.1413 -0.5086
   32DOPE  C311 4104   4.682   1.638  13.962 -0.0541 -0.3214 -0.3573
   32DOPE  H11X 4105   4.581   1.593  13.968 -0.3716  0.5307  1.2646
   32DOPE  H11Y 4106   4.762   1.562  13.952  0.7552  0.7415 -2.6711
   32DOPE  C312 4107   4.699   1.708  14.103 -0.7642  0.6808  1.0429
   32DOPE  H12X 4108   4.668   1.637  14.183  0.2424 -1.1695 -0.1433
   32DOPE  H12Y 4109   4.621   1.784  14.126 -0.7587  1.5098 -1.3803
   32DOPE  C313 4110   4.834   1.764  14.130 -0.6624  0.3942  0.2025
   32DOPE  H13X 4111   4.862   1.755  14.237  2.4131  3.4815 -0.1500
   32DOPE  H13Y 4112   4.908   1.710  14.066 -1.9043  0.7801 -1.6512
   32DOPE  C314 4113   4.861   1.911  14.104 -0.2345  0.4284  0.2021
   32DOPE  H14X 4114   4.787   1.968  14.165 -4.7754 -2.9492 -1.5437
   32DOPE  H14Y 4115   4.821   1.933  14.003 -0.9198 -0.4021  0.2773
   32DOPE  C315 4116   5.005   1.952  14.130  0.0346  0.5224  0.6111
   32DOPE  H15X 4117   5.067   1.910  14.047 -0.0410  2.0267 -0.2350
   32DOPE  H15Y 4118   5.044   1.919  14.229  0.9150  0.6797  0.3258
   32DOPE  C316 4119   5.022   2.103  14.121  0.4335 -0.1544 -0.3945
   32DOPE  H16X 4120   4.947   2.145  14.192  0.6536 -1.3458  0.5844
   32DOPE  H16Y 4121   4.989   2.130  14.019 -1.4185 -0.1102  0.1857
   32DOPE  C317 4122   5.155   2.171  14.169  0.0463  0.6304  0.1391
   32DOPE  H17X 4123   5.174   2.139  14.274 -2.2585  0.0147  0.4158
   32DOPE  H17Y 4124   5.235   2.146  14.096  0.7165  0.9288  0.7481
   32DOPE  C318 4125   5.143   2.323  14.167  0.2151  0.1499 -0.2020
   32DOPE  H18X 4126   5.055   2.363  14.222  1.1593  0.3360  1.1976
   32DOPE  H18Y 4127   5.232   2.375  14.208 -0.1716  0.1533  0.6541
   32DOPE  H18Z 4128   5.120   2.342  14.059 -3.0347 -2.4206 -0.1236
   33DOPE     N 4129   3.900   1.783  12.377  0.2470 -0.4484 -0.5914
   33DOPE   HN1 4130   3.798   1.764  12.373  0.4697 -2.0559  0.3620
   33DOPE   HN2 4131   3.923   1.884  12.378  0.6309 -0.5337 -0.6775
   33DOPE   HN3 4132   3.939   1.738  12.292  1.4005 -0.0234 -0.2995
   33DOPE   C12 4133   3.960   1.719  12.501  0.2450 -0.2268  0.3734
   33DOPE  H12A 4134   3.931   1.779  12.590  0.8601 -3.2581  2.7662
   33DOPE  H12B 4135   4.071   1.718  12.496  0.2814 -0.1142  1.0790
   33DOPE   C11 4136   3.901   1.584  12.531 -0.0756  0.5572 -0.3929
   33DOPE  H11A 4137   3.958   1.533  12.611 -0.7223  1.3019  0.5536
   33DOPE  H11B 4138   3.924   1.520  12.442  2.6124 -0.0668  0.6504
   33DOPE     P 4139   3.683   1.485  12.631  0.2107 -0.0044  0.2027
   33DOPE   O13 4140   3.676   1.371  12.533 -0.1956  0.0508 -0.0350
   33DOPE   O14 4141   3.558   1.549  12.674  0.3510 -0.2752 -0.2740
   33DOPE   O11 4142   3.767   1.441  12.757  0.2451 -0.3474  0.5140
   33DOPE   O12 4143   3.767   1.604  12.564 -0.0854  0.0843 -0.2473
   33DOPE    C1 4144   3.805   1.534  12.867  0.1463  0.2742  0.3158
   33DOPE    HA 4145   3.712   1.569  12.916 -0.9490 -1.9676 -0.0223
   33DOPE    HB 4146   3.862   1.620  12.825  0.1345 -0.1754 -0.6416
   33DOPE    C2 4147   3.865   1.441  12.983  0.4931 -0.4897 -0.4602
   33DOPE    HS 4148   3.802   1.351  12.986 -0.2126  0.0092 -0.1272
   33DOPE   O21 4149   3.867   1.524  13.106 -0.5516 -0.7952 -0.0579
   33DOPE   C21 4150   3.756   1.518  13.178 -0.3649  0.0056  0.6549
   33DOPE   O22 4151   3.664   1.442  13.155 -0.7609  0.2147  1.0581
   33DOPE   C22 4152   3.751   1.620  13.289 -1.1115 -0.1223  0.5866
   33DOPE   H2R 4153   3.695   1.711  13.259  1.2249  1.0771 -0.3803
   33DOPE   H2S 4154   3.853   1.661  13.305 -0.4480 -1.9041  1.2065
   33DOPE    C3 4155   4.006   1.392  12.937  0.6217 -0.1157  0.3905
   33DOPE    HX 4156   4.073   1.475  12.906  0.7947 -0.5024 -0.2956
   33DOPE    HY 4157   4.001   1.318  12.855  4.6103  0.9647 -1.0663
   33DOPE   O31 4158   4.074   1.319  13.042 -0.0471 -0.1401 -0.3963
   33DOPE   C31 4159   4.131   1.405  13.129  0.3150  0.9744  0.2591
   33DOPE   O32 4160   4.141   1.524  13.116  0.1544 -0.6388  0.9663
   33DOPE   C32 4161   4.190   1.333  13.255 -0.5440 -0.3082  0.8992
   33DOPE   H2X 4162   4.180   1.225  13.234 -2.9301  0.1337 -0.6227
   33DOPE   H2Y 4163   4.298   1.362  13.261  0.1172 -2.2931 -0.4663
   33DOPE   C23 4164   3.702   1.548  13.422 -0.7817 -0.0651 -0.1878
   33DOPE   H3R 4165   3.785   1.486  13.463  0.2503  1.3740 -0.0354
   33DOPE   H3S 4166   3.608   1.490  13.411 -0.6531 -0.8467  2.2050
   33DOPE   C24 4167   3.668   1.659  13.531  0.0204 -0.1279 -0.2511
   33DOPE   H4R 4168   3.595   1.723  13.476 -0.7080 -1.1717 -0.5282
   33DOPE   H4S 4169   3.761   1.714  13.557 -0.2666  0.8946 -1.2716
   33DOPE   C25 4170   3.609   1.604  13.661 -0.2229 -0.4442  1.2418
   33DOPE   H5R 4171   3.688   1.549  13.716 -1.0982  0.0607  3.0777
   33DOPE   H5S 4172   3.514   1.550  13.643  0.1922 -1.1133  0.9979
   33DOPE   C26 4173   3.555   1.709  13.765 -0.2662 -0.3260  0.2552
   33DOPE   H6R 4174   3.638   1.781  13.782 -0.4570 -0.0510  0.0257
   33DOPE   H6S 4175   3.554   1.656  13.863 -1.3175 -2.3162 -0.7547
   33DOPE   C27 4176   3.418   1.767  13.717 -0.2347 -0.1752 -0.3379
   33DOPE   H7R 4177   3.346   1.684  13.710 -1.0578  0.1800  2.6413
   33DOPE   H7S 4178   3.426   1.813  13.616  1.2969 -1.8654 -1.0260
   33DOPE   C28 4179   3.360   1.857  13.821  0.2129 -0.2059 -0.4834
   33DOPE   H8R 4180   3.274   1.908  13.773  0.5579  0.2855 -0.5980
   33DOPE   H8S 4181   3.434   1.940  13.825  0.7261 -0.3227 -4.0820
   33DOPE   C29 4182   3.326   1.798  13.950 -0.2533  0.0582  0.0935
   33DOPE   H9R 4183   3.287   1.695  13.959  1.6231 -0.6386  0.7261
   33DOPE  C210 4184   3.351   1.856  14.072 -0.3571  0.0568  0.7822
   33DOPE  H10R 4185   3.325   1.795  14.160  2.1043 -1.3684  0.6002
   33DOPE  C211 4186   3.413   1.985  14.104  0.1229 -0.4171 -0.9477
   33DOPE  H11R 4187   3.329   2.049  14.138 -0.5119 -1.4565 -0.4929
   33DOPE  H11S 4188   3.451   2.031  14.011 -0.8795  0.9207 -0.7206
   33DOPE  C212 4189   3.526   1.980  14.212  0.1143  1.0632  0.3970
   33DOPE  H12R 4190   3.486   1.961  14.314 -0.4856  0.3601  0.0475
   33DOPE  H12S 4191   3.572   2.081  14.220 -0.3859  1.6981 -3.2192
   33DOPE  C213 4192   3.640   1.884  14.168 -0.2507 -0.2217 -0.7199
   33DOPE  H13R 4193   3.672   1.916  14.066  1.0372  0.5169 -0.1170
   33DOPE  H13S 4194   3.610   1.778  14.154 -1.0711 -0.2811  1.2214
   33DOPE  C214 4195   3.759   1.896  14.265 -0.2942  0.1259 -0.0747
   33DOPE  H14R 4196   3.800   1.997  14.249  2.5224 -0.7340  1.1149
   33DOPE  H14S 4197   3.844   1.830  14.236 -0.5889  0.8197 -2.8111
   33DOPE  C215 4198   3.750   1.872  14.417  0.2294 -0.2345 -0.4077
   33DOPE  H15R 4199   3.729   1.766  14.442 -1.7529  0.2789  0.2761
   33DOPE  H15S 4200   3.681   1.945  14.465  0.9256 -0.2177  0.5919
   33DOPE  C216 4201   3.882   1.897  14.492  0.2080  0.5062  0.9599
   33DOPE  H16R 4202   3.914   2.002  14.471 -0.1398  0.5294  0.5484
   33DOPE  H16S 4203   3.960   1.832  14.447 -0.7076 -1.2351  1.8274
   33DOPE  C217 4204   3.870   1.870  14.641  0.2282 -0.2509  0.7674
   33DOPE  H17R 4205   3.848   1.761  14.646  1.2761 -0.4334  3.1284
   33DOPE  H17S 4206   3.782   1.921  14.685 -1.2265 -2.9227  1.1366
   33DOPE  C218 4207   3.991   1.919  14.723  0.4945  0.0371 -0.3900
   33DOPE  H18R 4208   3.979   1.889  14.829 -1.6096  2.6224  0.2268
   33DOPE  H18S 4209   3.997   2.030  14.727 -2.2470  0.2315  0.7930
   33DOPE  H18T 4210   4.085   1.871  14.690  2.5448  3.3978  0.0927
   33DOPE   C33 4211   4.104   1.359  13.378  0.0850 -0.1058 -0.0617
   33DOPE   H3X 4212   4.119   1.282  13.458 -2.4489 -0.3300  0.2840
   33DOPE   H3Y 4213   3.997   1.351  13.350  0.3677  1.2558 -1.6336
   33DOPE   C34 4214   4.128   1.494  13.446 -0.5224 -0.9539 -0.2850
   33DOPE   H4X 4215   4.235   1.508  13.472 -0.7206  0.8933 -0.3390
   33DOPE   H4Y 4216   4.094   1.582  13.387  0.5506  0.6572  1.3778
   33DOPE   C35 4217   4.060   1.499  13.578  0.3013 -0.5223  0.5127
   33DOPE   H5X 4218   4.108   1.427  13.648  4.0997  3.5692  2.6552
   33DOPE   H5Y 4219   3.950   1.486  13.581  0.1596  0.5969  0.6618
   33DOPE   C36 4220   4.083   1.635  13.651  0.5485 -0.0216 -0.3517
   33DOPE   H6X 4221   4.028   1.715  13.597  1.6808 -0.0758 -1.6628
   33DOPE   H6Y 4222   4.191   1.660  13.641  0.6994 -1.1661 -2.0960
   33DOPE   C37 4223   4.041   1.626  13.800 -0.9203  0.6502 -0.3267
   33DOPE   H7X 4224   3.930   1.624  13.793 -0.9439  2.7947 -1.2330
   33DOPE   H7Y 4225   4.064   1.525  13.839  1.4889  0.3977 -2.1390
   33DOPE   C38 4226   4.085   1.733  13.900 -0.9664 -0.3244 -0.9090
   33DOPE   H8X 4227   4.042   1.708  14.000 -0.0328  1.6268  0.0269
   33DOPE   H8Y 4228   4.043   1.831  13.871  0.4804  0.8581  0.7615
   33DOPE   C39 4229   4.235   1.755  13.922  0.0538 -0.0338 -0.2807
   33DOPE   H9X 4230   4.294   1.699  13.847  0.5787  1.9863 -1.4360
   33DOPE  C310 4231   4.287   1.855  13.996 -0.1943  0.0116  0.8012
   33DOPE  H10X 4232   4.397   1.857  14.002 -0.2161 -0.5947  1.6140
   33DOPE  C311 4233   4.215   1.927  14.105  0.4393 -0.6192 -0.7332
   33DOPE  H11X 4234   4.171   2.026  14.083 -1.0450 -0.8713  0.8630
   33DOPE  H11Y 4235   4.126   1.864  14.130  2.0743 -1.8182  2.6176
   33DOPE  C312 4236   4.303   1.938  14.233 -0.1954 -0.3197  0.6203
   33DOPE  H12X 4237   4.396   2.000  14.229 -0.6548  0.5070  1.9116
   33DOPE  H12Y 4238   4.348   1.837  14.243 -1.0033 -0.7847 -0.3351
   33DOPE  C313 4239   4.228   1.993  14.358  0.1876  0.1859  0.0777
   33DOPE  H13X 4240   4.156   1.909  14.370  1.1074 -0.9310 -1.6848
   33DOPE  H13Y 4241   4.300   1.995  14.443 -1.1594 -1.3127  1.3063
   33DOPE  C314 4242   4.180   2.139  14.337 -0.0310 -0.2791  0.4548
   33DOPE  H14X 4243   4.090   2.136  14.271  1.5965  1.2978 -1.9966
   33DOPE  H14Y 4244   4.257   2.200  14.286 -1.0204  3.0436  2.6179
   33DOPE  C315 4245   4.138   2.212  14.468  0.3756  0.3785  0.3967
   33DOPE  H15X 4246   4.080   2.135  14.522  1.4486 -0.1669  0.7852
   33DOPE  H15Y 4247   4.081   2.304  14.441 -1.0130 -0.4017  0.5552
   33DOPE  C316 4248   4.252   2.255  14.558  0.5732 -0.1782  0.5324
   33DOPE  H16X 4249   4.318   2.319  14.496  0.8762 -0.7797  0.2293
   33DOPE  H16Y 4250   4.306   2.166  14.596 -0.5426 -1.2048 -0.1862
   33DOPE  C317 4251   4.216   2.341  14.683  0.1095 -0.4704 -0.4124
   33DOPE  H17X 4252   4.311   2.379  14.727  1.5481 -2.5840 -1.4912
   33DOPE  H17Y 4253   4.166   2.432  14.643  1.1674  0.1906 -0.2885
   33DOPE  C318 4254   4.129   2.280  14.792 -0.1881 -0.3811  0.1692
   33DOPE  H18X 4255   4.115   2.360  14.868 -0.5937  0.4311 -0.7488
   33DOPE  H18Y 4256   4.037   2.242  14.744  0.4775  1.8909 -3.2095
   33DOPE  H18Z 4257   4.183   2.202  14.851 -0.3807 -0.2595  0.5116
   34DOPE     N 4258   2.768   3.252  12.713 -0.2282  0.4645  0.4576
   34DOPE   HN1 4259   2.775   3.354  12.730  2.1124  0.2916  0.8699
   34DOPE   HN2 4260   2.855   3.228  12.661  0.6560  0.9433  1.6789
   34DOPE   HN3 4261   2.689   3.225  12.651  0.4209 -0.5307  0.0402
   34DOPE   C12 4262   2.744   3.178  12.842 -0.2455 -0.0493 -0.1353
   34DOPE  H12A 4263   2.762   3.249  12.924  0.9869 -1.6383  1.0256
   34DOPE  H12B 4264   2.814   3.092  12.839 -1.4829 -1.0665 -0.7895
   34DOPE   C11 4265   2.597   3.141  12.857 -0.0887 -0.2463  0.2564
   34DOPE  H11A 4266   2.576   3.103  12.959  1.3669 -2.3672 -0.1629
   34DOPE  H11B 4267   2.579   3.066  12.777  0.2715  1.3983 -1.4438
   34DOPE     P 4268   2.365   3.273  12.827  0.4393 -0.2847  0.0501
   34DOPE   O13 4269   2.305   3.153  12.765 -0.1453  0.0838  0.3521
   34DOPE   O14 4270   2.337   3.401  12.770 -0.3426 -0.9471 -0.5418
   34DOPE   O11 4271   2.332   3.283  12.980  0.6071 -0.4224  0.6320
   34DOPE   O12 4272   2.520   3.253  12.825 -0.2508  0.2581 -0.8196
   34DOPE    C1 4273   2.348   3.411  13.038 -0.7158  0.2391  0.1976
   34DOPE    HA 4274   2.275   3.414  13.121  1.2103 -1.1934  2.0473
   34DOPE    HB 4275   2.316   3.504  12.987  2.9489  2.7833  2.0645
   34DOPE    C2 4276   2.488   3.427  13.109  0.2072  0.1048  0.1672
   34DOPE    HS 4277   2.564   3.412  13.030 -0.6629 -1.5478 -0.3976
   34DOPE   O21 4278   2.486   3.331  13.213 -0.5069 -0.8393  0.6037
   34DOPE   C21 4279   2.607   3.293  13.243  0.2520 -0.2790 -0.3239
   34DOPE   O22 4280   2.709   3.319  13.184  0.1590 -0.5020 -0.3108
   34DOPE   C22 4281   2.604   3.224  13.377 -0.0462  0.6999 -0.1404
   34DOPE   H2R 4282   2.554   3.126  13.362 -1.4556  1.3057  0.4325
   34DOPE   H2S 4283   2.542   3.278  13.452 -0.4788 -2.0186  1.6070
   34DOPE    C3 4284   2.504   3.574  13.164 -0.3658  0.2149 -0.1411
   34DOPE    HX 4285   2.462   3.640  13.086 -1.3648 -0.0115  0.1804
   34DOPE    HY 4286   2.610   3.598  13.184  0.2672 -2.8413  0.6732
   34DOPE   O31 4287   2.424   3.605  13.283 -0.1429  0.3218  0.1253
   34DOPE   C31 4288   2.491   3.581  13.398 -0.1928 -0.4579 -0.0813
   34DOPE   O32 4289   2.610   3.557  13.415  0.7106  0.1236 -0.1164
   34DOPE   C32 4290   2.384   3.589  13.499  0.3353 -0.0059  0.3928
   34DOPE   H2X 4291   2.287   3.551  13.460  0.0978  2.0368 -1.1416
   34DOPE   H2Y 4292   2.407   3.518  13.582  0.3480 -0.2725  0.1620
   34DOPE   C23 4293   2.744   3.197  13.430  0.6438 -0.5063  0.1753
   34DOPE   H3R 4294   2.805   3.286  13.455 -2.5388  1.5170  1.1240
   34DOPE   H3S 4295   2.803   3.127  13.366  2.4912  0.6228  0.5592
   34DOPE   C24 4296   2.735   3.115  13.557 -0.0362 -0.7267  0.3428
   34DOPE   H4R 4297   2.833   3.066  13.575  0.4814 -0.1614 -0.8008
   34DOPE   H4S 4298   2.666   3.029  13.547 -1.6146  0.1600  2.7995
   34DOPE   C25 4299   2.726   3.200  13.683  0.9036 -0.7001 -0.4985
   34DOPE   H5R 4300   2.620   3.230  13.695  1.0533  0.0795 -1.0193
   34DOPE   H5S 4301   2.799   3.284  13.690 -0.4758  0.4083  1.0401
   34DOPE   C26 4302   2.756   3.107  13.808 -0.2106  0.0323  0.9892
   34DOPE   H6R 4303   2.866   3.091  13.798  0.0869  0.0999  3.3968
   34DOPE   H6S 4304   2.695   3.016  13.794 -0.4778  0.2888  0.4992
   34DOPE   C27 4305   2.725   3.178  13.936 -0.2324 -0.3070 -0.1096
   34DOPE   H7R 4306   2.617   3.183  13.961 -0.7658  0.7257 -2.3302
   34DOPE   H7S 4307   2.769   3.277  13.910  0.1050 -0.8197 -1.6459
   34DOPE   C28 4308   2.797   3.123  14.061  0.0293  0.0772  0.6233
   34DOPE   H8R 4309   2.781   3.183  14.152 -0.3562 -2.1744  2.1260
   34DOPE   H8S 4310   2.906   3.134  14.039 -0.1211  2.4930  0.8504
   34DOPE   C29 4311   2.743   2.984  14.093  0.2257 -0.6035  0.1129
   34DOPE   H9R 4312   2.740   2.925  14.000 -2.5915 -1.2101  0.5034
   34DOPE  C210 4313   2.696   2.936  14.212  0.7571 -0.1068  0.4388
   34DOPE  H10R 4314   2.664   2.832  14.217  1.2238 -0.3506 -0.9522
   34DOPE  C211 4315   2.705   3.009  14.340 -0.4100  0.2743  0.2884
   34DOPE  H11R 4316   2.702   3.119  14.323 -1.2262 -0.2150 -3.5651
   34DOPE  H11S 4317   2.799   2.977  14.390 -0.9832  0.7066  1.6777
   34DOPE  C212 4318   2.583   2.978  14.433 -0.3996 -0.4968  0.4508
   34DOPE  H12R 4319   2.577   2.867  14.435 -1.1939 -0.4654  0.1277
   34DOPE  H12S 4320   2.485   3.021  14.403  0.5477  0.9076 -0.7966
   34DOPE  C213 4321   2.626   3.023  14.572 -0.1870  0.4514 -0.0078
   34DOPE  H13R 4322   2.637   3.133  14.579 -2.9383  0.6849  2.1375
   34DOPE  H13S 4323   2.726   2.984  14.600  0.3238  1.4484 -0.3983
   34DOPE  C214 4324   2.518   3.003  14.680 -0.4281 -0.0763 -0.4973
   34DOPE  H14R 4325   2.455   2.919  14.645 -0.6563  0.1811 -0.7048
   34DOPE  H14S 4326   2.452   3.091  14.677  0.4175  0.5630 -0.7883
   34DOPE  C215 4327   2.574   2.991  14.819 -0.3087 -0.1723 -0.3611
   34DOPE  H15R 4328   2.626   3.084  14.852  1.1731 -0.9976 -0.3004
   34DOPE  H15S 4329   2.652   2.913  14.833 -1.0531 -0.4471  3.2127
   34DOPE  C216 4330   2.469   2.956  14.929  0.5660  0.0628 -0.1339
   34DOPE  H16R 4331   2.438   2.850  14.920  1.4291 -0.4498  2.4035
   34DOPE  H16S 4332   2.375   3.015  14.917 -1.1549 -1.9845  2.2601
   34DOPE  C217 4333   2.501   2.985  15.071  0.4170  0.0522 -0.0275
   34DOPE  H17R 4334   2.504   3.096  15.084 -0.5748  0.6457 -3.7856
   34DOPE  H17S 4335   2.596   2.932  15.090 -0.2412 -1.5525 -0.9942
   34DOPE  C218 4336   2.398   2.937  15.172  0.5001  0.0379 -0.2961
   34DOPE  H18R 4337   2.310   3.003  15.156  0.6307  0.1273 -0.6694
   34DOPE  H18S 4338   2.418   2.953  15.280 -1.4136 -1.8100  0.3963
   34DOPE  H18T 4339   2.365   2.833  15.150  0.4681 -0.2114  0.8778
   34DOPE   C33 4340   2.368   3.732  13.557 -0.5821  0.4314 -0.3074
   34DOPE   H3X 4341   2.300   3.739  13.645  1.7423 -0.3088  1.6193
   34DOPE   H3Y 4342   2.316   3.790  13.477 -2.9285  1.9310  2.1172
   34DOPE   C34 4343   2.504   3.805  13.593 -0.4674  0.0011  0.0876
   34DOPE   H4X 4344   2.570   3.749  13.663 -0.0162  0.8731  0.3631
   34DOPE   H4Y 4345   2.569   3.808  13.503  2.6015 -2.1070  2.0263
   34DOPE   C35 4346   2.485   3.949  13.656  0.2895  0.4341  0.8149
   34DOPE   H5X 4347   2.581   3.985  13.697  0.3966  2.0089 -0.7143
   34DOPE   H5Y 4348   2.411   3.942  13.739 -0.6307 -0.6700 -0.0574
   34DOPE   C36 4349   2.435   4.052  13.549 -0.2120 -0.0996 -0.6466
   34DOPE   H6X 4350   2.331   4.025  13.521  0.2476 -1.5397 -1.0816
   34DOPE   H6Y 4351   2.497   4.029  13.459  0.8433 -2.5622  0.6060
   34DOPE   C37 4352   2.455   4.195  13.593  0.1686 -0.5418  0.3534
   34DOPE   H7X 4353   2.410   4.212  13.693  0.8299  0.6055  0.4702
   34DOPE   H7Y 4354   2.563   4.222  13.598  0.0716  0.5752 -1.9024
   34DOPE   C38 4355   2.391   4.301  13.491 -0.4325  0.2754  0.1513
   34DOPE   H8X 4356   2.290   4.265  13.462  0.2268 -0.0509 -1.9302
   34DOPE   H8Y 4357   2.446   4.294  13.395 -1.6250  0.6173 -0.5719
   34DOPE   C39 4358   2.391   4.441  13.541 -0.2224 -0.7809 -0.0133
   34DOPE   H9X 4359   2.488   4.492  13.538 -0.5778  0.0047  1.0057
   34DOPE  C310 4360   2.287   4.507  13.585 -0.0142  0.4233 -0.4043
   34DOPE  H10X 4361   2.307   4.607  13.626  0.9412 -0.0281  0.2790
   34DOPE  C311 4362   2.142   4.468  13.575  0.0333 -1.0027 -0.6105
   34DOPE  H11X 4363   2.081   4.550  13.532  2.3570 -0.0276 -2.2636
   34DOPE  H11Y 4364   2.124   4.373  13.521  0.0122 -1.3104 -0.0724
   34DOPE  C312 4365   2.094   4.438  13.720 -0.0756 -0.0748  0.1112
   34DOPE  H12X 4366   1.983   4.446  13.716  0.0659  1.6733 -1.7990
   34DOPE  H12Y 4367   2.117   4.533  13.773 -0.8829  0.3277 -0.2401
   34DOPE  C313 4368   2.148   4.314  13.787  0.4696 -0.6071  0.4523
   34DOPE  H13X 4369   2.250   4.292  13.750  1.9077  1.5764  2.8381
   34DOPE  H13Y 4370   2.159   4.338  13.895  2.3977 -0.3400  0.2159
   34DOPE  C314 4371   2.066   4.194  13.753 -0.7749  0.0371  0.2660
   34DOPE  H14X 4372   2.054   4.186  13.643 -0.9486  3.1188 -0.0297
   34DOPE  H14Y 4373   1.959   4.195  13.784 -1.6277  1.0196 -2.4010
   34DOPE  C315 4374   2.135   4.079  13.829  0.2797  0.6535 -0.0020
   34DOPE  H15X 4375   2.114   4.086  13.938  0.1231 -4.4375  0.5290
   34DOPE  H15Y 4376   2.245   4.086  13.819  0.4298  0.4606  1.3616
   34DOPE  C316 4377   2.087   3.938  13.778 -0.3601  0.4415 -0.7327
   34DOPE  H16X 4378   2.118   3.934  13.671  1.6278  1.7767 -0.2676
   34DOPE  H16Y 4379   1.977   3.940  13.794 -0.2992 -0.1104 -0.2468
   34DOPE  C317 4380   2.144   3.815  13.855  0.1360 -0.1563 -0.1222
   34DOPE  H17X 4381   2.250   3.816  13.823 -0.5052 -0.6473 -2.4582
   34DOPE  H17Y 4382   2.135   3.824  13.966 -1.1220 -0.1343 -0.2120
   34DOPE  C318 4383   2.089   3.681  13.821 -0.0363 -0.0186  0.9102
   34DOPE  H18X 4384   1.978   3.688  13.825  0.0139  0.5523  1.3698
   34DOPE  H18Y 4385   2.113   3.667  13.713 -1.8720 -1.2120  0.6113
   34DOPE  H18Z 4386   2.134   3.600  13.882 -0.1286 -0.8809 -0.1398
   35DOPE     N 4387   6.239   2.262  12.997  0.3296  0.6231  0.5661
   35DOPE   HN1 4388   6.323   2.208  13.027 -0.3907 -1.2038 -0.5350
   35DOPE   HN2 4389   6.231   2.334  13.072  1.4909  0.7738  0.5604
   35DOPE   HN3 4390   6.162   2.193  13.007  1.3680 -0.5310  0.8118
   35DOPE   C12 4391   6.265   2.322  12.857 -0.2190 -0.5986 -0.7311
   35DOPE  H12A 4392   6.331   2.409  12.873 -0.3503 -0.8830  1.6932
   35DOPE  H12B 4393   6.168   2.364  12.824 -0.6049 -1.0718 -0.2170
   35DOPE   C11 4394   6.320   2.215  12.764  0.5206 -0.0862  0.0172
   35DOPE  H11A 4395   6.396   2.160  12.823  0.6480  1.7730  1.6936
   35DOPE  H11B 4396   6.371   2.272  12.684 -0.3794  2.6077  1.2248
   35DOPE     P 4397   6.237   2.023  12.602  0.1634 -0.0615 -0.2528
   35DOPE   O13 4398   6.379   2.001  12.588  0.1477 -0.0375 -0.5076
   35DOPE   O14 4399   6.164   2.075  12.487  0.4344  0.3805  0.3415
   35DOPE   O11 4400   6.170   1.887  12.654 -0.6228  0.1101  0.1643
   35DOPE   O12 4401   6.211   2.127  12.720 -0.4797  0.3494 -0.7327
   35DOPE    C1 4402   6.150   1.865  12.799 -0.1482 -0.0902  0.5824
   35DOPE    HA 4403   6.091   1.773  12.818 -1.8007  1.1614  1.8848
   35DOPE    HB 4404   6.083   1.946  12.836  0.4474  1.8473 -2.2183
   35DOPE    C2 4405   6.279   1.848  12.884 -0.6318 -0.3972 -0.7026
   35DOPE    HS 4406   6.355   1.922  12.850 -0.4548 -0.2685 -0.0492
   35DOPE   O21 4407   6.316   1.709  12.850  0.7107 -0.2128  0.1006
   35DOPE   C21 4408   6.430   1.679  12.899  0.1383 -0.1149  0.1691
   35DOPE   O22 4409   6.513   1.757  12.948  0.3353  0.3681  0.4083
   35DOPE   C22 4410   6.447   1.523  12.895  0.2214 -0.1049  0.4801
   35DOPE   H2R 4411   6.505   1.501  12.803 -0.9199 -0.5900 -0.1338
   35DOPE   H2S 4412   6.347   1.477  12.879  1.1756 -1.2772 -2.8128
   35DOPE    C3 4413   6.250   1.865  13.038 -0.0043 -0.8463 -0.6705
   35DOPE    HX 4414   6.211   1.968  13.052 -1.6630 -1.5221 -0.1553
   35DOPE    HY 4415   6.346   1.863  13.095  0.1704 -0.3027 -0.9364
   35DOPE   O31 4416   6.154   1.772  13.088 -1.1918  0.2880 -0.2555
   35DOPE   C31 4417   6.124   1.797  13.214  0.4639 -0.5011 -0.1890
   35DOPE   O32 4418   6.134   1.904  13.271 -0.2847 -0.5994  0.0243
   35DOPE   C32 4419   6.079   1.665  13.279  0.3992 -0.1994  0.1896
   35DOPE   H2X 4420   6.009   1.619  13.206 -0.3031  1.3829 -0.1696
   35DOPE   H2Y 4421   6.170   1.602  13.291  0.0097 -0.7585  0.2521
   35DOPE   C23 4422   6.521   1.465  13.018  0.5189 -0.7986 -0.0994
   35DOPE   H3R 4423   6.630   1.485  13.020  0.4684 -0.0079 -2.5905
   35DOPE   H3S 4424   6.509   1.354  13.016  0.3556 -0.7746 -0.6068
   35DOPE   C24 4425   6.452   1.502  13.157 -0.2651 -0.5737 -0.0297
   35DOPE   H4R 4426   6.346   1.473  13.150 -0.3598 -0.9846  2.4110
   35DOPE   H4S 4427   6.458   1.613  13.166 -0.6766 -0.5536 -0.0026
   35DOPE   C25 4428   6.523   1.436  13.276  0.2922  0.1351  0.7661
   35DOPE   H5R 4429   6.623   1.483  13.285 -0.6467  2.1726  0.9157
   35DOPE   H5S 4430   6.526   1.325  13.272  0.3289  0.1542 -0.0060
   35DOPE   C26 4431   6.461   1.457  13.419  0.6451  0.3294 -0.3722
   35DOPE   H6R 4432   6.357   1.418  13.410  0.3666  0.7988  0.6492
   35DOPE   H6S 4433   6.469   1.565  13.441  0.5552  0.4792 -1.0545
   35DOPE   C27 4434   6.539   1.393  13.530 -0.1359  0.3267 -0.5282
   35DOPE   H7R 4435   6.644   1.431  13.530 -0.4146  1.1026 -0.6882
   35DOPE   H7S 4436   6.565   1.285  13.525  1.8237  0.6116  1.6496
   35DOPE   C28 4437   6.471   1.420  13.674 -0.8123 -0.0863 -0.1009
   35DOPE   H8R 4438   6.396   1.343  13.700 -0.9047  0.4313  1.2380
   35DOPE   H8S 4439   6.417   1.516  13.661 -1.5378 -0.4417  0.2064
   35DOPE   C29 4440   6.568   1.433  13.789 -0.0860  0.1684 -0.1480
   35DOPE   H9R 4441   6.673   1.418  13.758 -0.4880 -0.5942 -1.1890
   35DOPE  C210 4442   6.542   1.454  13.916  0.4428  0.1957 -1.0071
   35DOPE  H10R 4443   6.619   1.435  13.992  1.5565 -0.8540 -2.3521
   35DOPE  C211 4444   6.398   1.463  13.969  0.1624 -0.0139  0.4325
   35DOPE  H11R 4445   6.321   1.428  13.897  0.1865  0.1037  0.3499
   35DOPE  H11S 4446   6.365   1.567  13.989 -0.7994 -0.3581  0.6751
   35DOPE  C212 4447   6.373   1.374  14.099  0.1006 -0.2544 -0.3154
   35DOPE  H12R 4448   6.407   1.270  14.084  0.4306 -0.3957  1.2747
   35DOPE  H12S 4449   6.262   1.378  14.108 -0.0077 -1.2952 -1.0987
   35DOPE  C213 4450   6.434   1.426  14.225  0.2211  0.1210 -0.5433
   35DOPE  H13R 4451   6.418   1.535  14.235 -0.7468  0.1119 -1.6785
   35DOPE  H13S 4452   6.543   1.405  14.230  0.0737 -0.3253  2.5152
   35DOPE  C214 4453   6.364   1.374  14.361  0.3628  0.1523 -0.2703
   35DOPE  H14R 4454   6.351   1.265  14.372 -1.0495  0.3530  0.2696
   35DOPE  H14S 4455   6.264   1.423  14.360 -0.4437 -1.3764  0.9708
   35DOPE  C215 4456   6.435   1.439  14.475 -0.2751  0.6153  0.8708
   35DOPE  H15R 4457   6.422   1.547  14.456 -2.0715  0.2827  0.0234
   35DOPE  H15S 4458   6.541   1.414  14.452 -0.4572  1.4889 -1.0921
   35DOPE  C216 4459   6.385   1.417  14.617  0.1435 -0.2225  1.2433
   35DOPE  H16R 4460   6.378   1.306  14.622 -0.4162 -0.2332  0.4362
   35DOPE  H16S 4461   6.288   1.470  14.633  0.8291  1.0835  1.2344
   35DOPE  C217 4462   6.479   1.473  14.729  0.7469 -0.1386  0.6115
   35DOPE  H17R 4463   6.480   1.584  14.722 -1.9337  0.3345  4.3251
   35DOPE  H17S 4464   6.581   1.435  14.709  1.9027  2.8966  0.1778
   35DOPE  C218 4465   6.423   1.440  14.865  0.1443 -0.5775  0.1243
   35DOPE  H18R 4466   6.416   1.330  14.871  1.1794 -0.6453  0.3894
   35DOPE  H18S 4467   6.323   1.487  14.877  1.0156  1.4196  0.0575
   35DOPE  H18T 4468   6.494   1.477  14.943  0.4516 -2.3049  0.7143
   35DOPE   C33 4469   6.011   1.694  13.414  0.4433 -0.2823  0.3734
   35DOPE   H3X 4470   5.944   1.782  13.403  0.1907 -0.4585  0.4828
   35DOPE   H3Y 4471   6.080   1.740  13.488  1.0929 -0.1496 -0.2982
   35DOPE   C34 4472   5.959   1.566  13.472 -0.3469  0.1500 -0.0045
   35DOPE   H4X 4473   5.884   1.598  13.548  0.3452  0.7532  0.4351
   35DOPE   H4Y 4474   5.908   1.502  13.398 -1.1709  0.8958 -0.1012
   35DOPE   C35 4475   6.067   1.486  13.546 -0.0334  0.3687 -0.3994
   35DOPE   H5X 4476   6.113   1.556  13.619  1.4242 -1.0177  0.0864
   35DOPE   H5Y 4477   6.154   1.460  13.481 -0.6147  0.1137 -1.0927
   35DOPE   C36 4478   6.022   1.361  13.628  0.3745  0.1122  0.2595
   35DOPE   H6X 4479   6.103   1.318  13.691 -0.9132  0.1256  2.0242
   35DOPE   H6Y 4480   6.000   1.277  13.559 -3.1228  0.6576  0.5059
   35DOPE   C37 4481   5.902   1.389  13.728  0.1556 -0.0187 -0.0901
   35DOPE   H7X 4482   5.935   1.455  13.811  0.8448  0.0546 -0.4068
   35DOPE   H7Y 4483   5.815   1.432  13.675  0.5503  0.1634 -0.5971
   35DOPE   C38 4484   5.845   1.257  13.798  0.1619 -0.5091  0.6002
   35DOPE   H8X 4485   5.801   1.197  13.715 -0.6076 -0.2149  0.7829
   35DOPE   H8Y 4486   5.762   1.298  13.859 -1.3105 -3.3483  0.6474
   35DOPE   C39 4487   5.935   1.171  13.877 -0.2929  0.1689 -0.5638
   35DOPE   H9X 4488   5.987   1.084  13.833  1.4658  0.6586  0.4329
   35DOPE  C310 4489   5.978   1.205  13.996 -0.1183 -0.2208 -0.1932
   35DOPE  H10X 4490   6.049   1.143  14.052  0.3055  1.6365  1.4494
   35DOPE  C311 4491   5.923   1.320  14.079  0.5548  0.7877  0.5055
   35DOPE  H11X 4492   6.005   1.382  14.122  0.0858  0.7659  1.4643
   35DOPE  H11Y 4493   5.863   1.386  14.013  1.2758  0.0588 -0.9127
   35DOPE  C312 4494   5.826   1.271  14.199  0.3166 -0.2760  0.4017
   35DOPE  H12X 4495   5.725   1.258  14.155 -0.1610 -0.0404  1.3984
   35DOPE  H12Y 4496   5.825   1.362  14.262  0.0960  0.8716 -1.2073
   35DOPE  C313 4497   5.869   1.149  14.277 -0.1871  0.4726  0.4114
   35DOPE  H13X 4498   5.875   1.059  14.213 -1.1242  0.0395  0.9053
   35DOPE  H13Y 4499   5.970   1.175  14.315  0.8501 -2.1585 -0.3543
   35DOPE  C314 4500   5.787   1.111  14.399 -0.6237  0.7507  0.2021
   35DOPE  H14X 4501   5.852   1.033  14.443  1.4531  1.9880 -0.4970
   35DOPE  H14Y 4502   5.691   1.076  14.356 -1.2271  2.6466 -0.0839
   35DOPE  C315 4503   5.752   1.221  14.495  0.4960  0.1111  0.3907
   35DOPE  H15X 4504   5.703   1.307  14.445 -2.3279 -0.9096  1.2460
   35DOPE  H15Y 4505   5.846   1.265  14.534  1.2813 -1.4055  0.2897
   35DOPE  C316 4506   5.671   1.179  14.616  0.1683 -0.3984  0.1711
   35DOPE  H16X 4507   5.720   1.090  14.660  0.1535 -0.2635  0.4612
   35DOPE  H16Y 4508   5.568   1.150  14.586 -0.2104 -0.1347  1.1890
   35DOPE  C317 4509   5.661   1.292  14.719  0.1462 -0.5043 -0.6838
   35DOPE  H17X 4510   5.759   1.329  14.756  1.1915 -2.2112 -1.6171
   35DOPE  H17Y 4511   5.599   1.374  14.679 -0.2965 -0.1928  0.5805
   35DOPE  C318 4512   5.569   1.254  14.835 -0.3824  0.3882 -0.2123
   35DOPE  H18X 4513   5.476   1.209  14.793 -0.1347  1.2741 -1.7930
   35DOPE  H18Y 4514   5.616   1.170  14.891  4.3464  2.4835 -0.5785
   35DOPE  H18Z 4515   5.546   1.338  14.904  0.1820  1.5145 -1.3456
   36DOPE     N 4516   5.001   2.517  13.099 -0.7776 -0.2266  0.4560
   36DOPE   HN1 4517   5.072   2.536  13.172  1.7190 -3.0889 -1.0017
   36DOPE   HN2 4518   4.946   2.437  13.135 -0.2845 -1.4781 -1.4336
   36DOPE   HN3 4519   5.044   2.475  13.014 -0.6164 -0.3582  0.6010
   36DOPE   C12 4520   4.914   2.631  13.075  0.6615  0.7437 -0.3635
   36DOPE  H12A 4521   4.853   2.616  12.983  0.3143  0.3953 -0.0807
   36DOPE  H12B 4522   4.977   2.723  13.079  0.5481  0.8479 -0.8769
   36DOPE   C11 4523   4.810   2.652  13.192  0.2919  0.1270 -0.1235
   36DOPE  H11A 4524   4.755   2.746  13.171 -0.0842 -0.2781 -1.0486
   36DOPE  H11B 4525   4.864   2.671  13.286 -1.9302  1.9109  0.9035
   36DOPE     P 4526   4.595   2.513  13.100 -0.0373 -0.0829 -0.1824
   36DOPE   O13 4527   4.510   2.408  13.152 -0.2389  0.1413 -0.6721
   36DOPE   O14 4528   4.651   2.491  12.967 -0.0258 -0.1852 -0.2463
   36DOPE   O11 4529   4.507   2.641  13.092  0.6341 -0.4478  0.4421
   36DOPE   O12 4530   4.710   2.546  13.205  0.1453 -0.7418 -0.1705
   36DOPE    C1 4531   4.423   2.687  13.192  0.4208 -0.5737 -0.3065
   36DOPE    HA 4532   4.400   2.610  13.270 -0.2622 -0.0077  0.0682
   36DOPE    HB 4533   4.323   2.700  13.147  0.9991 -2.5587 -2.3293
   36DOPE    C2 4534   4.467   2.824  13.260  0.3677 -0.0687  0.4009
   36DOPE    HS 4535   4.501   2.891  13.178 -0.5647 -0.5520 -0.4051
   36DOPE   O21 4536   4.568   2.806  13.353 -0.1262  0.5336  0.0444
   36DOPE   C21 4537   4.631   2.916  13.394  0.3827  0.4554 -0.5692
   36DOPE   O22 4538   4.611   3.030  13.357  0.1076  0.1497 -0.0313
   36DOPE   C22 4539   4.732   2.884  13.506 -0.2983  0.2767  0.4456
   36DOPE   H2R 4540   4.752   2.776  13.492  1.0037  0.4012  1.1659
   36DOPE   H2S 4541   4.699   2.923  13.605  0.0608  0.8673  0.3400
   36DOPE    C3 4542   4.334   2.868  13.333  0.7070  0.0472 -0.7858
   36DOPE    HX 4543   4.246   2.865  13.266 -0.6574  2.2645  0.7638
   36DOPE    HY 4544   4.336   2.976  13.360 -1.5402 -0.1958  0.6559
   36DOPE   O31 4545   4.301   2.783  13.447  0.5321 -1.0426 -0.1294
   36DOPE   C31 4546   4.347   2.820  13.560 -0.7663  0.4036  0.0801
   36DOPE   O32 4547   4.410   2.921  13.580 -0.7115 -0.2996 -0.0319
   36DOPE   C32 4548   4.301   2.735  13.676 -0.4406  0.2002  0.0881
   36DOPE   H2X 4549   4.198   2.771  13.702 -1.2488 -1.6279 -0.4579
   36DOPE   H2Y 4550   4.305   2.628  13.649 -2.4185 -0.0911  0.7788
   36DOPE   C23 4551   4.867   2.951  13.485  0.1306  0.5118 -0.0739
   36DOPE   H3R 4552   4.861   3.060  13.504  1.8755  0.7032 -0.4640
   36DOPE   H3S 4553   4.877   2.942  13.374 -0.7057 -0.2230 -0.1056
   36DOPE   C24 4554   4.982   2.905  13.572  0.3046  0.2779 -0.1954
   36DOPE   H4R 4555   4.957   2.953  13.669  0.7346 -0.3206  0.2188
   36DOPE   H4S 4556   5.077   2.951  13.539  2.0758 -2.6713  0.4037
   36DOPE   C25 4557   5.008   2.756  13.572  0.8250 -0.1343 -0.6865
   36DOPE   H5R 4558   5.028   2.722  13.468  0.8082  0.0698 -0.7578
   36DOPE   H5S 4559   4.925   2.693  13.608  1.0939  0.8358  1.8320
   36DOPE   C26 4560   5.123   2.716  13.667  0.0100 -0.5971  0.6962
   36DOPE   H6R 4561   5.113   2.746  13.774  1.0573  1.9330  0.1578
   36DOPE   H6S 4562   5.209   2.778  13.635  0.2850 -1.5384 -0.4413
   36DOPE   C27 4563   5.157   2.563  13.655  0.3494 -0.2605  0.0961
   36DOPE   H7R 4564   5.267   2.547  13.650  0.3014 -0.4299 -0.6526
   36DOPE   H7S 4565   5.120   2.531  13.555  2.3918 -1.0261 -0.4623
   36DOPE   C28 4566   5.098   2.468  13.759  0.2121  0.0827 -0.0077
   36DOPE   H8R 4567   4.988   2.486  13.761  0.2465  0.5140 -1.1599
   36DOPE   H8S 4568   5.130   2.492  13.862 -0.2390 -1.7954  0.6036
   36DOPE   C29 4569   5.129   2.320  13.736  0.6398  0.1357 -0.0065
   36DOPE   H9R 4570   5.057   2.278  13.665 -0.1317  2.5442 -0.7657
   36DOPE  C210 4571   5.229   2.243  13.784 -0.1886 -0.7968 -0.2940
   36DOPE  H10R 4572   5.237   2.147  13.730  1.0172 -0.1050 -1.4021
   36DOPE  C211 4573   5.356   2.301  13.845 -0.3406 -0.1905  0.5704
   36DOPE  H11R 4574   5.367   2.254  13.944 -1.2462  1.0195  1.2838
   36DOPE  H11S 4575   5.344   2.410  13.862  1.3284  0.5152 -2.0794
   36DOPE  C212 4576   5.480   2.283  13.766  0.1222 -0.6415  0.8830
   36DOPE  H12R 4577   5.466   2.317  13.661  3.1116  0.8123  0.8530
   36DOPE  H12S 4578   5.506   2.175  13.775 -0.0345 -0.8845 -1.1835
   36DOPE  C213 4579   5.606   2.332  13.837  0.8329  0.0301 -0.5366
   36DOPE  H13R 4580   5.681   2.266  13.789 -0.7922 -1.7455 -0.7641
   36DOPE  H13S 4581   5.609   2.307  13.945  1.9242 -1.0561 -0.7906
   36DOPE  C214 4582   5.626   2.479  13.804 -0.2924  0.0506  0.0740
   36DOPE  H14R 4583   5.571   2.547  13.873 -0.0642 -0.7020  1.0225
   36DOPE  H14S 4584   5.583   2.496  13.703  2.9337 -1.1608 -1.6451
   36DOPE  C215 4585   5.766   2.517  13.818 -0.3241  0.8602 -0.2416
   36DOPE  H15R 4586   5.832   2.448  13.762  1.6929  1.1892  1.5627
   36DOPE  H15S 4587   5.798   2.501  13.924 -3.4425 -0.4326  0.6090
   36DOPE  C216 4588   5.801   2.667  13.783  0.6161  0.5635 -0.3153
   36DOPE  H16R 4589   5.758   2.683  13.682 -0.3889 -1.1578 -0.1984
   36DOPE  H16S 4590   5.910   2.685  13.768  0.1066  3.3953 -1.1484
   36DOPE  C217 4591   5.737   2.760  13.879  0.0986  0.3574 -0.6719
   36DOPE  H17R 4592   5.777   2.752  13.982 -0.6663  0.1328 -0.3868
   36DOPE  H17S 4593   5.631   2.729  13.894  0.5268 -0.2113  1.5006
   36DOPE  C218 4594   5.758   2.908  13.833  0.4909  0.4092  0.0839
   36DOPE  H18R 4595   5.865   2.939  13.838 -0.0407  2.1835  1.6822
   36DOPE  H18S 4596   5.698   2.975  13.898  0.5427 -1.0042  1.6631
   36DOPE  H18T 4597   5.738   2.924  13.725 -1.2687  0.7193  0.4278
   36DOPE   C33 4598   4.389   2.767  13.798 -0.5300  0.8382  0.1914
   36DOPE   H3X 4599   4.348   2.707  13.882 -0.1510  0.9265  0.4396
   36DOPE   H3Y 4600   4.378   2.875  13.820  1.0520  1.5233 -2.0884
   36DOPE   C34 4601   4.536   2.714  13.788  0.4598 -0.1331 -0.0882
   36DOPE   H4X 4602   4.528   2.613  13.743  0.0932  0.7788 -2.1862
   36DOPE   H4Y 4603   4.570   2.770  13.699 -0.1037  1.6955  0.7861
   36DOPE   C35 4604   4.611   2.729  13.920 -0.1351 -0.2118  0.0664
   36DOPE   H5X 4605   4.576   2.657  13.996 -0.9153 -1.7998 -1.7142
   36DOPE   H5Y 4606   4.607   2.834  13.958  0.5826  0.1057 -0.7069
   36DOPE   C36 4607   4.760   2.712  13.897 -0.1191 -0.2862 -0.7416
   36DOPE   H6X 4608   4.793   2.789  13.823 -0.5043 -0.6102 -1.2569
   36DOPE   H6Y 4609   4.778   2.610  13.857  0.4120 -0.8138  0.7807
   36DOPE   C37 4610   4.842   2.734  14.027 -0.1709 -0.9896  0.3487
   36DOPE   H7X 4611   4.795   2.669  14.105 -2.5114 -1.9495 -1.7495
   36DOPE   H7Y 4612   4.947   2.700  14.014 -0.3164 -2.3405  2.2275
   36DOPE   C38 4613   4.837   2.880  14.081  0.2065  0.3607  0.1278
   36DOPE   H8X 4614   4.882   2.883  14.182 -2.1385  1.6561  1.2113
   36DOPE   H8Y 4615   4.729   2.907  14.094 -0.5919 -2.1533 -0.7335
   36DOPE   C39 4616   4.908   2.982  13.997 -0.1939 -0.2673  0.5249
   36DOPE   H9X 4617   5.014   2.958  13.983 -0.8154 -1.8941 -2.2686
   36DOPE  C310 4618   4.850   3.082  13.924 -0.4151 -0.4216  0.2697
   36DOPE  H10X 4619   4.924   3.142  13.869 -1.3402 -1.0375 -1.7452
   36DOPE  C311 4620   4.703   3.116  13.934 -0.3640  0.1714  0.2642
   36DOPE  H11X 4621   4.649   3.019  13.923  0.1889 -0.0542 -0.5747
   36DOPE  H11Y 4622   4.683   3.154  14.036  0.8880  0.3068  0.4751
   36DOPE  C312 4623   4.640   3.202  13.818  0.1015 -0.1802 -0.4924
   36DOPE  H12X 4624   4.693   3.180  13.723 -1.3416  1.4796 -1.7504
   36DOPE  H12Y 4625   4.658   3.309  13.845 -0.6699  0.0780 -0.9673
   36DOPE  C313 4626   4.483   3.188  13.802  0.1218 -0.0480 -0.1606
   36DOPE  H13X 4627   4.445   3.271  13.738  0.1673 -0.3909 -0.6343
   36DOPE  H13Y 4628   4.463   3.094  13.745 -1.1029 -0.5330  1.0292
   36DOPE  C314 4629   4.402   3.163  13.931 -0.5415 -0.5840 -0.0451
   36DOPE  H14X 4630   4.426   3.239  14.008  0.7385 -0.8646 -0.1526
   36DOPE  H14Y 4631   4.450   3.069  13.967  0.6713  0.2377  0.5390
   36DOPE  C315 4632   4.256   3.144  13.908 -0.3965 -0.4127  0.1388
   36DOPE  H15X 4633   4.232   3.069  13.829 -0.3421 -0.7057  0.3990
   36DOPE  H15Y 4634   4.209   3.235  13.864 -2.5042 -0.8418  1.3610
   36DOPE  C316 4635   4.189   3.114  14.042  0.1376 -0.4877 -0.2705
   36DOPE  H16X 4636   4.174   3.208  14.100  0.4151  0.6267 -1.9181
   36DOPE  H16Y 4637   4.252   3.057  14.114  2.5627  1.6786 -0.5209
   36DOPE  C317 4638   4.051   3.043  14.023  0.0866 -0.2590  0.7346
   36DOPE  H17X 4639   3.994   3.109  13.955  0.0281 -0.3780  0.6685
   36DOPE  H17Y 4640   4.058   2.945  13.971  1.8051 -0.2205  0.8371
   36DOPE  C318 4641   3.967   3.036  14.146  0.1422  0.4284 -0.1207
   36DOPE  H18X 4642   3.879   2.972  14.126  1.6737 -1.6540 -0.4550
   36DOPE  H18Y 4643   4.027   2.984  14.224 -0.2018 -0.1704 -0.2539
   36DOPE  H18Z 4644   3.927   3.135  14.178 -4.1346  0.2785 -3.9731
   37DOPE     N 4645   2.969   1.748  13.013 -0.2953  0.3769 -0.0871
   37DOPE   HN1 4646   2.903   1.697  12.951  1.3802  2.1338 -3.6602
   37DOPE   HN2 4647   2.910   1.805  13.077 -1.9920 -2.5915  1.1846
   37DOPE   HN3 4648   3.027   1.810  12.952  2.1557  0.8513  2.5418
   37DOPE   C12 4649   3.039   1.644  13.090  0.0408 -0.7942 -0.1879
   37DOPE  H12A 4650   2.956   1.583  13.131 -0.4340  0.4860  0.8348
   37DOPE  H12B 4651   3.105   1.681  13.172 -1.8292  0.0277  1.0067
   37DOPE   C11 4652   3.097   1.544  12.995 -0.5331  0.6115 -0.4680
   37DOPE  H11A 4653   3.143   1.463  13.056 -0.3821  1.3871  0.4730
   37DOPE  H11B 4654   3.187   1.589  12.947 -3.0947  5.0112 -1.6957
   37DOPE     P 4655   3.010   1.358  12.839  0.2890 -0.4130  0.1992
   37DOPE   O13 4656   3.139   1.363  12.772 -0.3968  0.1057  0.1480
   37DOPE   O14 4657   2.890   1.330  12.759  0.0847 -0.0050  0.4914
   37DOPE   O11 4658   3.020   1.263  12.963  0.2021  0.2964  0.3348
   37DOPE   O12 4659   3.004   1.502  12.901 -0.5911  0.0718 -0.0651
   37DOPE    C1 4660   2.919   1.238  13.060  0.2966 -0.1779 -0.1960
   37DOPE    HA 4661   2.817   1.240  13.017 -0.0696 -1.2113  0.6122
   37DOPE    HB 4662   2.929   1.307  13.147  0.7543  0.1649 -0.5135
   37DOPE    C2 4663   2.920   1.083  13.100  0.3208  0.3576  0.1194
   37DOPE    HS 4664   2.837   1.080  13.173  1.1535 -0.2825  1.0755
   37DOPE   O21 4665   3.043   1.040  13.162  0.1388 -0.4760  0.1101
   37DOPE   C21 4666   3.070   1.101  13.276  0.4581 -0.3480 -0.1288
   37DOPE   O22 4667   2.988   1.165  13.342  0.1219 -0.4196  0.3397
   37DOPE   C22 4668   3.224   1.092  13.305 -0.6935  0.1585 -0.0078
   37DOPE   H2R 4669   3.269   1.008  13.249 -1.0487  0.3030 -0.5200
   37DOPE   H2S 4670   3.218   1.067  13.413 -1.7212  1.4011  0.2451
   37DOPE    C3 4671   2.889   0.995  12.983 -0.6233  0.0779  0.2359
   37DOPE    HX 4672   2.984   0.986  12.926 -2.2185 -2.2427 -2.2877
   37DOPE    HY 4673   2.809   1.041  12.922  1.7907  2.5332 -1.3143
   37DOPE   O31 4674   2.853   0.865  13.021 -0.0698 -0.5936  0.0122
   37DOPE   C31 4675   2.733   0.810  12.995  0.1146 -0.1624 -0.1433
   37DOPE   O32 4676   2.632   0.877  12.989  0.6271 -0.8448 -0.4492
   37DOPE   C32 4677   2.737   0.663  13.015 -0.4912 -0.0376 -0.2362
   37DOPE   H2X 4678   2.652   0.623  12.956 -0.0954 -0.7206 -0.3581
   37DOPE   H2Y 4679   2.836   0.631  12.976  0.2604  1.0309  0.7281
   37DOPE   C23 4680   3.299   1.225  13.290  0.5424 -0.5039 -0.4609
   37DOPE   H3R 4681   3.243   1.305  13.343 -2.0658 -2.1197 -0.5830
   37DOPE   H3S 4682   3.293   1.257  13.184 -5.0392 -1.4127 -0.7244
   37DOPE   C24 4683   3.449   1.220  13.337  0.7066 -0.2270  0.1705
   37DOPE   H4R 4684   3.491   1.322  13.327  1.3827 -0.5848 -0.7736
   37DOPE   H4S 4685   3.506   1.161  13.262 -0.8181  0.1525 -1.3402
   37DOPE   C25 4686   3.473   1.165  13.478 -0.3156  0.1819 -0.2579
   37DOPE   H5R 4687   3.458   1.055  13.491  0.8942 -0.1409 -1.3691
   37DOPE   H5S 4688   3.397   1.202  13.550  0.6045  0.5860  0.5255
   37DOPE   C26 4689   3.609   1.204  13.532  0.4003  0.3526  0.1161
   37DOPE   H6R 4690   3.613   1.315  13.544  0.8040  0.6428 -2.2417
   37DOPE   H6S 4691   3.679   1.169  13.453  1.3238  0.0515  1.0515
   37DOPE   C27 4692   3.638   1.129  13.667 -0.4900  0.1554  0.6025
   37DOPE   H7R 4693   3.569   1.043  13.677  0.8039 -0.8366  1.2828
   37DOPE   H7S 4694   3.621   1.191  13.758 -0.5670 -0.0969  0.7607
   37DOPE   C28 4695   3.787   1.075  13.687  0.2508  0.2031 -0.3893
   37DOPE   H8R 4696   3.808   1.030  13.587 -0.2814  0.1724 -0.4941
   37DOPE   H8S 4697   3.788   1.007  13.774  3.0745 -2.5766 -2.3656
   37DOPE   C29 4698   3.891   1.177  13.702  0.2750 -0.4804  0.2764
   37DOPE   H9R 4699   3.878   1.262  13.634  0.8677 -2.5682 -2.6591
   37DOPE  C210 4700   3.994   1.177  13.787 -0.2516  0.7568  0.4332
   37DOPE  H10R 4701   4.057   1.267  13.795  1.6452 -0.2223 -2.0074
   37DOPE  C211 4702   4.018   1.074  13.900 -0.2754 -0.0983 -0.1011
   37DOPE  H11R 4703   4.127   1.064  13.922 -0.6967 -0.2407  2.1340
   37DOPE  H11S 4704   3.986   0.974  13.865 -1.5531  0.1668  0.2794
   37DOPE  C212 4705   3.934   1.111  14.022  0.5290 -0.0161 -0.0777
   37DOPE  H12R 4706   3.827   1.128  13.999  0.1722 -1.7385  0.2526
   37DOPE  H12S 4707   3.978   1.202  14.070  1.2221 -1.1537  1.5289
   37DOPE  C213 4708   3.940   0.993  14.120  0.2060  0.3409 -0.0668
   37DOPE  H13R 4709   4.043   0.963  14.146 -0.0899  1.0264  2.1172
   37DOPE  H13S 4710   3.895   0.903  14.073  1.6191  0.7578 -2.3932
   37DOPE  C214 4711   3.866   1.011  14.252 -0.4621 -0.7111 -0.3805
   37DOPE  H14R 4712   3.832   0.914  14.293  1.9481 -1.7877 -0.7045
   37DOPE  H14S 4713   3.771   1.066  14.243 -0.8152 -0.5179  3.0880
   37DOPE  C215 4714   3.952   1.082  14.357 -0.0287 -0.6976  1.0357
   37DOPE  H15R 4715   4.000   1.176  14.322  1.1842 -0.8779  2.1041
   37DOPE  H15S 4716   4.041   1.017  14.375  0.0490 -1.3616 -1.4641
   37DOPE  C216 4717   3.872   1.090  14.492  0.0456  1.0205  0.2190
   37DOPE  H16R 4718   3.931   1.111  14.584 -1.6474 -1.3574  1.9912
   37DOPE  H16S 4719   3.834   0.989  14.518  0.9569  0.5430 -0.2413
   37DOPE  C217 4720   3.748   1.179  14.499  0.0146 -0.0310 -0.0726
   37DOPE  H17R 4721   3.674   1.146  14.424  1.1115 -0.2706 -1.0717
   37DOPE  H17S 4722   3.777   1.283  14.471  0.2453  0.0373  0.4000
   37DOPE  C218 4723   3.681   1.186  14.637 -0.3315 -0.0283  0.7572
   37DOPE  H18R 4724   3.750   1.203  14.722  1.2322  0.1859 -0.5044
   37DOPE  H18S 4725   3.615   1.098  14.655  0.1249 -0.3024  1.0914
   37DOPE  H18T 4726   3.617   1.276  14.647 -0.2240 -0.0285  1.5039
   37DOPE   C33 4727   2.713   0.621  13.166 -0.3501  0.0463 -0.4436
   37DOPE   H3X 4728   2.685   0.514  13.174 -0.2973  0.1009  0.4970
   37DOPE   H3Y 4729   2.628   0.673  13.214 -0.0706 -0.5586  0.7279
   37DOPE   C34 4730   2.833   0.635  13.262 -0.1368 -0.5803 -0.6949
   37DOPE   H4X 4731   2.912   0.574  13.212  0.6322 -0.7554  0.7041
   37DOPE   H4Y 4732   2.857   0.743  13.271  1.3860 -0.7045 -2.4711
   37DOPE   C35 4733   2.810   0.578  13.399 -0.1931  0.1396  0.2717
   37DOPE   H5X 4734   2.784   0.470  13.395 -0.2626  0.1685 -0.1728
   37DOPE   H5Y 4735   2.730   0.629  13.456  0.1328 -1.0680  1.8856
   37DOPE   C36 4736   2.931   0.581  13.495 -0.1940 -0.4243 -0.4377
   37DOPE   H6X 4737   2.953   0.688  13.514  3.4487 -0.8554 -1.3910
   37DOPE   H6Y 4738   3.012   0.526  13.442  0.4088  1.5938 -1.7675
   37DOPE   C37 4739   2.916   0.521  13.637 -0.1104  1.0658  0.1730
   37DOPE   H7X 4740   2.821   0.547  13.689  0.6988  2.3101  1.0736
   37DOPE   H7Y 4741   2.911   0.410  13.628 -1.2374  1.0451  0.8653
   37DOPE   C38 4742   3.035   0.542  13.731  0.2891  0.0390  0.9685
   37DOPE   H8X 4743   3.132   0.521  13.681 -0.0525 -1.1334  0.7751
   37DOPE   H8Y 4744   3.024   0.473  13.818  0.6793  1.2705  2.0265
   37DOPE   C39 4745   3.057   0.683  13.789  0.5140 -0.3650  0.1635
   37DOPE   H9X 4746   3.013   0.762  13.727  0.1504 -1.7364 -1.4119
   37DOPE  C310 4747   3.117   0.715  13.901 -0.4373 -0.2842 -0.7231
   37DOPE  H10X 4748   3.136   0.823  13.912 -0.0329 -0.4176 -0.0030
   37DOPE  C311 4749   3.180   0.623  13.999  0.2737  0.4514  0.0530
   37DOPE  H11X 4750   3.206   0.524  13.954  0.4412  0.7161 -0.4444
   37DOPE  H11Y 4751   3.283   0.656  14.024  0.5691  0.3961 -1.0055
   37DOPE  C312 4752   3.085   0.586  14.113  1.0784 -0.1388  0.2936
   37DOPE  H12X 4753   2.999   0.537  14.062  1.3127  0.4564 -0.7009
   37DOPE  H12Y 4754   3.059   0.687  14.152 -0.7985 -0.2907 -0.4515
   37DOPE  C313 4755   3.131   0.503  14.235  0.4951  0.0807 -0.0625
   37DOPE  H13X 4756   3.238   0.528  14.254  0.7287  0.9384 -2.1439
   37DOPE  H13Y 4757   3.082   0.551  14.322 -0.4717  0.4409 -0.7855
   37DOPE  C314 4758   3.100   0.354  14.229 -0.0190 -0.7051  0.2908
   37DOPE  H14X 4759   3.165   0.310  14.308  0.8934 -0.2750 -0.1982
   37DOPE  H14Y 4760   3.150   0.316  14.137 -0.3293 -0.1063 -0.1269
   37DOPE  C315 4761   2.958   0.308  14.243 -0.3115  0.6546 -0.3550
   37DOPE  H15X 4762   2.899   0.362  14.166  0.9429  1.4683 -0.7587
   37DOPE  H15Y 4763   2.918   0.341  14.341 -0.5936  0.4530 -0.4003
   37DOPE  C316 4764   2.950   0.156  14.228  1.8230  0.6822 -0.8217
   37DOPE  H16X 4765   3.018   0.121  14.147  3.9045  0.3106  0.9740
   37DOPE  H16Y 4766   2.845   0.124  14.216  1.3937  1.6259  0.2191
   37DOPE  C317 4767   2.993   0.087  14.358 -0.2978  0.2534 -0.3542
   37DOPE  H17X 4768   3.103   0.092  14.368  0.0351 -1.6414 -2.3653
   37DOPE  H17Y 4769   2.946   0.136  14.446 -0.3113  4.2265 -2.3623
   37DOPE  C318 4770   2.938  -0.057  14.357  0.8262 -0.8384 -0.7562
   37DOPE  H18X 4771   2.958  -0.116  14.450 -2.7676 -0.4037  0.4433
   37DOPE  H18Y 4772   2.828  -0.058  14.341  0.5891  0.2574  0.6491
   37DOPE  H18Z 4773   2.980  -0.118  14.274  0.9127  0.4027 -1.6388
   38DOPE     N 4774   5.125   2.999  13.051  0.7877  1.2619  0.1016
   38DOPE   HN1 4775   5.024   2.978  13.066  1.0559  0.1325  0.4404
   38DOPE   HN2 4776   5.164   2.922  12.993  2.0281  2.5293 -0.8132
   38DOPE   HN3 4777   5.165   2.980  13.145 -1.3437 -1.4653  0.6059
   38DOPE   C12 4778   5.161   3.139  13.003 -0.5947 -0.2145  0.2825
   38DOPE  H12A 4779   5.131   3.205  13.087 -0.5486 -2.2702  2.0034
   38DOPE  H12B 4780   5.092   3.158  12.918  0.5551  1.8971 -0.2535
   38DOPE   C11 4781   5.307   3.143  12.959 -0.5685  0.0908  0.7594
   38DOPE  H11A 4782   5.347   3.243  12.931  1.4884 -0.0530  2.8436
   38DOPE  H11B 4783   5.321   3.089  12.863  2.0836 -0.0865  1.1554
   38DOPE     P 4784   5.471   3.163  13.168 -0.4335 -0.0032 -0.0283
   38DOPE   O13 4785   5.565   3.263  13.102 -0.2878  0.1154 -0.3539
   38DOPE   O14 4786   5.535   3.054  13.249  0.1293 -0.5403  0.7876
   38DOPE   O11 4787   5.356   3.231  13.250 -0.2709  0.0193  0.2123
   38DOPE   O12 4788   5.397   3.090  13.053 -0.3469  0.2012  0.0906
   38DOPE    C1 4789   5.355   3.365  13.293  0.2197 -0.2503 -0.5390
   38DOPE    HA 4790   5.249   3.393  13.312 -0.5019 -2.7600 -0.4545
   38DOPE    HB 4791   5.400   3.434  13.219 -1.0862  3.3039  1.7393
   38DOPE    C2 4792   5.421   3.377  13.427 -0.2650 -0.1367 -0.7649
   38DOPE    HS 4793   5.527   3.346  13.415 -0.0558  0.5445 -0.7456
   38DOPE   O21 4794   5.345   3.311  13.531 -0.4568  0.1036 -0.4425
   38DOPE   C21 4795   5.419   3.240  13.617  0.3802 -0.6996  0.7562
   38DOPE   O22 4796   5.538   3.226  13.606 -0.1041  0.2381 -0.4806
   38DOPE   C22 4797   5.332   3.186  13.733 -0.2207 -0.4482  0.1925
   38DOPE   H2R 4798   5.300   3.083  13.707  3.1822 -1.2649 -1.2155
   38DOPE   H2S 4799   5.242   3.250  13.744 -0.6677 -0.9554 -0.4273
   38DOPE    C3 4800   5.421   3.526  13.470  0.3650  0.1035 -0.0761
   38DOPE    HX 4801   5.314   3.545  13.493  0.5441 -0.5058  1.3504
   38DOPE    HY 4802   5.468   3.574  13.381  0.7887  0.6979  0.4557
   38DOPE   O31 4803   5.501   3.535  13.589 -0.5358  0.1415 -0.3110
   38DOPE   C31 4804   5.487   3.644  13.653 -0.0211 -0.6009  0.2237
   38DOPE   O32 4805   5.422   3.742  13.621 -0.2472 -0.1111  0.0637
   38DOPE   C32 4806   5.577   3.637  13.777 -0.0865  0.4423 -0.5979
   38DOPE   H2X 4807   5.630   3.540  13.787 -0.7607  0.2364  1.5073
   38DOPE   H2Y 4808   5.651   3.719  13.769  0.0368  0.1585 -2.9517
   38DOPE   C23 4809   5.398   3.190  13.874  0.0987 -0.8746 -0.1830
   38DOPE   H3R 4810   5.390   3.293  13.915  3.0016 -0.7078  0.1202
   38DOPE   H3S 4811   5.507   3.170  13.872  0.6243  1.7118 -1.4557
   38DOPE   C24 4812   5.335   3.093  13.966  0.4083 -0.3295  0.1208
   38DOPE   H4R 4813   5.228   3.110  13.941  0.6270  0.3444 -0.3840
   38DOPE   H4S 4814   5.348   3.125  14.072 -0.3320 -1.5691  0.6042
   38DOPE   C25 4815   5.371   2.951  13.947  0.8682  0.1604 -0.3975
   38DOPE   H5R 4816   5.481   2.953  13.934  0.7803  3.8161 -1.6409
   38DOPE   H5S 4817   5.344   2.923  13.843  1.1833 -0.6125 -0.2824
   38DOPE   C26 4818   5.313   2.849  14.056  0.6679 -0.0011 -0.1176
   38DOPE   H6R 4819   5.327   2.743  14.023 -0.8760 -0.4634  0.6205
   38DOPE   H6S 4820   5.203   2.867  14.054  0.8524  1.1423 -0.4363
   38DOPE   C27 4821   5.351   2.867  14.201  0.4731  0.3925 -0.3378
   38DOPE   H7R 4822   5.281   2.807  14.263 -0.1433  1.9929  0.5975
   38DOPE   H7S 4823   5.329   2.974  14.224 -0.9402 -0.1847  1.1987
   38DOPE   C28 4824   5.495   2.839  14.230 -0.7562  0.2945 -0.1172
   38DOPE   H8R 4825   5.545   2.933  14.200  0.7204 -0.7434 -1.0577
   38DOPE   H8S 4826   5.522   2.754  14.165 -1.7627  0.0499 -0.2358
   38DOPE   C29 4827   5.544   2.801  14.369 -0.1438  0.2208 -0.5176
   38DOPE   H9R 4828   5.497   2.712  14.414  1.3995  0.2544  1.2796
   38DOPE  C210 4829   5.642   2.860  14.439 -0.2593  0.3263 -0.2876
   38DOPE  H10R 4830   5.646   2.846  14.548  2.8982 -1.6208 -0.5116
   38DOPE  C211 4831   5.736   2.974  14.398 -0.2033  0.1952  0.5353
   38DOPE  H11R 4832   5.713   3.012  14.296  2.2041 -1.7943 -0.8717
   38DOPE  H11S 4833   5.837   2.929  14.390 -0.3815  0.0658 -1.7839
   38DOPE  C212 4834   5.731   3.099  14.489  0.1820 -0.4810  0.4221
   38DOPE  H12R 4835   5.823   3.157  14.471 -0.4509  0.3229 -0.2992
   38DOPE  H12S 4836   5.722   3.075  14.597 -1.4176 -2.8204 -0.1452
   38DOPE  C213 4837   5.602   3.176  14.452  0.2340 -1.0243  0.5738
   38DOPE  H13R 4838   5.523   3.115  14.502  0.6179 -2.3594 -0.3824
   38DOPE  H13S 4839   5.591   3.182  14.342  0.7472  3.6614  0.5920
   38DOPE  C214 4840   5.603   3.326  14.500  0.3970  0.0990  0.6981
   38DOPE  H14R 4841   5.635   3.390  14.415  1.4552 -0.3273  0.7630
   38DOPE  H14S 4842   5.667   3.342  14.589 -1.4544  0.7093  1.9828
   38DOPE  C215 4843   5.461   3.372  14.546 -0.5033 -0.8338  0.0050
   38DOPE  H15R 4844   5.448   3.319  14.643 -1.0338 -0.0839  0.3490
   38DOPE  H15S 4845   5.389   3.334  14.470  0.0638 -2.0338  0.0410
   38DOPE  C216 4846   5.451   3.527  14.576 -0.3147  0.1799 -1.1203
   38DOPE  H16R 4847   5.492   3.580  14.487 -0.9024  0.4683 -1.2211
   38DOPE  H16S 4848   5.517   3.548  14.663  1.5149  1.5984 -2.7435
   38DOPE  C217 4849   5.302   3.554  14.591 -0.3809  0.3627  0.7517
   38DOPE  H17R 4850   5.273   3.482  14.670  0.0574 -0.7103 -0.0355
   38DOPE  H17S 4851   5.248   3.527  14.498  0.7555 -0.4995  0.3251
   38DOPE  C218 4852   5.272   3.696  14.634 -0.6239  0.6382  0.6240
   38DOPE  H18R 4853   5.307   3.757  14.548  0.6019 -0.3526  0.3910
   38DOPE  H18S 4854   5.328   3.720  14.727  1.7353  1.0104 -0.8169
   38DOPE  H18T 4855   5.164   3.722  14.640 -0.4408  2.3808 -2.0579
   38DOPE   C33 4856   5.500   3.651  13.912 -1.0792  0.1079  0.6149
   38DOPE   H3X 4857   5.413   3.582  13.920 -1.3521  0.4719  0.7931
   38DOPE   H3Y 4858   5.476   3.759  13.902 -1.6895 -0.2459 -4.4004
   38DOPE   C34 4859   5.589   3.630  14.033 -0.5062 -0.2910  0.4958
   38DOPE   H4X 4860   5.621   3.525  14.051  2.5880  0.4160 -0.2895
   38DOPE   H4Y 4861   5.686   3.682  14.015 -0.5665  0.0532  1.1637
   38DOPE   C35 4862   5.544   3.702  14.163 -0.4806 -0.4366 -0.2104
   38DOPE   H5X 4863   5.476   3.639  14.224  0.1020  0.8283  1.8295
   38DOPE   H5Y 4864   5.485   3.788  14.126 -2.2916 -1.7382 -0.4787
   38DOPE   C36 4865   5.665   3.747  14.255  0.4343  0.8423  0.6945
   38DOPE   H6X 4866   5.735   3.812  14.199 -0.4937  0.0595 -1.4867
   38DOPE   H6Y 4867   5.715   3.650  14.275  0.3715  0.2834 -1.5915
   38DOPE   C37 4868   5.632   3.832  14.381  0.5552  0.2582 -0.1337
   38DOPE   H7X 4869   5.594   3.931  14.349 -0.5065  0.0070  0.3249
   38DOPE   H7Y 4870   5.542   3.794  14.433 -0.3298  1.7075 -0.5485
   38DOPE   C38 4871   5.749   3.847  14.482  0.3242  0.0267  0.2385
   38DOPE   H8X 4872   5.713   3.923  14.554  0.3421  0.6847 -0.4343
   38DOPE   H8Y 4873   5.837   3.887  14.427  1.5005 -1.1863  1.1616
   38DOPE   C39 4874   5.784   3.718  14.545  0.0844 -0.1129  0.0924
   38DOPE   H9X 4875   5.779   3.632  14.477 -2.6332  2.1490 -2.8955
   38DOPE  C310 4876   5.807   3.696  14.675  0.5907  0.4220 -0.2551
   38DOPE  H10X 4877   5.856   3.603  14.708  0.4618  0.4646  0.0521
   38DOPE  C311 4878   5.769   3.786  14.780 -0.4377 -0.7072 -0.7387
   38DOPE  H11X 4879   5.666   3.821  14.759 -1.0381  0.7826  3.6889
   38DOPE  H11Y 4880   5.771   3.744  14.883  1.5497  2.6476  0.7474
   38DOPE  C312 4881   5.862   3.915  14.809 -0.1994 -0.3438  0.5819
   38DOPE  H12X 4882   5.802   3.996  14.855 -0.9120  0.1141 -1.0940
   38DOPE  H12Y 4883   5.884   3.955  14.708 -0.8707  0.7726  0.8579
   38DOPE  C313 4884   5.990   3.892  14.879 -0.5868  0.1922 -0.2842
   38DOPE  H13X 4885   5.966   3.818  14.959  0.4277 -1.2690 -1.2739
   38DOPE  H13Y 4886   6.070   3.854  14.812 -0.1819  0.8009 -0.1563
   38DOPE  C314 4887   6.048   4.031  14.925 -1.0329 -0.2029  0.2672
   38DOPE  H14X 4888   5.970   4.078  14.988  0.5620  0.4546  1.8281
   38DOPE  H14Y 4889   6.058   4.089  14.830 -0.0660 -1.4648 -0.4350
   38DOPE  C315 4890   6.182   4.031  14.997 -0.2703 -0.0332 -0.9931
   38DOPE  H15X 4891   6.181   3.955  15.078  0.9136  1.6349  0.6547
   38DOPE  H15Y 4892   6.189   4.131  15.046 -0.9767 -0.9266  1.0277
   38DOPE  C316 4893   6.311   4.009  14.918  0.0691  0.0499  0.2105
   38DOPE  H16X 4894   6.326   4.100  14.857  1.2679  0.1999  0.7187
   38DOPE  H16Y 4895   6.290   3.926  14.847 -0.9055 -0.2985  0.8748
   38DOPE  C317 4896   6.442   3.985  15.001  0.3952  0.1531  0.7696
   38DOPE  H17X 4897   6.531   3.999  14.936  1.1159  2.1802  2.0862
   38DOPE  H17Y 4898   6.437   4.054  15.088 -2.4550 -0.5999  1.2975
   38DOPE  C318 4899   6.448   3.851  15.073  0.1814  0.3481 -0.1773
   38DOPE  H18X 4900   6.444   3.765  15.003 -2.9844  1.1894 -1.2034
   38DOPE  H18Y 4901   6.543   3.840  15.130  0.2345  1.0861 -0.1126
   38DOPE  H18Z 4902   6.356   3.836  15.134 -1.3084 -0.0290 -2.4180
   39DOPE     N 4903   2.048   3.062  12.720  0.1175 -0.0065  0.4835
   39DOPE   HN1 4904   2.131   3.107  12.764  0.8050 -0.2257 -0.5556
   39DOPE   HN2 4905   2.058   3.040  12.619 -0.1991 -2.4278  0.9047
   39DOPE   HN3 4906   1.972   3.132  12.713  0.0986 -0.2013 -1.9518
   39DOPE   C12 4907   2.017   2.940  12.801  0.1909  0.4206 -0.1423
   39DOPE  H12A 4908   2.114   2.887  12.815  1.4893  2.5901 -0.4508
   39DOPE  H12B 4909   1.935   2.881  12.755  1.3744 -1.0353 -0.4697
   39DOPE   C11 4910   1.978   2.991  12.944  0.2590 -0.4881  0.2509
   39DOPE  H11A 4911   1.903   3.073  12.948  1.4000  0.5873  0.5772
   39DOPE  H11B 4912   2.068   3.044  12.983  1.8167 -0.7791 -2.6732
   39DOPE     P 4913   2.019   2.794  13.124  0.2085  0.2459  0.0517
   39DOPE   O13 4914   2.149   2.766  13.063  0.0854  0.6297 -0.5024
   39DOPE   O14 4915   1.940   2.673  13.166 -0.0186  0.2998  0.0515
   39DOPE   O11 4916   2.032   2.883  13.248  0.5547 -0.3052 -0.2974
   39DOPE   O12 4917   1.936   2.884  13.025  0.4764 -0.0167  0.1129
   39DOPE    C1 4918   1.922   2.966  13.301  0.3857 -0.2604  0.2184
   39DOPE    HA 4919   1.820   2.929  13.278 -0.2800  2.9759 -2.9444
   39DOPE    HB 4920   1.910   3.056  13.237 -0.1953 -0.7322 -0.3490
   39DOPE    C2 4921   1.940   2.980  13.451 -0.4439 -0.1193  0.2635
   39DOPE    HS 4922   1.855   3.033  13.500  0.1342  0.7647  0.3212
   39DOPE   O21 4923   2.057   3.058  13.483 -0.1280  0.1060  0.5960
   39DOPE   C21 4924   2.048   3.187  13.457  0.7316  0.1410 -0.3206
   39DOPE   O22 4925   1.948   3.245  13.417  0.0864 -0.1172 -0.3362
   39DOPE   C22 4926   2.183   3.257  13.468 -0.3007  0.4588  0.2520
   39DOPE   H2R 4927   2.161   3.365  13.483  0.3981  0.8381 -1.2202
   39DOPE   H2S 4928   2.237   3.255  13.371  0.6534 -0.3578  0.7884
   39DOPE    C3 4929   1.935   2.852  13.522 -0.0137  0.7210 -0.1431
   39DOPE    HX 4930   2.017   2.791  13.478  0.5132 -0.2131  1.9989
   39DOPE    HY 4931   1.841   2.796  13.502  0.9677 -2.3790  2.8362
   39DOPE   O31 4932   1.960   2.887  13.663 -0.1351 -0.2496 -0.6037
   39DOPE   C31 4933   1.910   2.797  13.742  0.4204  0.4098  0.1454
   39DOPE   O32 4934   1.874   2.686  13.709 -0.3102 -0.0755 -0.6006
   39DOPE   C32 4935   1.879   2.862  13.878  0.2121 -0.0365 -0.2655
   39DOPE   H2X 4936   1.966   2.917  13.920  0.1915 -0.3470  0.2016
   39DOPE   H2Y 4937   1.802   2.933  13.842 -0.3913 -0.0271  0.9735
   39DOPE   C23 4938   2.274   3.206  13.585  0.9735 -0.2399 -0.2114
   39DOPE   H3R 4939   2.380   3.230  13.561  0.7340 -1.4415 -2.8293
   39DOPE   H3S 4940   2.270   3.096  13.593 -0.3302 -0.2032 -0.1768
   39DOPE   C24 4941   2.227   3.269  13.716  0.5196  0.2426  0.8633
   39DOPE   H4R 4942   2.128   3.220  13.731  0.7277 -0.8873 -1.0554
   39DOPE   H4S 4943   2.211   3.379  13.706  0.2385  0.0772 -0.7550
   39DOPE   C25 4944   2.320   3.236  13.828 -0.2500  0.6442 -0.3200
   39DOPE   H5R 4945   2.416   3.291  13.819  1.4531 -1.5881  2.5074
   39DOPE   H5S 4946   2.336   3.127  13.812  1.0994  1.0090 -1.6024
   39DOPE   C26 4947   2.242   3.270  13.953 -0.7020 -0.1935 -0.3776
   39DOPE   H6R 4948   2.163   3.191  13.962 -1.6510  0.7619 -0.0456
   39DOPE   H6S 4949   2.182   3.363  13.944  0.0795  1.0474  4.3843
   39DOPE   C27 4950   2.329   3.265  14.085  0.7849 -0.9411 -0.5880
   39DOPE   H7R 4951   2.413   3.336  14.070 -0.0650  0.2976  0.3277
   39DOPE   H7S 4952   2.367   3.164  14.110 -0.5304 -0.9224  1.8456
   39DOPE   C28 4953   2.244   3.303  14.209  0.7113  0.6627  0.0343
   39DOPE   H8R 4954   2.299   3.285  14.304  1.0388  2.6393  0.2677
   39DOPE   H8S 4955   2.150   3.243  14.204 -0.5543  2.6399 -1.1080
   39DOPE   C29 4956   2.206   3.449  14.215  0.5315  0.4203  0.0458
   39DOPE   H9R 4957   2.142   3.485  14.133  1.4984  0.6140 -0.6556
   39DOPE  C210 4958   2.259   3.543  14.294  0.4620  0.1286  0.0400
   39DOPE  H10R 4959   2.207   3.639  14.291 -0.6250 -0.3287  2.4217
   39DOPE  C211 4960   2.365   3.527  14.400  0.1758 -0.5491  0.5460
   39DOPE  H11R 4961   2.431   3.613  14.376  1.0811 -2.1154 -3.4168
   39DOPE  H11S 4962   2.439   3.444  14.393  3.9047  2.4105  1.8364
   39DOPE  C212 4963   2.327   3.537  14.547  0.0531 -0.5113  0.1813
   39DOPE  H12R 4964   2.296   3.641  14.573  0.7952 -0.6206  1.5831
   39DOPE  H12S 4965   2.416   3.510  14.607  0.2451  0.7459  0.4977
   39DOPE  C213 4966   2.207   3.446  14.579 -0.0112 -0.6990 -0.6080
   39DOPE  H13R 4967   2.232   3.349  14.531 -2.0630 -0.0103 -3.3369
   39DOPE  H13S 4968   2.122   3.493  14.525 -1.2018  1.4925  2.8122
   39DOPE  C214 4969   2.182   3.428  14.728  0.9067 -0.4680 -0.0540
   39DOPE  H14R 4970   2.259   3.375  14.789 -0.1488 -0.8833  0.9669
   39DOPE  H14S 4971   2.086   3.373  14.725  0.2692  0.6624 -1.0509
   39DOPE  C215 4972   2.153   3.563  14.799  0.0359  0.0880 -0.0524
   39DOPE  H15R 4973   2.086   3.630  14.742 -0.4453  0.7311  1.2325
   39DOPE  H15S 4974   2.250   3.617  14.799  0.2833 -0.3307  0.7044
   39DOPE  C216 4975   2.119   3.557  14.943  1.0545  0.1700 -0.3094
   39DOPE  H16R 4976   2.140   3.652  14.997 -0.1985  0.3111 -0.0272
   39DOPE  H16S 4977   2.185   3.480  14.986  1.0357 -1.7409 -3.3741
   39DOPE  C217 4978   1.966   3.517  14.960 -0.0210  0.0440 -0.6633
   39DOPE  H17R 4979   1.949   3.412  14.929 -1.4584  0.3241 -0.8677
   39DOPE  H17S 4980   1.887   3.574  14.907 -2.9344 -2.0870  1.1328
   39DOPE  C218 4981   1.925   3.533  15.109  0.5860  0.2417 -0.5478
   39DOPE  H18R 4982   1.921   3.641  15.136 -0.2678  0.1229 -0.1747
   39DOPE  H18S 4983   1.988   3.478  15.182 -0.8863 -1.8157 -0.7366
   39DOPE  H18T 4984   1.817   3.509  15.122  0.2299  2.1360  0.5561
   39DOPE   C33 4985   1.817   2.779  13.987  0.2845  0.8448 -0.0368
   39DOPE   H3X 4986   1.885   2.697  14.017 -0.9354 -0.0296  0.4229
   39DOPE   H3Y 4987   1.728   2.727  13.945  1.9566  0.5691 -3.5846
   39DOPE   C34 4988   1.776   2.869  14.109 -0.1242 -0.3840  0.2761
   39DOPE   H4X 4989   1.863   2.893  14.173  1.3878 -0.7951 -1.5529
   39DOPE   H4Y 4990   1.737   2.965  14.070 -0.6314 -1.3548 -1.7766
   39DOPE   C35 4991   1.680   2.807  14.206  0.7023 -0.3741  0.0115
   39DOPE   H5X 4992   1.705   2.703  14.233  1.8615  0.0494  0.6343
   39DOPE   H5Y 4993   1.575   2.808  14.170 -0.0784 -0.9591  2.1195
   39DOPE   C36 4994   1.672   2.862  14.344 -0.5484 -0.0336 -0.3135
   39DOPE   H6X 4995   1.673   2.973  14.346 -0.3364 -0.0384  0.0630
   39DOPE   H6Y 4996   1.769   2.839  14.395  1.6321  1.5029 -3.4705
   39DOPE   C37 4997   1.549   2.825  14.431 -0.3756 -0.1660  0.5056
   39DOPE   H7X 4998   1.460   2.881  14.394 -0.6552  1.9969  4.0116
   39DOPE   H7Y 4999   1.526   2.716  14.424  0.2182 -0.2598 -0.0315
   39DOPE   C38 5000   1.564   2.852  14.584 -0.0750  0.0554 -0.3111
   39DOPE   H8X 5001   1.645   2.785  14.619  1.1452  1.5158 -0.2661
   39DOPE   H8Y 5002   1.472   2.828  14.641 -1.1328  1.2672 -1.4445
   39DOPE   C39 5003   1.608   2.994  14.606 -0.1014  0.3549 -0.1343
   39DOPE   H9X 5004   1.717   3.009  14.600 -0.1312  0.0164 -2.9902
   39DOPE  C310 5005   1.523   3.094  14.620  0.1075 -0.2602 -0.6611
   39DOPE  H10X 5006   1.567   3.195  14.623  0.4450 -0.3098 -2.5255
   39DOPE  C311 5007   1.371   3.089  14.625 -0.4341  0.1225 -0.5736
   39DOPE  H11X 5008   1.332   3.119  14.526 -0.9165 -1.4406 -0.8878
   39DOPE  H11Y 5009   1.326   2.990  14.650 -1.8220  0.4751 -1.5879
   39DOPE  C312 5010   1.334   3.198  14.729 -0.1984  0.4139 -0.0594
   39DOPE  H12X 5011   1.228   3.187  14.760 -0.8376  0.8541 -1.9313
   39DOPE  H12Y 5012   1.344   3.301  14.690  1.5616  1.1321  2.1368
   39DOPE  C313 5013   1.407   3.174  14.864  0.1254 -0.1105 -0.6493
   39DOPE  H13X 5014   1.419   3.064  14.874  0.3511 -0.1067 -0.8881
   39DOPE  H13Y 5015   1.508   3.218  14.859  0.4650 -0.9719 -1.5996
   39DOPE  C314 5016   1.344   3.234  14.993  0.1023  0.4449 -0.0041
   39DOPE  H14X 5017   1.247   3.181  15.010 -0.4613  0.3867 -2.8984
   39DOPE  H14Y 5018   1.330   3.344  14.984  0.1787  0.4496 -0.0620
   39DOPE  C315 5019   1.434   3.222  15.118  0.0818  0.6350 -0.0891
   39DOPE  H15X 5020   1.395   3.289  15.198 -0.2752  0.1031  0.1887
   39DOPE  H15Y 5021   1.540   3.255  15.108  0.8583  0.2242  4.4372
   39DOPE  C316 5022   1.431   3.081  15.181  0.0002 -0.6439 -0.0909
   39DOPE  H16X 5023   1.470   3.011  15.104 -1.3107 -0.9149 -0.5275
   39DOPE  H16Y 5024   1.326   3.049  15.199  0.7346 -3.0819  0.3337
   39DOPE  C317 5025   1.503   3.079  15.322  0.7154  0.2436  0.0898
   39DOPE  H17X 5026   1.609   3.113  15.320  1.6999 -2.2787  2.6400
   39DOPE  H17Y 5027   1.452   3.145  15.396  0.5707  0.4478 -0.1913
   39DOPE  C318 5028   1.503   2.936  15.382 -0.2213  0.3322  0.5018
   39DOPE  H18X 5029   1.557   2.939  15.479  2.1387 -1.7320 -0.6319
   39DOPE  H18Y 5030   1.400   2.901  15.405  0.6713 -0.6239  3.5730
   39DOPE  H18Z 5031   1.550   2.855  15.322 -0.4041 -0.5183  1.4832
   40DOPE     N 5032   4.335   5.284  12.924 -0.9377 -0.4519 -0.0209
   40DOPE   HN1 5033   4.377   5.217  12.856 -1.4013 -0.8072  0.0407
   40DOPE   HN2 5034   4.318   5.380  12.888  1.9070  0.3467  0.5018
   40DOPE   HN3 5035   4.392   5.280  13.010 -2.9418 -1.0491  1.3587
   40DOPE   C12 5036   4.203   5.218  12.944  0.0204  0.1682  0.9825
   40DOPE  H12A 5037   4.135   5.293  12.899  0.5816  0.7094  1.0230
   40DOPE  H12B 5038   4.173   5.219  13.051 -0.0526 -0.4170  0.9698
   40DOPE   C11 5039   4.195   5.084  12.877 -0.0722 -0.2137  0.1957
   40DOPE  H11A 5040   4.219   5.091  12.769  2.8383 -0.6892  0.7296
   40DOPE  H11B 5041   4.088   5.054  12.877 -1.1259  3.0674 -1.0967
   40DOPE     P 5042   4.419   4.945  12.940  0.0403 -0.1765 -0.2363
   40DOPE   O13 5043   4.494   5.042  12.857  0.2491 -0.4517 -0.0101
   40DOPE   O14 5044   4.420   4.807  12.891 -0.1487 -0.9248  0.2746
   40DOPE   O11 5045   4.464   4.950  13.087 -0.5703 -0.4134 -0.3531
   40DOPE   O12 5046   4.265   4.983  12.950 -0.1891 -0.1948  0.2749
   40DOPE    C1 5047   4.382   4.932  13.207 -0.1246 -0.0253 -0.3218
   40DOPE    HA 5048   4.442   4.872  13.278 -0.9382  0.3851  0.7343
   40DOPE    HB 5049   4.285   4.882  13.188 -0.3638  0.9948 -2.0474
   40DOPE    C2 5050   4.363   5.067  13.283  0.0132  0.0276 -0.2095
   40DOPE    HS 5051   4.302   5.132  13.216  0.4277 -1.6030 -2.2686
   40DOPE   O21 5052   4.490   5.121  13.313  0.0678 -0.4192  0.3751
   40DOPE   C21 5053   4.527   5.228  13.255 -0.5424  0.0860 -0.2933
   40DOPE   O22 5054   4.478   5.282  13.156  0.4123  0.5769  0.2402
   40DOPE   C22 5055   4.647   5.284  13.337  0.9652 -0.5710 -0.1685
   40DOPE   H2R 5056   4.739   5.223  13.325  1.4828  0.0050  0.7195
   40DOPE   H2S 5057   4.613   5.262  13.441  0.3139 -0.4002 -0.3407
   40DOPE    C3 5058   4.271   5.047  13.416 -1.2115 -0.1402  0.8518
   40DOPE    HX 5059   4.319   4.983  13.493  0.3580  0.0732  0.0989
   40DOPE    HY 5060   4.181   5.005  13.368 -0.3314  0.3513 -1.3821
   40DOPE   O31 5061   4.259   5.177  13.467  0.3174 -0.0374 -0.1753
   40DOPE   C31 5062   4.179   5.270  13.410 -0.3505  0.6460 -0.8325
   40DOPE   O32 5063   4.106   5.257  13.312 -0.6712 -0.2456  0.3696
   40DOPE   C32 5064   4.189   5.396  13.486 -0.2932 -0.0568 -0.4223
   40DOPE   H2X 5065   4.297   5.415  13.502 -0.3484 -0.6368  0.7577
   40DOPE   H2Y 5066   4.147   5.476  13.422  1.9040  2.7554  1.4474
   40DOPE   C23 5067   4.665   5.435  13.304 -0.2303 -0.0199 -0.1011
   40DOPE   H3R 5068   4.577   5.492  13.341 -0.4953  1.2048 -2.4219
   40DOPE   H3S 5069   4.665   5.446  13.194 -0.9375  0.1714 -0.0858
   40DOPE   C24 5070   4.778   5.514  13.367  0.4049 -0.4714  0.5514
   40DOPE   H4R 5071   4.791   5.616  13.326  2.4391 -1.7571 -2.3260
   40DOPE   H4S 5072   4.867   5.453  13.339 -0.1403 -1.1564  0.2710
   40DOPE   C25 5073   4.764   5.509  13.524 -0.4285 -0.6555 -0.1762
   40DOPE   H5R 5074   4.750   5.400  13.542 -1.6255 -1.1980 -3.4978
   40DOPE   H5S 5075   4.670   5.562  13.550  0.7854  2.1063 -1.0775
   40DOPE   C26 5076   4.882   5.568  13.596 -0.5050 -0.5725  0.2565
   40DOPE   H6R 5077   4.973   5.518  13.557  0.1847  0.4354  0.5297
   40DOPE   H6S 5078   4.863   5.544  13.703  0.6006 -1.3693  0.2870
   40DOPE   C27 5079   4.897   5.722  13.589 -0.1782  0.8808 -0.6510
   40DOPE   H7R 5080   4.883   5.757  13.485 -1.6234  1.9397 -0.1198
   40DOPE   H7S 5081   4.997   5.747  13.633 -0.7962  1.3933  0.5110
   40DOPE   C28 5082   4.798   5.796  13.685 -0.7630  0.2241  0.3049
   40DOPE   H8R 5083   4.839   5.796  13.788  1.7886 -0.1511 -0.6496
   40DOPE   H8S 5084   4.708   5.731  13.697 -0.6101  0.3155  2.4025
   40DOPE   C29 5085   4.767   5.940  13.642 -0.4948  0.3532  0.2548
   40DOPE   H9R 5086   4.811   5.964  13.544  0.4941 -0.7333  0.4104
   40DOPE  C210 5087   4.695   6.027  13.710  0.3149 -0.7896  1.5095
   40DOPE  H10R 5088   4.675   6.131  13.680 -2.1159 -1.6291 -0.0660
   40DOPE  C211 5089   4.644   6.001  13.852  0.0076 -0.2197  0.0641
   40DOPE  H11R 5090   4.673   5.902  13.891 -1.9286 -0.4466  1.0500
   40DOPE  H11S 5091   4.535   6.006  13.834 -0.4075  0.1285  2.3190
   40DOPE  C212 5092   4.671   6.122  13.953  0.4873  0.5708  0.0769
   40DOPE  H12R 5093   4.613   6.211  13.921 -1.4926  0.2325  2.4618
   40DOPE  H12S 5094   4.780   6.134  13.935  1.1354 -2.0567  1.7102
   40DOPE  C213 5095   4.627   6.094  14.088 -0.1087  0.3516 -0.6856
   40DOPE  H13R 5096   4.682   6.004  14.123 -0.7281 -0.3484 -1.4739
   40DOPE  H13S 5097   4.525   6.051  14.097  1.4505 -3.4011  1.6808
   40DOPE  C214 5098   4.642   6.216  14.191 -0.0961  0.4253 -0.2313
   40DOPE  H14R 5099   4.578   6.299  14.154 -0.4421 -0.0902 -0.8176
   40DOPE  H14S 5100   4.745   6.257  14.195  0.9463 -2.0961  1.8826
   40DOPE  C215 5101   4.610   6.189  14.341 -0.4548 -0.2791  0.0111
   40DOPE  H15R 5102   4.514   6.133  14.344 -0.0396 -1.0664 -0.6350
   40DOPE  H15S 5103   4.589   6.279  14.402  0.6969 -1.2050  1.8472
   40DOPE  C216 5104   4.723   6.120  14.415 -0.0866 -0.9809  0.0432
   40DOPE  H16R 5105   4.821   6.136  14.365  1.0882 -3.1204  1.4997
   40DOPE  H16S 5106   4.711   6.009  14.414 -1.0757 -0.8942  0.8892
   40DOPE  C217 5107   4.728   6.152  14.570 -0.2172 -0.0431 -0.2554
   40DOPE  H17R 5108   4.626   6.129  14.608  0.1054 -2.1920 -0.5595
   40DOPE  H17S 5109   4.762   6.257  14.579 -1.8785  0.7228 -2.3096
   40DOPE  C218 5110   4.835   6.066  14.632 -1.0624 -0.0623 -0.3460
   40DOPE  H18R 5111   4.923   6.048  14.567 -1.7437 -1.5753 -0.9101
   40DOPE  H18S 5112   4.797   5.962  14.648  1.0410 -0.5999  1.6969
   40DOPE  H18T 5113   4.858   6.103  14.733 -1.0697  0.0439 -0.3833
   40DOPE   C33 5114   4.102   5.392  13.614  0.0997  0.2559  0.4649
   40DOPE   H3X 5115   4.004   5.343  13.594  0.3348 -0.2297  0.4914
   40DOPE   H3Y 5116   4.078   5.493  13.653 -0.5562  0.2168  0.1800
   40DOPE   C34 5117   4.178   5.316  13.722 -0.3602  0.4651 -0.3883
   40DOPE   H4X 5118   4.182   5.209  13.692 -1.0854  0.7796 -1.6536
   40DOPE   H4Y 5119   4.285   5.346  13.724 -0.2882  0.2276 -0.6747
   40DOPE   C35 5120   4.116   5.326  13.863 -0.7455 -0.2606 -0.1147
   40DOPE   H5X 5121   4.011   5.292  13.865 -1.6236  2.1563 -1.2097
   40DOPE   H5Y 5122   4.104   5.435  13.877 -2.5021 -0.6594  1.8159
   40DOPE   C36 5123   4.214   5.276  13.971  0.0610 -0.0496  0.6313
   40DOPE   H6X 5124   4.312   5.324  13.950  0.8706 -1.1517  1.7414
   40DOPE   H6Y 5125   4.207   5.166  13.959 -1.1807  0.0317  0.4902
   40DOPE   C37 5126   4.156   5.321  14.112  0.2261  0.9378  0.2572
   40DOPE   H7X 5127   4.155   5.432  14.114 -0.0523  0.9442 -0.0928
   40DOPE   H7Y 5128   4.055   5.285  14.142  0.8026 -0.7194  0.2862
   40DOPE   C38 5129   4.247   5.285  14.228  0.1814 -0.1137  0.2088
   40DOPE   H8X 5130   4.232   5.342  14.322 -0.2079 -0.0887  0.1310
   40DOPE   H8Y 5131   4.345   5.305  14.180 -0.7369  0.4150 -1.4953
   40DOPE   C39 5132   4.245   5.137  14.259  0.3562  0.6185  0.5937
   40DOPE   H9X 5133   4.206   5.081  14.172  2.5461 -2.1657  1.2698
   40DOPE  C310 5134   4.297   5.064  14.362  0.3839 -0.4718  0.4224
   40DOPE  H10X 5135   4.285   4.955  14.367  0.8861 -0.4619  2.4683
   40DOPE  C311 5136   4.384   5.133  14.468 -0.3807  0.2019 -0.2839
   40DOPE  H11X 5137   4.478   5.169  14.420  0.3746  0.4688  1.3574
   40DOPE  H11Y 5138   4.336   5.227  14.502 -0.8585 -0.5060  1.0463
   40DOPE  C312 5139   4.426   5.041  14.580 -0.0523  0.1052  0.2861
   40DOPE  H12X 5140   4.498   5.091  14.648 -1.1881  1.7957  0.3214
   40DOPE  H12Y 5141   4.474   4.946  14.549 -1.6279 -0.5436 -0.3046
   40DOPE  C313 5142   4.304   5.007  14.667  0.1359  0.4654 -0.2616
   40DOPE  H13X 5143   4.267   5.105  14.705 -1.6104 -1.0733  2.2949
   40DOPE  H13Y 5144   4.230   4.953  14.605  0.9437 -0.2135 -0.6569
   40DOPE  C314 5145   4.340   4.914  14.777 -0.0563 -0.2745  0.1292
   40DOPE  H14X 5146   4.436   4.950  14.822  0.2630 -1.9162  0.8097
   40DOPE  H14Y 5147   4.354   4.815  14.729  1.4994  0.6204 -1.4011
   40DOPE  C315 5148   4.226   4.887  14.888 -0.0929 -0.4698 -0.0024
   40DOPE  H15X 5149   4.131   4.884  14.831  0.2012  2.2538 -0.7747
   40DOPE  H15Y 5150   4.239   4.965  14.965  0.6955 -0.3725 -0.2202
   40DOPE  C316 5151   4.264   4.759  14.960 -0.5829  0.3098 -0.5554
   40DOPE  H16X 5152   4.348   4.766  15.031 -1.5075  1.0181  0.4915
   40DOPE  H16Y 5153   4.293   4.681  14.886 -2.2327  0.9078 -1.9265
   40DOPE  C317 5154   4.149   4.697  15.039  0.2008  0.1776 -0.5807
   40DOPE  H17X 5155   4.106   4.778  15.101  1.8580  0.7014 -0.0562
   40DOPE  H17Y 5156   4.073   4.664  14.965  1.3958 -1.0937 -1.3008
   40DOPE  C318 5157   4.185   4.579  15.121 -0.4707 -0.0112  0.2646
   40DOPE  H18X 5158   4.098   4.515  15.149  0.1104  0.0693  2.4911
   40DOPE  H18Y 5159   4.257   4.510  15.072 -2.6619 -1.5091 -1.0580
   40DOPE  H18Z 5160   4.219   4.613  15.221 -2.4570 -2.2183  1.8002
   41DOPE     N 5161   1.422   4.393  12.962 -0.3177  0.4589 -0.2146
   41DOPE   HN1 5162   1.335   4.425  13.009 -1.7823 -1.4586 -1.4873
   41DOPE   HN2 5163   1.492   4.470  12.965  0.0662  0.1409 -0.6548
   41DOPE   HN3 5164   1.401   4.384  12.861 -0.0728  0.7520 -0.2936
   41DOPE   C12 5165   1.467   4.255  13.002 -0.2006  0.4751 -0.2945
   41DOPE  H12A 5166   1.398   4.182  12.954  0.2541 -0.0747 -0.1258
   41DOPE  H12B 5167   1.470   4.253  13.114 -0.5939  1.6717 -0.2447
   41DOPE   C11 5168   1.600   4.210  12.937  0.1719 -0.1563  0.2989
   41DOPE  H11A 5169   1.599   4.236  12.829 -0.8703 -0.6834  0.1678
   41DOPE  H11B 5170   1.599   4.103  12.967  0.3073  0.4964  2.8811
   41DOPE     P 5171   1.851   4.249  12.983 -0.0059 -0.2055 -0.2764
   41DOPE   O13 5172   1.903   4.357  12.894 -0.5518 -0.1312 -0.0989
   41DOPE   O14 5173   1.873   4.110  12.924 -0.4181 -0.1788 -0.4845
   41DOPE   O11 5174   1.908   4.247  13.124 -0.1404 -0.4757 -0.2543
   41DOPE   O12 5175   1.700   4.274  13.008 -0.0014  0.3775  0.0087
   41DOPE    C1 5176   1.833   4.193  13.236  0.7985  0.1398 -0.1995
   41DOPE    HA 5177   1.756   4.117  13.209  0.9097 -0.8926  2.1677
   41DOPE    HB 5178   1.784   4.276  13.291  0.1976  0.1647 -0.7435
   41DOPE    C2 5179   1.934   4.123  13.328 -0.5284 -0.4211  0.2423
   41DOPE    HS 5180   2.009   4.198  13.362 -1.0719  0.5241 -0.5896
   41DOPE   O21 5181   1.991   4.015  13.248 -0.1867 -0.4406  0.4679
   41DOPE   C21 5182   2.120   4.017  13.240 -0.2828 -0.6107 -0.6057
   41DOPE   O22 5183   2.199   4.103  13.281 -0.5399  0.2083  0.2290
   41DOPE   C22 5184   2.165   3.904  13.149  0.4979 -0.0178 -0.0697
   41DOPE   H2R 5185   2.076   3.842  13.124  0.2797 -0.1611  1.0210
   41DOPE   H2S 5186   2.233   3.838  13.207  0.5060  0.4973  0.5186
   41DOPE    C3 5187   1.859   4.077  13.458 -0.3072  0.1914  1.0252
   41DOPE    HX 5188   1.930   4.005  13.505  0.4556 -0.2406 -0.7177
   41DOPE    HY 5189   1.768   4.020  13.429 -0.8605  1.1471  0.8500
   41DOPE   O31 5190   1.822   4.186  13.534 -0.0652 -0.2531 -0.2443
   41DOPE   C31 5191   1.724   4.155  13.623 -0.1397 -0.3983  0.5823
   41DOPE   O32 5192   1.672   4.044  13.634 -0.5406 -0.4269 -0.1764
   41DOPE   C32 5193   1.699   4.285  13.696 -0.0053  0.1343  0.6301
   41DOPE   H2X 5194   1.799   4.335  13.699  1.0912 -1.6198 -2.0756
   41DOPE   H2Y 5195   1.621   4.338  13.638 -0.1667 -1.1509 -0.3714
   41DOPE   C23 5196   2.239   3.952  13.017  0.2779  0.6215 -0.5443
   41DOPE   H3R 5197   2.167   4.020  12.968 -0.1787  1.4089  1.1480
   41DOPE   H3S 5198   2.252   3.861  12.954 -0.4583 -0.4624  0.7932
   41DOPE   C24 5199   2.372   4.015  13.040  0.7034  0.6147  0.1426
   41DOPE   H4R 5200   2.382   4.063  13.139  0.3284 -0.0700  0.5220
   41DOPE   H4S 5201   2.377   4.098  12.966  0.8224  0.0541 -0.4954
   41DOPE   C25 5202   2.491   3.913  13.030  0.2725 -0.4089  0.5503
   41DOPE   H5R 5203   2.477   3.846  12.942 -0.0913  0.9379 -0.4492
   41DOPE   H5S 5204   2.479   3.844  13.116  0.7369  0.2096  1.1262
   41DOPE   C26 5205   2.624   3.981  13.027 -0.7782 -0.4504  0.0249
   41DOPE   H6R 5206   2.625   4.051  12.941 -0.3234  0.2130  0.5567
   41DOPE   H6S 5207   2.704   3.907  13.009 -1.8423 -1.9491  1.2486
   41DOPE   C27 5208   2.656   4.061  13.150  0.7739 -0.2399  0.4626
   41DOPE   H7R 5209   2.574   4.130  13.177  0.4570  0.2286 -1.5311
   41DOPE   H7S 5210   2.746   4.117  13.116  0.6236 -0.4503 -0.2885
   41DOPE   C28 5211   2.693   3.963  13.261  0.3305 -0.7042  0.2863
   41DOPE   H8R 5212   2.769   3.889  13.229  0.5162 -0.5299  0.3234
   41DOPE   H8S 5213   2.602   3.911  13.298  0.2575 -0.8338 -0.0754
   41DOPE   C29 5214   2.745   4.046  13.375 -0.0466  0.2092 -0.1731
   41DOPE   H9R 5215   2.695   4.144  13.377 -0.4352  0.1186 -2.4290
   41DOPE  C210 5216   2.837   4.008  13.461 -0.1921 -0.4286 -0.5616
   41DOPE  H10R 5217   2.871   4.076  13.540 -1.9114  0.6974 -0.7364
   41DOPE  C211 5218   2.907   3.876  13.476 -0.5774 -0.4664  0.8158
   41DOPE  H11R 5219   3.012   3.899  13.449 -1.2001 -0.4011 -1.8382
   41DOPE  H11S 5220   2.884   3.794  13.404  1.7660 -0.3858 -0.0968
   41DOPE  C212 5221   2.897   3.834  13.617 -0.3085 -0.2041 -0.1713
   41DOPE  H12R 5222   2.792   3.855  13.648  0.4180  2.1822  0.8798
   41DOPE  H12S 5223   2.958   3.897  13.686  1.4903 -1.8052 -0.2182
   41DOPE  C213 5224   2.910   3.680  13.646 -0.3886  0.1474  0.5331
   41DOPE  H13R 5225   3.017   3.664  13.619  0.0494 -1.9421  3.0207
   41DOPE  H13S 5226   2.838   3.628  13.580  1.0666 -0.6442 -0.5007
   41DOPE  C214 5227   2.900   3.653  13.796 -0.3164  0.1059 -0.4878
   41DOPE  H14R 5228   2.976   3.711  13.853 -1.3591  1.6045 -0.5592
   41DOPE  H14S 5229   2.911   3.547  13.826 -2.0653  0.0583  0.0797
   41DOPE  C215 5230   2.756   3.686  13.853  0.0366 -0.9589 -0.0043
   41DOPE  H15R 5231   2.684   3.617  13.804 -0.2675 -1.8088  1.5783
   41DOPE  H15S 5232   2.730   3.792  13.834 -0.3361 -0.9710  0.4209
   41DOPE  C216 5233   2.748   3.643  14.001 -0.5649  0.5445  0.7267
   41DOPE  H16R 5234   2.811   3.709  14.064  1.9854 -1.1998  0.1437
   41DOPE  H16S 5235   2.789   3.540  14.007  0.0842  0.7773  0.3790
   41DOPE  C217 5236   2.597   3.639  14.048  0.5834  0.2299 -0.5372
   41DOPE  H17R 5237   2.578   3.633  14.157  0.7518  0.6744 -0.4846
   41DOPE  H17S 5238   2.551   3.545  14.009 -1.6439  0.0064  2.2422
   41DOPE  C218 5239   2.516   3.759  14.001 -0.0671  0.0111  0.7048
   41DOPE  H18R 5240   2.545   3.856  14.047 -0.3876  0.0671  0.7918
   41DOPE  H18S 5241   2.411   3.738  14.032  0.4032 -1.7926  1.2456
   41DOPE  H18T 5242   2.506   3.771  13.891 -0.5607 -1.5447  0.5443
   41DOPE   C33 5243   1.652   4.250  13.834  0.2491 -0.0586  0.2914
   41DOPE   H3X 5244   1.725   4.181  13.880  2.3471  1.2666 -0.8799
   41DOPE   H3Y 5245   1.559   4.190  13.843 -0.9480  1.9112  2.1683
   41DOPE   C34 5246   1.632   4.370  13.927  0.4984 -0.8704  0.4544
   41DOPE   H4X 5247   1.588   4.458  13.875 -0.2783 -0.9913  0.8998
   41DOPE   H4Y 5248   1.557   4.345  14.006 -0.1731 -0.7366 -0.1309
   41DOPE   C35 5249   1.763   4.430  13.977 -0.5066  0.4676 -0.0821
   41DOPE   H5X 5250   1.741   4.508  14.052 -0.5669 -0.0064  0.4038
   41DOPE   H5Y 5251   1.825   4.479  13.898  2.6763 -1.0402  1.2792
   41DOPE   C36 5252   1.846   4.328  14.062 -0.1482  0.0069 -0.0527
   41DOPE   H6X 5253   1.933   4.382  14.104  0.7179 -2.1136  0.9825
   41DOPE   H6Y 5254   1.886   4.255  13.989 -0.8585 -0.0929 -0.3525
   41DOPE   C37 5255   1.772   4.259  14.179 -0.3293 -0.5659 -0.2536
   41DOPE   H7X 5256   1.699   4.335  14.214  2.4859  1.4329  1.6753
   41DOPE   H7Y 5257   1.722   4.171  14.134  1.0237 -0.0879 -2.9321
   41DOPE   C38 5258   1.861   4.223  14.295  0.0113 -0.0263  0.3960
   41DOPE   H8X 5259   1.934   4.304  14.317  0.5156  0.0557 -1.3998
   41DOPE   H8Y 5260   1.923   4.141  14.253 -1.3327 -0.6920 -0.3779
   41DOPE   C39 5261   1.783   4.184  14.414 -0.3017 -0.8229  0.1265
   41DOPE   H9X 5262   1.688   4.238  14.422 -0.0225 -0.4431  0.9708
   41DOPE  C310 5263   1.813   4.085  14.497 -0.2830  0.2464  0.0153
   41DOPE  H10X 5264   1.748   4.067  14.584  0.1437 -0.8183  0.1306
   41DOPE  C311 5265   1.936   3.997  14.492  0.3997  0.3888  0.1445
   41DOPE  H11X 5266   2.021   4.039  14.434 -0.9610  1.1130 -1.4002
   41DOPE  H11Y 5267   1.975   4.008  14.595 -1.8536  0.4136  1.0637
   41DOPE  C312 5268   1.912   3.847  14.460  0.8564 -0.1365  0.4205
   41DOPE  H12X 5269   1.829   3.803  14.518  0.5351  0.6662  0.5779
   41DOPE  H12Y 5270   2.009   3.802  14.490  1.2273 -1.1607 -2.0720
   41DOPE  C313 5271   1.894   3.814  14.309  0.1047 -0.0140 -0.7030
   41DOPE  H13X 5272   1.961   3.880  14.251  2.1929 -0.7122  0.7995
   41DOPE  H13Y 5273   1.931   3.711  14.289 -0.2106 -0.4832  0.9602
   41DOPE  C314 5274   1.747   3.814  14.262  0.1856 -0.0643 -0.1213
   41DOPE  H14X 5275   1.698   3.905  14.302  1.8585  0.1473  1.5530
   41DOPE  H14Y 5276   1.695   3.721  14.294  3.1248 -1.6977  0.2683
   41DOPE  C315 5277   1.737   3.814  14.110  0.4213 -1.2321  0.2376
   41DOPE  H15X 5278   1.770   3.712  14.079 -0.3074 -1.2065 -0.6945
   41DOPE  H15Y 5279   1.797   3.889  14.054 -2.4976  1.1821  0.1016
   41DOPE  C316 5280   1.595   3.830  14.056 -0.0012  0.1406 -0.4892
   41DOPE  H16X 5281   1.563   3.927  14.100  1.9530 -0.0750  1.5864
   41DOPE  H16Y 5282   1.526   3.754  14.099  2.0326 -0.8930  1.1496
   41DOPE  C317 5283   1.592   3.851  13.908 -0.4225 -0.1675 -0.9647
   41DOPE  H17X 5284   1.661   3.931  13.874  0.3579 -0.7390 -0.7641
   41DOPE  H17Y 5285   1.634   3.758  13.864 -0.5537 -0.9689  0.5253
   41DOPE  C318 5286   1.446   3.885  13.876  0.0881  0.2926  0.0552
   41DOPE  H18X 5287   1.379   3.812  13.928 -2.0032  0.7863 -1.8074
   41DOPE  H18Y 5288   1.435   3.989  13.912  2.4642  0.3432  0.8557
   41DOPE  H18Z 5289   1.426   3.890  13.767 -0.5900  2.3122  0.2445
   42DOPE     N 5290   1.871   3.767  12.658 -0.1492 -0.5733  0.0806
   42DOPE   HN1 5291   1.954   3.706  12.672 -0.6135 -1.1817  0.2273
   42DOPE   HN2 5292   1.899   3.867  12.648 -1.3070 -0.3179 -0.9742
   42DOPE   HN3 5293   1.808   3.759  12.740  1.7783 -0.6011  1.6384
   42DOPE   C12 5294   1.799   3.718  12.538 -0.6061 -0.2981  0.9535
   42DOPE  H12A 5295   1.879   3.713  12.461 -1.4274  2.6850 -0.2267
   42DOPE  H12B 5296   1.716   3.785  12.510  0.2006  0.9013  1.3674
   42DOPE   C11 5297   1.736   3.582  12.555 -0.4489  0.6486 -0.5551
   42DOPE  H11A 5298   1.684   3.552  12.461 -2.3171 -3.5429  1.5556
   42DOPE  H11B 5299   1.648   3.581  12.622 -0.0415 -0.8532 -0.0108
   42DOPE     P 5300   1.810   3.338  12.606  0.2509 -0.0290  0.0229
   42DOPE   O13 5301   1.897   3.274  12.709  0.0769 -0.7152  0.1720
   42DOPE   O14 5302   1.824   3.291  12.466  0.0491 -0.0027  0.3471
   42DOPE   O11 5303   1.658   3.324  12.648 -0.5555  0.0002 -0.0123
   42DOPE   O12 5304   1.836   3.491  12.604 -0.8430  0.1213  0.6284
   42DOPE    C1 5305   1.626   3.283  12.781  0.5193  0.5338 -0.1219
   42DOPE    HA 5306   1.698   3.204  12.810  0.3469  0.3306 -0.2391
   42DOPE    HB 5307   1.527   3.233  12.784 -0.4378  2.3267 -0.2834
   42DOPE    C2 5308   1.628   3.397  12.885 -0.5778  0.5420 -0.8970
   42DOPE    HS 5309   1.566   3.471  12.831 -2.6836  0.5809  1.3990
   42DOPE   O21 5310   1.761   3.451  12.909  0.0188 -0.0902  0.2647
   42DOPE   C21 5311   1.841   3.385  12.984  0.2885 -0.0315 -0.3276
   42DOPE   O22 5312   1.817   3.283  13.053  0.0080 -0.0028 -0.0939
   42DOPE   C22 5313   1.967   3.470  12.975  0.1977 -0.3801  0.0982
   42DOPE   H2R 5314   1.948   3.575  12.942  0.6590 -0.6944 -1.2420
   42DOPE   H2S 5315   2.038   3.410  12.915 -0.5664 -1.8744  0.6386
   42DOPE    C3 5316   1.549   3.369  13.020  0.4820 -0.0555  0.7735
   42DOPE    HX 5317   1.580   3.270  13.059  1.7207  0.1341  0.3234
   42DOPE    HY 5318   1.446   3.355  12.982  0.1844 -0.8520  1.8544
   42DOPE   O31 5319   1.552   3.467  13.120 -0.1359  0.3350 -0.4759
   42DOPE   C31 5320   1.473   3.569  13.106  0.3477  0.4526 -0.0785
   42DOPE   O32 5321   1.391   3.584  13.017 -0.1690 -0.2164  0.4236
   42DOPE   C32 5322   1.522   3.660  13.214  0.0983  0.3693  0.5340
   42DOPE   H2X 5323   1.515   3.606  13.311  0.5604 -1.2360 -0.2909
   42DOPE   H2Y 5324   1.627   3.686  13.189  0.5970 -1.7225  0.2491
   42DOPE   C23 5325   2.029   3.487  13.116  0.0925  0.1402  0.1745
   42DOPE   H3R 5326   2.119   3.553  13.114  0.1750  0.0203 -0.2172
   42DOPE   H3S 5327   2.063   3.391  13.159  2.2817  0.9325  0.3602
   42DOPE   C24 5328   1.937   3.572  13.221  0.0699  0.6062 -0.0998
   42DOPE   H4R 5329   1.856   3.501  13.247 -0.8585  1.5670 -0.2715
   42DOPE   H4S 5330   1.891   3.662  13.175 -0.3072  1.0631  1.1328
   42DOPE   C25 5331   2.017   3.613  13.349 -0.0452 -0.2174  0.1850
   42DOPE   H5R 5332   2.112   3.662  13.319 -0.5420  1.1690  0.8021
   42DOPE   H5S 5333   2.038   3.520  13.406  1.3892 -0.5615 -0.8650
   42DOPE   C26 5334   1.935   3.708  13.449  0.1076  0.4153  0.0233
   42DOPE   H6R 5335   1.926   3.805  13.395  1.9769 -0.9257 -2.9650
   42DOPE   H6S 5336   2.000   3.731  13.537  1.4219 -0.6976 -0.6211
   42DOPE   C27 5337   1.816   3.630  13.486  0.1895  0.1074  0.2197
   42DOPE   H7R 5338   1.834   3.521  13.474 -0.7454 -0.2936  2.0953
   42DOPE   H7S 5339   1.738   3.648  13.410 -1.0394  2.0391  1.8468
   42DOPE   C28 5340   1.758   3.664  13.625 -0.8387 -0.5906 -0.2151
   42DOPE   H8R 5341   1.760   3.774  13.645  2.2915 -0.5248 -0.3891
   42DOPE   H8S 5342   1.806   3.612  13.710 -2.6142 -0.6798  0.7879
   42DOPE   C29 5343   1.620   3.606  13.627 -0.3738  0.3331  0.3537
   42DOPE   H9R 5344   1.534   3.674  13.627 -1.0666 -0.5193  0.7707
   42DOPE  C210 5345   1.587   3.471  13.643  0.4006 -0.2237  0.8750
   42DOPE  H10R 5346   1.482   3.437  13.643  0.6848 -1.1496  0.0809
   42DOPE  C211 5347   1.686   3.357  13.666 -0.5736  0.3501  0.3107
   42DOPE  H11R 5348   1.782   3.383  13.618 -1.7567  3.1825 -0.7482
   42DOPE  H11S 5349   1.645   3.262  13.627 -2.1447  1.3198 -0.5008
   42DOPE  C212 5350   1.695   3.350  13.815  0.6994 -0.2011  0.4328
   42DOPE  H12R 5351   1.599   3.311  13.856  1.0804 -0.6847  0.8748
   42DOPE  H12S 5352   1.712   3.444  13.871  0.4106 -1.8517  3.5126
   42DOPE  C213 5353   1.805   3.254  13.866  0.4101 -0.1206  0.4138
   42DOPE  H13R 5354   1.905   3.282  13.827 -0.4014 -0.0129 -1.7052
   42DOPE  H13S 5355   1.793   3.159  13.809  1.1081  0.6684 -1.1236
   42DOPE  C214 5356   1.806   3.225  14.013  0.0733 -0.7785 -0.8114
   42DOPE  H14R 5357   1.870   3.136  14.035 -1.0948 -1.2268  1.0364
   42DOPE  H14S 5358   1.703   3.188  14.032 -0.7405  1.3776 -0.8190
   42DOPE  C215 5359   1.849   3.343  14.114 -0.3774 -0.0071  0.3246
   42DOPE  H15R 5360   1.789   3.434  14.094 -1.1620 -0.4033  0.8150
   42DOPE  H15S 5361   1.952   3.375  14.090 -0.4449  0.4015  0.5656
   42DOPE  C216 5362   1.842   3.307  14.263 -0.7444  0.0658 -0.2590
   42DOPE  H16R 5363   1.915   3.232  14.300  0.6224  1.3004 -0.3408
   42DOPE  H16S 5364   1.747   3.255  14.282  1.2952 -3.3284  1.5854
   42DOPE  C217 5365   1.870   3.430  14.349 -0.5318 -0.3128 -0.0406
   42DOPE  H17R 5366   1.804   3.517  14.326  0.6319  0.6043 -0.0374
   42DOPE  H17S 5367   1.970   3.471  14.322 -0.5732 -1.5410 -2.3076
   42DOPE  C218 5368   1.853   3.404  14.506 -0.2618 -0.4029  0.3432
   42DOPE  H18R 5369   1.881   3.489  14.571 -1.9632 -0.7746  1.6222
   42DOPE  H18S 5370   1.922   3.321  14.534  0.2162 -1.2975 -3.0456
   42DOPE  H18T 5371   1.749   3.374  14.531 -1.3093  2.0768 -0.7377
   42DOPE   C33 5372   1.437   3.790  13.224  0.4018 -0.2421 -0.4580
   42DOPE   H3X 5373   1.334   3.759  13.252  0.8302 -0.3796  1.0402
   42DOPE   H3Y 5374   1.423   3.837  13.125  0.4155 -1.2992 -0.9760
   42DOPE   C34 5375   1.508   3.893  13.314 -0.4689 -0.0670  0.5060
   42DOPE   H4X 5376   1.509   3.857  13.419 -0.5591 -2.7952 -0.3504
   42DOPE   H4Y 5377   1.617   3.908  13.293 -0.2175  0.8950  2.3441
   42DOPE   C35 5378   1.438   4.029  13.299 -0.2507  0.2591  0.0863
   42DOPE   H5X 5379   1.430   4.060  13.192 -0.0923  1.0619  0.2975
   42DOPE   H5Y 5380   1.489   4.109  13.357  0.2072  1.0814 -1.3843
   42DOPE   C36 5381   1.293   4.025  13.351 -0.6988 -0.5225  0.4687
   42DOPE   H6X 5382   1.228   4.001  13.264  0.5675 -1.0395 -0.3718
   42DOPE   H6Y 5383   1.267   4.131  13.371 -2.4713 -1.0481  1.0878
   42DOPE   C37 5384   1.260   3.944  13.480  0.4842 -0.6999  0.0272
   42DOPE   H7X 5385   1.270   3.834  13.468  1.0610 -0.4880 -1.7487
   42DOPE   H7Y 5386   1.329   3.974  13.563 -0.6942 -1.6462  1.3878
   42DOPE   C38 5387   1.114   3.978  13.523  0.4985  0.2928 -0.9277
   42DOPE   H8X 5388   1.096   3.889  13.586  0.5546  1.3897  0.6966
   42DOPE   H8Y 5389   1.041   3.972  13.439 -0.4171 -3.0543 -0.0258
   42DOPE   C39 5390   1.102   4.106  13.599 -0.6008  0.4109 -0.0945
   42DOPE   H9X 5391   1.164   4.188  13.558  1.0825 -1.1041 -0.7028
   42DOPE  C310 5392   1.037   4.119  13.712  0.3227 -0.3279 -0.3469
   42DOPE  H10X 5393   1.041   4.219  13.758  0.3955  0.6824 -2.4628
   42DOPE  C311 5394   0.944   4.022  13.787  0.1506 -0.4321  0.2257
   42DOPE  H11X 5395   0.847   4.070  13.764  0.6642 -0.5285 -2.4499
   42DOPE  H11Y 5396   0.949   3.920  13.742  0.0777  0.2110 -1.2738
   42DOPE  C312 5397   0.970   4.022  13.938 -0.4140 -0.2777 -0.2534
   42DOPE  H12X 5398   0.886   3.962  13.981 -1.2949  0.9037 -0.2804
   42DOPE  H12Y 5399   0.958   4.122  13.983  0.5289 -0.3750  0.2183
   42DOPE  C313 5400   1.093   3.968  13.983 -0.4883  0.6693  0.5413
   42DOPE  H13X 5401   1.106   3.871  13.930 -2.2661  0.6281  0.1264
   42DOPE  H13Y 5402   1.174   4.034  13.946  0.9314 -0.8076  0.8881
   42DOPE  C314 5403   1.121   3.955  14.134 -0.0610 -0.1842 -0.0193
   42DOPE  H14X 5404   1.085   3.854  14.164 -2.1795  0.6942  0.5738
   42DOPE  H14Y 5405   1.062   4.036  14.183  0.5437 -0.5483  1.3336
   42DOPE  C315 5406   1.273   3.958  14.176 -0.0678  0.6647  0.1623
   42DOPE  H15X 5407   1.329   4.042  14.129 -0.5636 -0.0832 -1.8503
   42DOPE  H15Y 5408   1.309   3.858  14.144  1.4403  1.6727 -1.4632
   42DOPE  C316 5409   1.293   3.967  14.329 -0.6830  0.1142 -0.2918
   42DOPE  H16X 5410   1.242   3.890  14.391 -1.7891  0.8495 -0.2689
   42DOPE  H16Y 5411   1.228   4.054  14.353 -1.3158 -0.5715  0.5532
   42DOPE  C317 5412   1.424   4.007  14.378 -0.3052 -0.2799 -0.1978
   42DOPE  H17X 5413   1.496   3.922  14.379  1.4481  0.9954 -3.5334
   42DOPE  H17Y 5414   1.465   4.077  14.303  1.2088 -0.5873  0.2992
   42DOPE  C318 5415   1.423   4.082  14.519  0.7650 -0.5461 -0.7108
   42DOPE  H18X 5416   1.522   4.130  14.535  0.1000  0.3524  0.8280
   42DOPE  H18Y 5417   1.347   4.162  14.514  0.9477 -0.3129  0.0889
   42DOPE  H18Z 5418   1.407   4.018  14.608 -0.8389  0.6813 -0.0774
   43DOPE     N 5419   1.816   1.914  13.311 -0.3910  0.4860  0.1693
   43DOPE   HN1 5420   1.878   1.989  13.275  0.0692 -0.7810 -1.8508
   43DOPE   HN2 5421   1.882   1.835  13.325 -1.3258 -0.6095 -1.2733
   43DOPE   HN3 5422   1.756   1.884  13.231 -0.9381 -2.0293  1.4351
   43DOPE   C12 5423   1.737   1.954  13.432  0.0118 -0.4161 -0.0781
   43DOPE  H12A 5424   1.814   1.996  13.501  1.6743 -0.5281 -1.7755
   43DOPE  H12B 5425   1.690   1.875  13.495 -2.4080  1.4232  0.5594
   43DOPE   C11 5426   1.633   2.059  13.406 -0.9019 -0.1628  0.4705
   43DOPE  H11A 5427   1.693   2.148  13.376 -1.8054  0.8166  1.4767
   43DOPE  H11B 5428   1.569   2.086  13.493  0.2803 -1.4407  1.7747
   43DOPE     P 5429   1.516   2.088  13.173 -0.2524 -0.0132  0.4094
   43DOPE   O13 5430   1.426   2.010  13.086  0.0069  0.2760 -0.0053
   43DOPE   O14 5431   1.642   2.132  13.111 -0.2385 -0.1469  0.2901
   43DOPE   O11 5432   1.431   2.211  13.230  0.7454  0.3755 -0.4137
   43DOPE   O12 5433   1.551   2.007  13.298  0.0319  0.0294 -0.1238
   43DOPE    C1 5434   1.314   2.189  13.316 -0.1603  0.6960 -0.5356
   43DOPE    HA 5435   1.346   2.113  13.391 -0.1832 -0.3937 -1.6037
   43DOPE    HB 5436   1.232   2.151  13.251  0.3236 -1.9066  0.2327
   43DOPE    C2 5437   1.273   2.321  13.374  1.4105 -0.5729 -0.5812
   43DOPE    HS 5438   1.276   2.384  13.283  1.0652  1.2473  0.6031
   43DOPE   O21 5439   1.380   2.358  13.459 -0.2301 -0.2453  0.4570
   43DOPE   C21 5440   1.391   2.486  13.477  0.1319  0.4329 -0.8155
   43DOPE   O22 5441   1.320   2.569  13.426 -0.8892  0.2717  0.2123
   43DOPE   C22 5442   1.515   2.520  13.571 -0.2103  1.0469 -0.9469
   43DOPE   H2R 5443   1.599   2.457  13.535  0.6408  0.0718  2.3366
   43DOPE   H2S 5444   1.491   2.489  13.675 -1.6116  1.5875 -1.0928
   43DOPE    C3 5445   1.137   2.313  13.448 -0.3381 -0.1609 -0.1818
   43DOPE    HX 5446   1.063   2.300  13.366 -0.2389  1.1661 -0.5094
   43DOPE    HY 5447   1.115   2.414  13.488 -2.9255 -0.0765 -1.5896
   43DOPE   O31 5448   1.132   2.206  13.547  0.3021 -1.1552 -0.2153
   43DOPE   C31 5449   1.177   2.231  13.671 -0.0804 -0.0171 -0.1013
   43DOPE   O32 5450   1.215   2.342  13.711  0.1400 -0.1011  0.4446
   43DOPE   C32 5451   1.189   2.101  13.745 -0.0387  0.5641  0.1582
   43DOPE   H2X 5452   1.094   2.078  13.799  0.1610 -2.8207 -0.7138
   43DOPE   H2Y 5453   1.219   2.020  13.675  0.7721 -0.9320  2.1522
   43DOPE   C23 5454   1.553   2.668  13.566 -0.6401 -0.3472  0.5093
   43DOPE   H3R 5455   1.555   2.711  13.464  3.3702  1.0606  1.0403
   43DOPE   H3S 5456   1.655   2.685  13.606 -0.1741  1.8320 -1.4271
   43DOPE   C24 5457   1.470   2.756  13.658  0.4563  0.3988  0.1635
   43DOPE   H4R 5458   1.475   2.708  13.758  2.0551 -3.4586 -1.5696
   43DOPE   H4S 5459   1.363   2.764  13.627  0.3352  2.2949  0.9755
   43DOPE   C25 5460   1.528   2.896  13.667  0.3017  0.2222 -0.2606
   43DOPE   H5R 5461   1.537   2.940  13.565  3.0171  1.8694  0.5692
   43DOPE   H5S 5462   1.630   2.894  13.712 -0.4872  2.3391  1.8053
   43DOPE   C26 5463   1.440   2.992  13.754 -0.9279 -0.5286  0.4466
   43DOPE   H6R 5464   1.334   2.974  13.726 -0.6237  0.1729 -1.2884
   43DOPE   H6S 5465   1.460   3.096  13.723 -1.4682  0.1667  2.3116
   43DOPE   C27 5466   1.468   2.981  13.907 -0.4315 -0.7389 -0.0962
   43DOPE   H7R 5467   1.574   3.004  13.930 -0.5860 -1.4914  1.5004
   43DOPE   H7S 5468   1.428   2.884  13.942 -2.6068 -0.3985 -1.5093
   43DOPE   C28 5469   1.389   3.086  13.980 -0.3458  0.1388 -0.1272
   43DOPE   H8R 5470   1.285   3.048  13.973  0.6152 -2.4342 -1.6947
   43DOPE   H8S 5471   1.400   3.184  13.930 -1.0380  0.4407  0.2986
   43DOPE   C29 5472   1.430   3.095  14.127  0.7851 -0.4263  0.7353
   43DOPE   H9R 5473   1.428   2.996  14.175  2.2216 -1.0920 -0.4546
   43DOPE  C210 5474   1.455   3.206  14.196 -0.1394  0.4283 -0.0213
   43DOPE  H10R 5475   1.472   3.188  14.303  3.0586 -0.4454 -0.5640
   43DOPE  C211 5476   1.446   3.343  14.143 -0.8137 -0.0147  0.1688
   43DOPE  H11R 5477   1.379   3.342  14.054  0.8446  0.0714 -1.1484
   43DOPE  H11S 5478   1.545   3.371  14.100 -1.5258  0.6433 -1.1267
   43DOPE  C212 5479   1.394   3.441  14.247 -0.0154  0.0536 -0.0804
   43DOPE  H12R 5480   1.297   3.413  14.292 -0.6869 -0.3376 -1.7093
   43DOPE  H12S 5481   1.386   3.539  14.196  3.4188  0.7609  0.4666
   43DOPE  C213 5482   1.481   3.456  14.376  0.0849  0.1926  0.4960
   43DOPE  H13R 5483   1.587   3.462  14.342 -0.5916 -1.7560 -2.3366
   43DOPE  H13S 5484   1.472   3.368  14.444 -3.9618  1.4337  1.8712
   43DOPE  C214 5485   1.447   3.591  14.450 -0.0947  0.9638  0.3501
   43DOPE  H14R 5486   1.336   3.594  14.461 -0.0681  0.6251  0.7396
   43DOPE  H14S 5487   1.472   3.671  14.378  1.1477  1.5756  1.4261
   43DOPE  C215 5488   1.529   3.617  14.573 -0.2275 -0.4280 -0.7901
   43DOPE  H15R 5489   1.493   3.712  14.619  0.5887 -0.8587  0.8223
   43DOPE  H15S 5490   1.639   3.628  14.568  0.0503 -0.4713  2.7182
   43DOPE  C216 5491   1.506   3.523  14.692  0.4108 -0.1021 -0.5607
   43DOPE  H16R 5492   1.523   3.415  14.671  1.3624 -0.0381 -0.1747
   43DOPE  H16S 5493   1.402   3.523  14.732  0.9626 -2.4607  1.0562
   43DOPE  C217 5494   1.591   3.561  14.817  0.0056  0.1213  0.1395
   43DOPE  H17R 5495   1.567   3.669  14.820  0.2517  0.1911 -0.3100
   43DOPE  H17S 5496   1.700   3.546  14.800  0.1049  0.2468  0.6712
   43DOPE  C218 5497   1.547   3.498  14.945 -0.9376  0.3354 -0.4166
   43DOPE  H18R 5498   1.437   3.510  14.954 -1.1572  0.6967 -2.7548
   43DOPE  H18S 5499   1.591   3.539  15.038  1.1139 -1.9841 -0.2801
   43DOPE  H18T 5500   1.569   3.390  14.941 -0.2393  0.4014  1.0344
   43DOPE   C33 5501   1.298   2.101  13.865  0.8140  0.4839 -0.4024
   43DOPE   H3X 5502   1.272   2.016  13.932  1.2966  0.6476  0.0047
   43DOPE   H3Y 5503   1.287   2.192  13.928 -2.3377 -0.3089  0.3524
   43DOPE   C34 5504   1.450   2.091  13.827  0.2977  0.2116 -0.1462
   43DOPE   H4X 5505   1.471   2.170  13.752 -0.7749  1.9760  1.3186
   43DOPE   H4Y 5506   1.504   2.115  13.920 -0.9596 -1.1028  0.9799
   43DOPE   C35 5507   1.494   1.953  13.782 -0.0478  0.4320 -0.8825
   43DOPE   H5X 5508   1.449   1.932  13.682 -0.0380 -0.5464 -0.6885
   43DOPE   H5Y 5509   1.445   1.881  13.851 -0.4349  0.2455 -1.3439
   43DOPE   C36 5510   1.645   1.948  13.775  0.1664  0.3425 -0.1947
   43DOPE   H6X 5511   1.671   2.038  13.715  1.1094 -1.6593 -2.9785
   43DOPE   H6Y 5512   1.669   1.858  13.716 -1.4104 -0.8417  0.8901
   43DOPE   C37 5513   1.725   1.921  13.906 -0.4351  0.1257  0.0127
   43DOPE   H7X 5514   1.745   2.021  13.952 -0.1038  0.1261 -0.1253
   43DOPE   H7Y 5515   1.668   1.856  13.976  0.6356 -0.5091  0.3162
   43DOPE   C38 5516   1.867   1.867  13.888  0.8641  0.7101 -0.1030
   43DOPE   H8X 5517   1.915   1.901  13.793  1.6360  0.2432  0.1135
   43DOPE   H8Y 5518   1.856   1.757  13.875  2.0923  0.4071  1.2476
   43DOPE   C39 5519   1.967   1.901  13.993  0.1653  0.6368 -0.1711
   43DOPE   H9X 5520   2.006   2.004  13.988  0.2999  0.5878 -0.1200
   43DOPE  C310 5521   1.989   1.834  14.108  0.2136 -0.4779 -0.1448
   43DOPE  H10X 5522   2.062   1.883  14.174  0.9689 -0.7766 -0.7441
   43DOPE  C311 5523   1.929   1.710  14.164 -0.1539 -0.7917 -0.6757
   43DOPE  H11X 5524   1.841   1.684  14.102 -0.2147  1.8918 -1.8291
   43DOPE  H11Y 5525   2.009   1.634  14.174  0.5034 -0.1569 -1.0596
   43DOPE  C312 5526   1.873   1.730  14.305 -0.3114  0.1309 -0.5000
   43DOPE  H12X 5527   1.961   1.769  14.360  0.8884 -1.5362 -1.1520
   43DOPE  H12Y 5528   1.847   1.629  14.345  2.3914 -0.8064 -0.9435
   43DOPE  C313 5529   1.755   1.821  14.313  0.0291 -0.4070  0.0088
   43DOPE  H13X 5530   1.740   1.865  14.414 -0.3331 -1.2305  0.3259
   43DOPE  H13Y 5531   1.758   1.907  14.244 -0.4866  0.3303  0.8814
   43DOPE  C314 5532   1.620   1.735  14.296  0.8491  0.7077 -0.1911
   43DOPE  H14X 5533   1.625   1.630  14.332  0.5664  0.1623 -1.6959
   43DOPE  H14Y 5534   1.602   1.728  14.187  2.7964 -0.8300 -0.4624
   43DOPE  C315 5535   1.494   1.792  14.359  0.1414 -0.2355 -0.1470
   43DOPE  H15X 5536   1.503   1.792  14.470  1.8769 -0.8324 -0.2586
   43DOPE  H15Y 5537   1.410   1.729  14.321  0.0178  0.6563 -1.3875
   43DOPE  C316 5538   1.455   1.931  14.312 -0.4155 -0.5850  0.0845
   43DOPE  H16X 5539   1.452   1.934  14.201 -4.7559 -2.0092 -0.0194
   43DOPE  H16Y 5540   1.520   2.007  14.359  0.2014 -1.7126  1.1060
   43DOPE  C317 5541   1.316   1.972  14.358 -0.0763  0.2995 -0.1456
   43DOPE  H17X 5542   1.247   1.890  14.333  0.9232 -1.3359  2.1368
   43DOPE  H17Y 5543   1.314   1.978  14.469 -0.7066  0.0018 -0.1409
   43DOPE  C318 5544   1.256   2.102  14.305 -0.3607  0.0143  0.0658
   43DOPE  H18X 5545   1.157   2.106  14.354 -0.8988  0.9688 -1.0652
   43DOPE  H18Y 5546   1.314   2.194  14.332  1.4398 -0.0459 -3.0665
   43DOPE  H18Z 5547   1.259   2.109  14.194  0.6390 -0.7778  0.0306
   44DOPE     N 5548   4.577   0.515  12.630  0.3511  0.0815  0.6319
   44DOPE   HN1 5549   4.475   0.533  12.616  0.5688  0.1249 -1.2083
   44DOPE   HN2 5550   4.605   0.610  12.661 -1.1880  0.7289  0.1524
   44DOPE   HN3 5551   4.612   0.485  12.537 -0.4716  0.2419  0.2607
   44DOPE   C12 5552   4.600   0.414  12.739  0.2705 -0.1554 -0.4631
   44DOPE  H12A 5553   4.589   0.485  12.824  0.9440  0.3659 -0.7918
   44DOPE  H12B 5554   4.706   0.383  12.726 -0.1212 -1.6287 -0.2673
   44DOPE   C11 5555   4.501   0.304  12.757 -0.3471  0.7695 -0.3158
   44DOPE  H11A 5556   4.531   0.249  12.848  0.1156  1.0973 -0.2695
   44DOPE  H11B 5557   4.514   0.231  12.675  0.8137 -2.6618  2.6946
   44DOPE     P 5558   4.294   0.378  12.898  0.1157  0.0804 -0.2266
   44DOPE   O13 5559   4.167   0.443  12.864 -0.5564  0.0353  0.7812
   44DOPE   O14 5560   4.386   0.449  12.991  0.7053  0.3845 -0.4972
   44DOPE   O11 5561   4.267   0.231  12.955 -0.1728 -0.0297 -0.1226
   44DOPE   O12 5562   4.367   0.344  12.766  0.0876  0.1020  0.2883
   44DOPE    C1 5563   4.205   0.126  12.879 -0.2407 -0.1896 -0.6832
   44DOPE    HA 5564   4.283   0.050  12.856 -0.1017 -0.6457  1.1018
   44DOPE    HB 5565   4.158   0.157  12.783  0.6073 -1.5626 -1.5759
   44DOPE    C2 5566   4.103   0.057  12.968  0.5451 -0.0789  0.5883
   44DOPE    HS 5567   4.016   0.121  12.991 -0.7760 -1.4651 -0.2982
   44DOPE   O21 5568   4.160  -0.001  13.084 -0.0974  0.0793  0.5181
   44DOPE   C21 5569   4.076  -0.017  13.185 -0.3986 -0.6555  0.3318
   44DOPE   O22 5570   3.967   0.029  13.191  0.4428 -0.1383 -0.0084
   44DOPE   C22 5571   4.149  -0.090  13.295 -0.2397 -0.0953 -0.5033
   44DOPE   H2R 5572   4.248  -0.044  13.318 -2.0832  2.8722  2.4914
   44DOPE   H2S 5573   4.155  -0.195  13.262 -0.1287 -0.8041  1.5888
   44DOPE    C3 5574   4.039  -0.063  12.882  1.3967 -0.2856 -0.2861
   44DOPE    HX 5575   4.120  -0.136  12.864  1.3583 -1.4043  3.3439
   44DOPE    HY 5576   4.013  -0.006  12.790 -0.3215 -0.0193  0.3224
   44DOPE   O31 5577   3.921  -0.136  12.945 -0.3917 -0.3077  0.0766
   44DOPE   C31 5578   3.804  -0.069  12.924  0.1819  0.8353 -0.3156
   44DOPE   O32 5579   3.791   0.040  12.874 -0.0880  0.2613 -0.3062
   44DOPE   C32 5580   3.692  -0.164  12.972 -0.4902 -0.1773 -0.2939
   44DOPE   H2X 5581   3.693  -0.258  12.912  1.4952 -0.9277  0.8081
   44DOPE   H2Y 5582   3.716  -0.202  13.073  0.3222  1.6910  0.2513
   44DOPE   C23 5583   4.075  -0.095  13.430 -0.5404 -0.5020 -0.2790
   44DOPE   H3R 5584   3.980  -0.147  13.406 -1.4263 -0.2111  2.2635
   44DOPE   H3S 5585   4.060   0.010  13.464 -1.9362 -0.8198  0.1286
   44DOPE   C24 5586   4.148  -0.181  13.537 -0.9215 -0.1727 -0.3398
   44DOPE   H4R 5587   4.237  -0.125  13.573  0.8957 -3.3087  0.4918
   44DOPE   H4S 5588   4.198  -0.265  13.483 -0.0577 -0.3899  0.7668
   44DOPE   C25 5589   4.070  -0.238  13.658  0.5662  0.8925 -0.5479
   44DOPE   H5R 5590   4.000  -0.321  13.635 -0.5433  1.3990  0.9018
   44DOPE   H5S 5591   3.994  -0.161  13.681 -1.8805 -1.3642 -0.5432
   44DOPE   C26 5592   4.153  -0.261  13.784  0.1828  0.1789  0.1343
   44DOPE   H6R 5593   4.226  -0.178  13.801  2.2829 -1.6850  0.7275
   44DOPE   H6S 5594   4.208  -0.357  13.770  1.9977  1.3319 -1.0817
   44DOPE   C27 5595   4.066  -0.284  13.908 -0.3297  0.2262 -0.4308
   44DOPE   H7R 5596   4.019  -0.384  13.894 -0.6810  0.1998  0.8434
   44DOPE   H7S 5597   3.985  -0.207  13.913  0.0731  0.5647  1.5587
   44DOPE   C28 5598   4.143  -0.293  14.040 -0.3002 -0.0853  0.1371
   44DOPE   H8R 5599   4.182  -0.192  14.067 -1.6682 -0.1247  2.6664
   44DOPE   H8S 5600   4.232  -0.359  14.038  0.9948  1.6003 -0.6092
   44DOPE   C29 5601   4.047  -0.339  14.147  0.7709  0.0156 -0.0951
   44DOPE   H9R 5602   4.026  -0.446  14.138 -0.3104  0.2260 -0.2271
   44DOPE  C210 5603   3.986  -0.271  14.244 -0.2560 -0.0792  0.6211
   44DOPE  H10R 5604   3.915  -0.330  14.305  0.6420 -1.6959  0.1659
   44DOPE  C211 5605   4.000  -0.132  14.283  0.2236  0.0702  0.3377
   44DOPE  H11R 5606   4.008  -0.073  14.189 -1.5690 -0.5853 -0.2783
   44DOPE  H11S 5607   4.097  -0.120  14.336 -0.2105  0.7597  0.9786
   44DOPE  C212 5608   3.894  -0.061  14.369  0.1025 -0.0803  0.2197
   44DOPE  H12R 5609   3.858  -0.141  14.438 -0.9200  0.5501  0.4290
   44DOPE  H12S 5610   3.810  -0.038  14.300  1.0623 -0.6944 -1.2097
   44DOPE  C213 5611   3.952   0.064  14.440 -0.0472  0.6809  0.0828
   44DOPE  H13R 5612   3.994   0.141  14.372  0.5266  1.1674  0.9630
   44DOPE  H13S 5613   4.047   0.028  14.485  2.0531  1.5772 -3.2716
   44DOPE  C214 5614   3.865   0.125  14.550 -0.1523 -0.5041 -0.9275
   44DOPE  H14R 5615   3.762   0.147  14.514  0.0443  0.5273 -0.8810
   44DOPE  H14S 5616   3.907   0.223  14.582  1.2897 -1.0855 -0.9720
   44DOPE  C215 5617   3.874   0.027  14.672  0.4858  0.1016  0.3057
   44DOPE  H15R 5618   3.979   0.018  14.707  0.1445 -0.7267  1.1639
   44DOPE  H15S 5619   3.840  -0.073  14.639 -1.2279  1.1915 -1.4932
   44DOPE  C216 5620   3.787   0.072  14.792 -0.6927 -0.2398  0.0071
   44DOPE  H16R 5621   3.680   0.068  14.761 -0.7265 -1.7546  0.2587
   44DOPE  H16S 5622   3.823   0.175  14.812  0.9973 -0.6983 -0.4800
   44DOPE  C217 5623   3.798  -0.010  14.923  0.1055 -0.4191  0.5044
   44DOPE  H17R 5624   3.749   0.045  15.006  1.1348  0.4185  0.5691
   44DOPE  H17S 5625   3.906  -0.024  14.945  0.2457  1.4927  1.2498
   44DOPE  C218 5626   3.746  -0.146  14.914 -0.8172 -0.1566  0.4862
   44DOPE  H18R 5627   3.806  -0.207  14.843 -1.9067 -0.6291 -0.0465
   44DOPE  H18S 5628   3.647  -0.137  14.863  0.4518  0.9134 -1.9952
   44DOPE  H18T 5629   3.738  -0.192  15.014 -0.1265 -0.7479  0.2793
   44DOPE   C33 5630   3.556  -0.096  12.959  0.1744 -0.6598  0.4929
   44DOPE   H3X 5631   3.555  -0.047  12.860  1.4452 -1.6251 -0.0402
   44DOPE   H3Y 5632   3.546  -0.019  13.038 -1.7149  1.3599 -1.6167
   44DOPE   C34 5633   3.446  -0.195  12.982  0.1570  0.1893 -0.1369
   44DOPE   H4X 5634   3.447  -0.263  12.895  2.2636  1.3672 -1.1189
   44DOPE   H4Y 5635   3.453  -0.256  13.074 -0.1911 -1.1726 -0.9888
   44DOPE   C35 5636   3.295  -0.136  12.979 -0.5193  0.5346  0.0911
   44DOPE   H5X 5637   3.281  -0.084  12.882  0.4612  1.0023  0.1898
   44DOPE   H5Y 5638   3.299  -0.057  13.058  0.8197  1.8698 -1.2325
   44DOPE   C36 5639   3.193  -0.238  13.015 -0.1134  0.1975  0.2991
   44DOPE   H6X 5640   3.224  -0.272  13.116 -0.3445 -0.9858 -0.0168
   44DOPE   H6Y 5641   3.206  -0.329  12.954 -2.5618 -0.0773  0.1067
   44DOPE   C37 5642   3.055  -0.198  13.024  0.2549 -0.1257  0.3410
   44DOPE   H7X 5643   3.053  -0.123  13.107  1.7662  0.0368  0.2597
   44DOPE   H7Y 5644   3.012  -0.148  12.935  0.4154  0.6779  0.7048
   44DOPE   C38 5645   2.967  -0.319  13.069 -0.3746 -0.4142  0.4399
   44DOPE   H8X 5646   3.007  -0.342  13.170 -1.8700  0.6372  1.3041
   44DOPE   H8Y 5647   3.000  -0.398  12.998 -0.4230  0.2786 -0.3817
   44DOPE   C39 5648   2.825  -0.275  13.045  0.1030 -0.3202 -0.3078
   44DOPE   H9X 5649   2.799  -0.259  12.939 -1.9108 -1.0871  0.0206
   44DOPE  C310 5650   2.728  -0.237  13.135 -0.5375  0.6660 -0.1794
   44DOPE  H10X 5651   2.630  -0.206  13.096  0.1721  1.5829 -1.2905
   44DOPE  C311 5652   2.745  -0.245  13.286  0.3285  0.0573 -0.3806
   44DOPE  H11X 5653   2.814  -0.329  13.308  2.2638  1.3508 -1.1982
   44DOPE  H11Y 5654   2.797  -0.156  13.328  3.7821 -2.0876  0.3302
   44DOPE  C312 5655   2.610  -0.267  13.357 -0.0412 -0.5413  0.4094
   44DOPE  H12X 5656   2.551  -0.346  13.307 -0.9003 -0.2537  0.9568
   44DOPE  H12Y 5657   2.567  -0.165  13.351  3.4365  1.1012  0.6050
   44DOPE  C313 5658   2.635  -0.302  13.502 -0.3315 -0.5323 -0.5408
   44DOPE  H13X 5659   2.691  -0.397  13.517  0.4342  0.0818  0.6473
   44DOPE  H13Y 5660   2.699  -0.219  13.538 -1.2423 -1.4441  3.8807
   44DOPE  C314 5661   2.506  -0.302  13.587 -0.6082  0.4464 -0.4507
   44DOPE  H14X 5662   2.432  -0.373  13.544 -2.7935  1.2356  1.8089
   44DOPE  H14Y 5663   2.450  -0.206  13.581 -1.2669 -0.0045 -2.3838
   44DOPE  C315 5664   2.523  -0.346  13.737  0.1190  0.3900 -0.2491
   44DOPE  H15X 5665   2.574  -0.444  13.745  0.7087  0.7724  1.0386
   44DOPE  H15Y 5666   2.422  -0.359  13.783  0.6750 -0.6995  0.7107
   44DOPE  C316 5667   2.592  -0.240  13.824 -0.8228 -0.0417 -0.5198
   44DOPE  H16X 5668   2.521  -0.157  13.848  1.2320  1.9675 -1.0160
   44DOPE  H16Y 5669   2.680  -0.198  13.771 -2.2804  0.6599 -2.5191
   44DOPE  C317 5670   2.642  -0.293  13.963 -0.9841  0.0843 -0.6427
   44DOPE  H17X 5671   2.556  -0.333  14.022  0.8526 -1.2817  1.2630
   44DOPE  H17Y 5672   2.721  -0.368  13.941  0.0142  1.0444 -0.4027
   44DOPE  C318 5673   2.711  -0.177  14.040 -0.3450  0.4093 -0.4721
   44DOPE  H18X 5674   2.645  -0.090  14.063 -1.3094 -0.8633  1.9959
   44DOPE  H18Y 5675   2.758  -0.207  14.137  2.4592  1.1403 -1.4951
   44DOPE  H18Z 5676   2.789  -0.125  13.980  0.3739 -1.9219 -1.6364
   45DOPE     N 5677   5.561   6.752  12.766  0.1032 -0.3339  0.2252
   45DOPE   HN1 5678   5.651   6.701  12.763 -0.7251 -1.8983  0.4896
   45DOPE   HN2 5679   5.496   6.698  12.705  2.4045 -1.4305 -1.3686
   45DOPE   HN3 5680   5.562   6.841  12.712 -3.2020 -2.2421 -3.5039
   45DOPE   C12 5681   5.518   6.792  12.906 -0.9112 -0.1866 -0.0167
   45DOPE  H12A 5682   5.599   6.861  12.940 -0.3923  0.3414 -2.1768
   45DOPE  H12B 5683   5.521   6.704  12.973  1.5302 -0.3046 -0.1712
   45DOPE   C11 5684   5.381   6.851  12.914  0.2400  0.0678  0.1018
   45DOPE  H11A 5685   5.355   6.857  13.022 -0.8714 -3.2585  0.1352
   45DOPE  H11B 5686   5.303   6.785  12.870 -0.1018 -2.1749  3.6732
   45DOPE     P 5687   5.337   7.030  12.730 -0.0088 -0.0650 -0.1603
   45DOPE   O13 5688   5.387   6.947  12.623 -0.6285 -0.8333  0.0329
   45DOPE   O14 5689   5.382   7.173  12.718 -0.1519  0.0935  0.0407
   45DOPE   O11 5690   5.171   7.023  12.731 -0.0786  0.0949 -0.3451
   45DOPE   O12 5691   5.387   6.984  12.869 -0.3347 -0.2564 -0.0044
   45DOPE    C1 5692   5.088   7.027  12.848 -0.8753 -0.4626  0.5614
   45DOPE    HA 5693   5.154   7.035  12.937  0.4594  1.0145 -0.5121
   45DOPE    HB 5694   5.032   6.931  12.846 -0.3218 -0.7892  0.1597
   45DOPE    C2 5695   4.998   7.155  12.860 -0.3115  0.4564 -0.2191
   45DOPE    HS 5696   4.940   7.155  12.765 -0.4370  0.4120 -0.1437
   45DOPE   O21 5697   5.081   7.272  12.857  0.3003  0.1481  0.2973
   45DOPE   C21 5698   5.025   7.381  12.802  0.4207  0.1644  0.2498
   45DOPE   O22 5699   4.916   7.382  12.747 -0.1562  0.5104  0.4040
   45DOPE   C22 5700   5.113   7.501  12.809 -0.0381 -0.2132  0.1084
   45DOPE   H2R 5701   5.051   7.589  12.834 -0.2214 -0.1319 -0.6051
   45DOPE   H2S 5702   5.150   7.512  12.705  1.6028 -0.5256  0.6307
   45DOPE    C3 5703   4.903   7.148  12.987 -0.2459  0.3730 -0.8439
   45DOPE    HX 5704   4.832   7.063  12.985  0.0186  0.1344 -0.4138
   45DOPE    HY 5705   4.844   7.241  12.982  0.2235  0.9994  2.5060
   45DOPE   O31 5706   4.974   7.160  13.116 -0.2381 -0.8066  0.0908
   45DOPE   C31 5707   5.008   7.047  13.187  0.2200  0.6131  0.7009
   45DOPE   O32 5708   4.991   6.927  13.146 -0.0503 -0.2742 -0.0647
   45DOPE   C32 5709   5.086   7.082  13.318  0.5108 -0.7308 -0.3575
   45DOPE   H2X 5710   5.140   7.177  13.299  1.0341 -0.7577  0.8973
   45DOPE   H2Y 5711   5.001   7.093  13.390 -1.2294  1.0954 -2.5454
   45DOPE   C23 5712   5.233   7.488  12.915  0.3882 -0.8379 -0.6315
   45DOPE   H3R 5713   5.316   7.417  12.895 -0.0534 -1.5896  0.1394
   45DOPE   H3S 5714   5.182   7.455  13.008  0.6140  0.0123 -0.1896
   45DOPE   C24 5715   5.297   7.628  12.928  0.0568  0.7098 -0.5898
   45DOPE   H4R 5716   5.207   7.690  12.950 -1.3884 -1.0942 -1.1641
   45DOPE   H4S 5717   5.330   7.657  12.826  0.0322 -0.5292 -0.9631
   45DOPE   C25 5718   5.405   7.636  13.032  0.0855  0.6261 -0.3204
   45DOPE   H5R 5719   5.466   7.729  13.024  1.3775 -0.3053 -1.6597
   45DOPE   H5S 5720   5.476   7.553  13.015  0.3562 -0.0731  3.2535
   45DOPE   C26 5721   5.354   7.624  13.177  0.2330 -0.2677 -0.3443
   45DOPE   H6R 5722   5.283   7.538  13.185  0.5469 -0.9647 -3.5735
   45DOPE   H6S 5723   5.311   7.724  13.199  2.4747  0.5524  0.4851
   45DOPE   C27 5724   5.471   7.593  13.276 -0.1616  0.3055 -0.2996
   45DOPE   H7R 5725   5.441   7.635  13.375 -1.0572  0.6846 -0.7263
   45DOPE   H7S 5726   5.565   7.645  13.245  1.0064 -1.1820  0.6140
   45DOPE   C28 5727   5.504   7.440  13.300  0.6615  0.1047 -0.1195
   45DOPE   H8R 5728   5.609   7.420  13.330  0.4861 -0.9062 -0.1365
   45DOPE   H8S 5729   5.488   7.390  13.202 -1.1080  1.1693 -0.4163
   45DOPE   C29 5730   5.408   7.385  13.404  0.5029 -0.3122 -0.3764
   45DOPE   H9R 5731   5.313   7.338  13.373 -1.0905  2.0603  0.5765
   45DOPE  C210 5732   5.436   7.386  13.539 -0.2821  0.1889  0.2035
   45DOPE  H10R 5733   5.372   7.329  13.607 -0.4901  1.9558  1.5392
   45DOPE  C211 5734   5.547   7.459  13.613 -0.1145  0.4281  0.1964
   45DOPE  H11R 5735   5.599   7.522  13.538  1.5618 -0.7384  0.3195
   45DOPE  H11S 5736   5.632   7.393  13.641 -0.5205  0.7220  2.2981
   45DOPE  C212 5737   5.514   7.542  13.735  0.3727  0.0341  0.0760
   45DOPE  H12R 5738   5.471   7.638  13.700 -0.6298 -0.2285  0.5619
   45DOPE  H12S 5739   5.614   7.569  13.774 -0.5099  1.2374  1.6228
   45DOPE  C213 5740   5.445   7.468  13.846  0.9086  0.2492 -0.5242
   45DOPE  H13R 5741   5.505   7.376  13.864 -0.8042 -0.9220 -0.5710
   45DOPE  H13S 5742   5.345   7.442  13.807  0.4119  1.7552 -0.3411
   45DOPE  C214 5743   5.422   7.550  13.976 -0.6971  0.2324 -0.1372
   45DOPE  H14R 5744   5.386   7.649  13.943 -2.5548 -0.6474 -0.9091
   45DOPE  H14S 5745   5.524   7.550  14.019 -0.1381  0.6209 -1.4087
   45DOPE  C215 5746   5.321   7.491  14.071 -0.1233 -0.0797 -0.0276
   45DOPE  H15R 5747   5.351   7.385  14.084 -0.2704 -0.5569 -2.8613
   45DOPE  H15S 5748   5.225   7.474  14.017 -1.0616  0.8832  1.2771
   45DOPE  C216 5749   5.320   7.572  14.196 -0.2104  0.0254 -1.0592
   45DOPE  H16R 5750   5.285   7.675  14.173 -0.7493  0.6768  2.1869
   45DOPE  H16S 5751   5.426   7.582  14.228 -0.3354 -0.6440 -0.3851
   45DOPE  C217 5752   5.233   7.522  14.311  0.2073  0.1391  0.0732
   45DOPE  H17R 5753   5.280   7.424  14.332  2.1139  0.9509 -0.2402
   45DOPE  H17S 5754   5.127   7.506  14.280  0.0061  1.8926 -0.2642
   45DOPE  C218 5755   5.238   7.603  14.441  0.2641  0.0011 -0.3033
   45DOPE  H18R 5756   5.187   7.558  14.529  0.6700  1.1067  0.5183
   45DOPE  H18S 5757   5.193   7.703  14.424 -1.9447 -0.6049  1.4260
   45DOPE  H18T 5758   5.343   7.617  14.474  0.4960  0.7485 -1.3089
   45DOPE   C33 5759   5.189   6.977  13.367  0.4398  0.4019 -1.2451
   45DOPE   H3X 5760   5.270   6.980  13.290  2.0524 -0.5986  0.3301
   45DOPE   H3Y 5761   5.144   6.876  13.364 -1.2266  0.9775  1.1837
   45DOPE   C34 5762   5.250   7.003  13.508  0.1704 -0.3592 -0.5118
   45DOPE   H4X 5763   5.327   6.925  13.524  0.6163  0.5814  2.7372
   45DOPE   H4Y 5764   5.298   7.103  13.499  0.1122 -0.3333 -0.5348
   45DOPE   C35 5765   5.149   6.972  13.620 -0.4710 -0.6656 -0.1639
   45DOPE   H5X 5766   5.166   6.866  13.646  2.9375 -0.0749  0.5359
   45DOPE   H5Y 5767   5.045   6.984  13.585 -0.7372 -1.4772  0.3328
   45DOPE   C36 5768   5.161   7.062  13.745  0.0846 -0.0170  0.6885
   45DOPE   H6X 5769   5.086   7.026  13.819  0.3198  2.2876  2.1283
   45DOPE   H6Y 5770   5.140   7.168  13.722 -0.6978 -0.6790 -2.0044
   45DOPE   C37 5771   5.305   7.048  13.808  0.6330  0.0310 -0.2313
   45DOPE   H7X 5772   5.334   6.941  13.813 -0.2227 -0.1325  2.0864
   45DOPE   H7Y 5773   5.373   7.109  13.746 -0.1207 -1.7556 -3.0278
   45DOPE   C38 5774   5.321   7.108  13.945  0.6495  0.4612 -0.3287
   45DOPE   H8X 5775   5.281   7.211  13.936  2.6030  1.1494 -1.9141
   45DOPE   H8Y 5776   5.428   7.116  13.972  0.5970  0.2657 -0.0584
   45DOPE   C39 5777   5.264   7.024  14.057  0.0025  0.2629 -0.2068
   45DOPE   H9X 5778   5.182   6.958  14.027 -1.0302  1.6048 -0.4355
   45DOPE  C310 5779   5.297   7.020  14.189  0.4817 -0.0809  1.2401
   45DOPE  H10X 5780   5.235   6.955  14.253 -1.0906  1.2709  1.1721
   45DOPE  C311 5781   5.400   7.109  14.253 -0.3128  0.4505  0.1908
   45DOPE  H11X 5782   5.500   7.075  14.221 -2.0303 -2.9243 -2.1133
   45DOPE  H11Y 5783   5.386   7.217  14.228  0.6908 -0.1010 -3.2596
   45DOPE  C312 5784   5.396   7.096  14.412 -0.0310  0.0886  0.3194
   45DOPE  H12X 5785   5.419   6.988  14.428  0.0131 -0.3889 -2.4512
   45DOPE  H12Y 5786   5.295   7.128  14.443 -0.2714  1.2498 -1.5116
   45DOPE  C313 5787   5.508   7.185  14.492  0.5314 -0.2516 -0.2238
   45DOPE  H13X 5788   5.603   7.175  14.435  1.0198  2.8243 -0.1220
   45DOPE  H13Y 5789   5.491   7.294  14.476  0.0450 -0.2930  0.0065
   45DOPE  C314 5790   5.539   7.149  14.634  0.0625  0.0645 -0.0355
   45DOPE  H14X 5791   5.565   7.043  14.652 -0.9370  0.1492  2.3540
   45DOPE  H14Y 5792   5.442   7.154  14.688 -1.8596 -0.0571 -3.2058
   45DOPE  C315 5793   5.645   7.246  14.696  1.0264  0.4840  0.0216
   45DOPE  H15X 5794   5.608   7.348  14.676 -0.8250 -0.3542 -1.1181
   45DOPE  H15Y 5795   5.747   7.231  14.654  0.3815  1.5614 -2.0736
   45DOPE  C316 5796   5.646   7.235  14.856 -0.2078 -0.5927  0.4359
   45DOPE  H16X 5797   5.695   7.140  14.887  1.6550 -0.0066 -0.4977
   45DOPE  H16Y 5798   5.541   7.250  14.889 -0.6658 -1.6204 -0.4841
   45DOPE  C317 5799   5.733   7.342  14.923 -0.6339 -0.2255  0.7163
   45DOPE  H17X 5800   5.834   7.327  14.879 -1.2314 -0.8087 -0.5283
   45DOPE  H17Y 5801   5.705   7.447  14.898  1.3946  0.2714  0.3451
   45DOPE  C318 5802   5.726   7.318  15.075  0.1181  0.1088  0.3282
   45DOPE  H18X 5803   5.757   7.215  15.100 -0.1816  0.2598  1.3817
   45DOPE  H18Y 5804   5.799   7.388  15.121 -0.1230 -0.1517  1.1302
   45DOPE  H18Z 5805   5.626   7.342  15.118  0.0401  0.4935 -0.0625
   46DOPE     N 5806   4.699   5.196  12.817  0.5874 -0.1607  0.1175
   46DOPE   HN1 5807   4.674   5.297  12.822  0.2864 -0.1528 -1.2851
   46DOPE   HN2 5808   4.617   5.142  12.850  0.3695  1.3593  2.3355
   46DOPE   HN3 5809   4.766   5.185  12.896 -0.0743  0.3960  0.7799
   46DOPE   C12 5810   4.736   5.144  12.679  0.1023 -0.6093 -0.1412
   46DOPE  H12A 5811   4.645   5.127  12.617  0.9172 -1.0071 -1.2502
   46DOPE  H12B 5812   4.773   5.042  12.703 -1.1254 -1.3172 -1.1148
   46DOPE   C11 5813   4.833   5.231  12.599  0.1943  0.2434 -0.1344
   46DOPE  H11A 5814   4.846   5.183  12.499  0.3944 -1.2936  0.6017
   46DOPE  H11B 5815   4.936   5.233  12.641 -0.2579  1.7468  0.9743
   46DOPE     P 5816   4.840   5.495  12.567  0.3500  0.0628 -0.1232
   46DOPE   O13 5817   4.725   5.583  12.537  0.3247  0.3372  0.6729
   46DOPE   O14 5818   4.956   5.490  12.475 -0.2361  0.6297 -0.1986
   46DOPE   O11 5819   4.886   5.531  12.709 -0.3945 -0.1135 -0.8551
   46DOPE   O12 5820   4.773   5.359  12.583  0.0268  0.3050 -0.1086
   46DOPE    C1 5821   4.956   5.448  12.806 -0.1842 -0.0651 -0.3606
   46DOPE    HA 5822   5.008   5.364  12.756  0.8165  1.1591 -1.4758
   46DOPE    HB 5823   4.883   5.415  12.883 -0.7042  1.8711  0.0287
   46DOPE    C2 5824   5.075   5.525  12.876 -0.5364 -0.1832 -0.4439
   46DOPE    HS 5825   5.126   5.457  12.947  0.6804  0.6665 -0.4732
   46DOPE   O21 5826   5.028   5.642  12.939 -0.0951 -0.1274 -0.0598
   46DOPE   C21 5827   4.974   5.621  13.062 -0.1271  0.3982 -0.2002
   46DOPE   O22 5828   4.971   5.513  13.120 -0.5949 -0.7157  0.9226
   46DOPE   C22 5829   4.947   5.759  13.123 -0.4161  0.0368  0.1271
   46DOPE   H2R 5830   4.858   5.750  13.189  0.3909  0.3749  1.2923
   46DOPE   H2S 5831   4.922   5.826  13.039  1.5735 -0.5126 -0.9518
   46DOPE    C3 5832   5.182   5.588  12.775  0.3960 -0.1203 -0.0619
   46DOPE    HX 5833   5.121   5.664  12.721 -1.8114 -1.8465 -0.1023
   46DOPE    HY 5834   5.211   5.516  12.696  0.5638 -0.5802  0.4217
   46DOPE   O31 5835   5.296   5.640  12.847  0.0270  0.1866  0.3860
   46DOPE   C31 5836   5.389   5.550  12.867 -0.5421 -0.0521  0.1070
   46DOPE   O32 5837   5.387   5.426  12.846 -0.1496  0.0333  0.6626
   46DOPE   C32 5838   5.502   5.623  12.940  0.4632  0.0638 -0.0101
   46DOPE   H2X 5839   5.601   5.583  12.910 -0.0951 -0.0660 -1.7731
   46DOPE   H2Y 5840   5.501   5.725  12.895  1.0725 -1.4606 -3.9058
   46DOPE   C23 5841   5.071   5.822  13.193 -0.5452 -0.1473 -0.5349
   46DOPE   H3R 5842   5.152   5.844  13.121  0.5103  0.0632  0.6891
   46DOPE   H3S 5843   5.109   5.770  13.284  1.4165  2.0765  0.0011
   46DOPE   C24 5844   5.017   5.956  13.240  0.1098  0.0254  0.0090
   46DOPE   H4R 5845   4.936   5.955  13.315 -2.0316 -3.3727 -2.0645
   46DOPE   H4S 5846   4.980   6.003  13.146 -0.7947 -0.9663 -0.1416
   46DOPE   C25 5847   5.131   6.055  13.268 -0.0513  0.0482 -0.1090
   46DOPE   H5R 5848   5.101   6.162  13.265  1.7278  0.6381  1.5561
   46DOPE   H5S 5849   5.209   6.046  13.190 -0.6418  3.3940 -1.2851
   46DOPE   C26 5850   5.203   6.041  13.407 -0.0022 -0.1507 -0.1347
   46DOPE   H6R 5851   5.293   6.104  13.392  1.2891 -2.0966 -0.8904
   46DOPE   H6S 5852   5.237   5.936  13.419 -0.3915 -0.3117 -0.4203
   46DOPE   C27 5853   5.113   6.099  13.521  0.3882 -0.4125 -0.1070
   46DOPE   H7R 5854   5.040   6.030  13.568 -0.3732  0.4130 -0.0464
   46DOPE   H7S 5855   5.074   6.198  13.490  2.5941  0.2321 -1.0476
   46DOPE   C28 5856   5.209   6.122  13.644 -0.5074  0.0990  0.0341
   46DOPE   H8R 5857   5.302   6.168  13.603 -1.0055  0.2498 -0.9714
   46DOPE   H8S 5858   5.246   6.023  13.676 -2.0469 -0.6961 -0.5302
   46DOPE   C29 5859   5.146   6.202  13.757  0.0074  0.3542 -0.9763
   46DOPE   H9R 5860   5.169   6.310  13.749  0.0978  0.6364  2.0099
   46DOPE  C210 5861   5.070   6.144  13.852 -0.2757  0.5819 -0.6926
   46DOPE  H10R 5862   5.015   6.206  13.924 -0.4792 -0.4319  0.0565
   46DOPE  C211 5863   5.051   6.000  13.878  0.3747  0.1246 -0.2173
   46DOPE  H11R 5864   5.059   5.934  13.789 -0.8739  0.1552 -0.3704
   46DOPE  H11S 5865   4.950   5.984  13.921  1.4323  0.7270  2.6785
   46DOPE  C212 5866   5.137   5.923  13.979 -0.5007  0.3550 -0.5124
   46DOPE  H12R 5867   5.246   5.940  13.965 -0.0098  0.7319  2.8633
   46DOPE  H12S 5868   5.132   5.813  13.968 -1.5408  0.4422 -1.0370
   46DOPE  C213 5869   5.098   5.959  14.121 -0.3755 -1.2270  0.2751
   46DOPE  H13R 5870   5.028   5.883  14.161 -0.5111 -0.7837  0.9015
   46DOPE  H13S 5871   5.047   6.058  14.126  0.6606 -0.5826 -1.1171
   46DOPE  C214 5872   5.214   5.962  14.221  1.2777  0.1767 -0.5078
   46DOPE  H14R 5873   5.274   6.054  14.201  0.4717  0.3815 -2.1817
   46DOPE  H14S 5874   5.284   5.880  14.195  2.3532  0.6901  0.6809
   46DOPE  C215 5875   5.156   5.958  14.369 -0.6277  0.2740  0.1210
   46DOPE  H15R 5876   5.107   5.861  14.393 -0.3544  0.4634  1.5377
   46DOPE  H15S 5877   5.079   6.034  14.393  0.8294  2.1616 -0.8820
   46DOPE  C216 5878   5.264   5.995  14.471  0.1968  0.5647  0.8010
   46DOPE  H16R 5879   5.294   6.100  14.452  0.5754  0.1890 -0.7837
   46DOPE  H16S 5880   5.353   5.932  14.452 -0.7870 -0.5682 -0.2537
   46DOPE  C217 5881   5.229   5.972  14.622 -0.3417 -0.7654  0.2259
   46DOPE  H17R 5882   5.211   5.865  14.644 -1.3953 -0.0629  3.2912
   46DOPE  H17S 5883   5.131   6.022  14.639  0.3300  1.3764 -1.6591
   46DOPE  C218 5884   5.339   6.033  14.713 -0.2544 -0.5201  0.7527
   46DOPE  H18R 5885   5.322   6.006  14.820  0.5276  0.0370  1.0261
   46DOPE  H18S 5886   5.358   6.141  14.694  0.8510 -1.1378 -2.2969
   46DOPE  H18T 5887   5.432   5.984  14.677 -0.5138 -0.0001 -0.7126
   46DOPE   C33 5888   5.493   5.639  13.093 -0.4272 -0.1179 -0.0505
   46DOPE   H3X 5889   5.403   5.701  13.112 -0.9928  0.8432 -4.6382
   46DOPE   H3Y 5890   5.579   5.692  13.139  1.0538 -1.7754 -0.7881
   46DOPE   C34 5891   5.485   5.504  13.172  0.0342  0.0548 -0.4452
   46DOPE   H4X 5892   5.443   5.424  13.108  0.1560  0.3256 -0.8693
   46DOPE   H4Y 5893   5.582   5.456  13.198 -1.1520 -1.6797  0.9699
   46DOPE   C35 5894   5.395   5.518  13.294  0.3390  1.0515  0.6954
   46DOPE   H5X 5895   5.405   5.415  13.334  3.2392  1.1712  0.4817
   46DOPE   H5Y 5896   5.296   5.548  13.254  1.0477  1.0059 -1.1593
   46DOPE   C36 5897   5.426   5.628  13.393 -0.5701 -0.3182 -0.6352
   46DOPE   H6X 5898   5.387   5.724  13.352  1.7472  0.0796 -2.0625
   46DOPE   H6Y 5899   5.537   5.625  13.396 -0.5899 -2.0527 -0.5853
   46DOPE   C37 5900   5.381   5.585  13.532 -0.6627  0.3136 -0.4383
   46DOPE   H7X 5901   5.285   5.528  13.528 -0.4302 -0.2872  1.5842
   46DOPE   H7Y 5902   5.453   5.505  13.560  0.1427  1.2039  0.0849
   46DOPE   C38 5903   5.370   5.693  13.634 -0.5940 -0.5520  0.3878
   46DOPE   H8X 5904   5.302   5.775  13.600  1.6756  1.7762  1.1081
   46DOPE   H8Y 5905   5.473   5.735  13.636 -1.3979  1.6615 -0.7568
   46DOPE   C39 5906   5.325   5.621  13.760 -0.2917 -0.0097 -0.4621
   46DOPE   H9X 5907   5.247   5.545  13.744 -0.7180  0.1795  0.6157
   46DOPE  C310 5908   5.366   5.618  13.889  0.1476  0.3290  0.3130
   46DOPE  H10X 5909   5.320   5.561  13.971  1.5400 -1.4966 -0.1163
   46DOPE  C311 5910   5.474   5.716  13.931 -0.0210 -0.4271  0.5921
   46DOPE  H11X 5911   5.533   5.758  13.846 -3.0658 -0.2948 -1.5951
   46DOPE  H11Y 5912   5.439   5.803  13.991  3.0983  1.4438 -0.0633
   46DOPE  C312 5913   5.588   5.663  14.025  0.9276 -0.4518 -0.0462
   46DOPE  H12X 5914   5.645   5.578  13.981  1.3075 -0.9014  1.2683
   46DOPE  H12Y 5915   5.522   5.623  14.105 -0.3706 -0.1029 -0.9022
   46DOPE  C313 5916   5.680   5.775  14.086  0.1346 -1.0687 -0.3181
   46DOPE  H13X 5917   5.749   5.805  14.003 -0.7652  0.3600 -0.5844
   46DOPE  H13Y 5918   5.634   5.870  14.119  2.3469 -0.0130 -0.0405
   46DOPE  C314 5919   5.771   5.729  14.202  0.3487 -0.7025 -0.7942
   46DOPE  H14X 5920   5.876   5.744  14.169  0.1239  0.3927 -1.0354
   46DOPE  H14Y 5921   5.765   5.618  14.211 -1.9399 -0.5332  0.4278
   46DOPE  C315 5922   5.742   5.787  14.338 -0.2639  0.2353  0.1693
   46DOPE  H15X 5923   5.647   5.743  14.374 -0.5003 -0.0970 -0.8246
   46DOPE  H15Y 5924   5.711   5.893  14.328  2.3726  0.9537 -1.3022
   46DOPE  C316 5925   5.854   5.768  14.448  0.0028  0.2211  0.2650
   46DOPE  H16X 5926   5.937   5.839  14.431  1.2743 -1.0792  0.8047
   46DOPE  H16Y 5927   5.888   5.664  14.429 -1.7038 -0.2916 -0.2020
   46DOPE  C317 5928   5.794   5.777  14.588 -0.2234  0.3275  0.8672
   46DOPE  H17X 5929   5.772   5.884  14.610 -1.0872  0.0589  1.3586
   46DOPE  H17Y 5930   5.698   5.721  14.590  0.4771 -0.8839  1.0977
   46DOPE  C318 5931   5.886   5.719  14.693  0.4344 -0.2924  0.0738
   46DOPE  H18X 5932   5.834   5.727  14.791  0.1735  0.0157 -0.0883
   46DOPE  H18Y 5933   5.912   5.613  14.671  0.7699 -0.6287  1.8794
   46DOPE  H18Z 5934   5.982   5.775  14.693  0.2922  0.0049  1.3741
   47DOPE     N 5935   1.933   4.850  12.761  0.1892 -0.2596  0.0685
   47DOPE   HN1 5936   1.999   4.926  12.735  2.5805 -2.1475  0.3094
   47DOPE   HN2 5937   1.861   4.877  12.832 -1.5375  0.3454 -1.8142
   47DOPE   HN3 5938   1.984   4.771  12.805 -0.3579 -0.9618 -0.5400
   47DOPE   C12 5939   1.852   4.817  12.646  0.7981  0.2913 -0.4186
   47DOPE  H12A 5940   1.918   4.764  12.573  0.2948 -1.2581  0.2141
   47DOPE  H12B 5941   1.811   4.910  12.602  2.0492  0.1247 -2.0346
   47DOPE   C11 5942   1.740   4.715  12.682 -0.3460 -1.1895 -0.0709
   47DOPE  H11A 5943   1.793   4.619  12.700  2.2802  0.4582  1.6667
   47DOPE  H11B 5944   1.674   4.697  12.594  1.2940 -1.6196 -1.2524
   47DOPE     P 5945   1.546   4.724  12.861  0.3828  0.0370  0.4151
   47DOPE   O13 5946   1.456   4.669  12.752 -0.3662  0.1650 -0.3861
   47DOPE   O14 5947   1.493   4.836  12.930 -0.1797 -0.6901  0.1225
   47DOPE   O11 5948   1.576   4.607  12.965 -0.2503  0.0112  0.2771
   47DOPE   O12 5949   1.678   4.769  12.798  0.0463 -0.4236  0.0046
   47DOPE    C1 5950   1.673   4.641  13.068  0.9227 -0.4213 -0.3481
   47DOPE    HA 5951   1.667   4.747  13.099 -0.8086 -0.7754  0.6633
   47DOPE    HB 5952   1.774   4.625  13.026  1.3083  1.2025 -0.0878
   47DOPE    C2 5953   1.659   4.556  13.190  0.7850  0.1295 -0.4948
   47DOPE    HS 5954   1.652   4.448  13.162  0.3513 -0.1775  0.7444
   47DOPE   O21 5955   1.536   4.600  13.257  0.0706  0.2276  0.0016
   47DOPE   C21 5956   1.501   4.525  13.366 -0.3993  0.7308  0.3072
   47DOPE   O22 5957   1.556   4.421  13.399  0.0772  0.3603 -0.9033
   47DOPE   C22 5958   1.365   4.574  13.423 -0.4832 -0.0602  0.6123
   47DOPE   H2R 5959   1.293   4.571  13.337 -0.6051  1.0223  0.6578
   47DOPE   H2S 5960   1.381   4.677  13.463 -2.7804  0.4981  0.2715
   47DOPE    C3 5961   1.784   4.574  13.271 -0.0418  0.8001 -0.4361
   47DOPE    HX 5962   1.870   4.540  13.210  0.2949 -1.6794  1.2814
   47DOPE    HY 5963   1.787   4.500  13.353 -1.7960  0.7182 -0.4128
   47DOPE   O31 5964   1.801   4.709  13.315 -0.1386 -0.6732 -0.3446
   47DOPE   C31 5965   1.906   4.780  13.274 -0.6566  1.0140 -0.3525
   47DOPE   O32 5966   2.000   4.729  13.212  0.3140 -0.0286 -0.3064
   47DOPE   C32 5967   1.898   4.924  13.320  0.1409 -0.8285  0.4623
   47DOPE   H2X 5968   1.890   4.986  13.228 -0.8099  1.3749  1.9469
   47DOPE   H2Y 5969   1.799   4.945  13.365  0.0579 -0.2002  0.0126
   47DOPE   C23 5970   1.302   4.479  13.535 -0.3809 -0.1941  0.8228
   47DOPE   H3R 5971   1.346   4.382  13.505 -1.1023 -0.3156  0.0990
   47DOPE   H3S 5972   1.192   4.461  13.531 -0.0893 -2.7097  2.5327
   47DOPE   C24 5973   1.339   4.502  13.676 -0.1857 -0.2229 -0.0519
   47DOPE   H4R 5974   1.293   4.593  13.720  0.1261 -0.4363  0.7389
   47DOPE   H4S 5975   1.450   4.501  13.682 -0.2455 -0.3720  1.4631
   47DOPE   C25 5976   1.273   4.395  13.765 -0.5692 -0.0134 -0.0096
   47DOPE   H5R 5977   1.328   4.298  13.765 -1.1640 -0.3691  1.1438
   47DOPE   H5S 5978   1.176   4.377  13.714 -0.3554 -0.3418 -0.3033
   47DOPE   C26 5979   1.260   4.434  13.914  0.6274 -0.0780 -0.0518
   47DOPE   H6R 5980   1.212   4.534  13.910  1.7713  0.4578 -0.8659
   47DOPE   H6S 5981   1.362   4.450  13.953  0.9285  2.5547 -1.6778
   47DOPE   C27 5982   1.177   4.329  13.996 -0.9280  0.2775 -0.0392
   47DOPE   H7R 5983   1.229   4.232  13.984  0.3867  0.7495  1.3815
   47DOPE   H7S 5984   1.075   4.313  13.956 -0.6228 -3.1250  0.2539
   47DOPE   C28 5985   1.184   4.376  14.146  0.0607  0.1815  0.4529
   47DOPE   H8R 5986   1.106   4.327  14.208 -1.1622 -0.0074 -1.1785
   47DOPE   H8S 5987   1.145   4.480  14.134 -1.6220 -0.2211  1.9607
   47DOPE   C29 5988   1.318   4.359  14.211  0.0138 -0.6932 -0.6829
   47DOPE   H9R 5989   1.343   4.257  14.242  0.0829  0.0183  1.8903
   47DOPE  C210 5990   1.411   4.456  14.243 -0.4133  0.0808  0.0682
   47DOPE  H10R 5991   1.499   4.427  14.303  1.5613 -1.2354 -3.2103
   47DOPE  C211 5992   1.387   4.600  14.217 -0.3709  0.4185 -0.3826
   47DOPE  H11R 5993   1.382   4.661  14.309 -0.3277 -0.0911 -0.0379
   47DOPE  H11S 5994   1.293   4.605  14.158 -1.5212 -0.2754  1.3260
   47DOPE  C212 5995   1.492   4.669  14.125  0.9514  0.1281  0.6015
   47DOPE  H12R 5996   1.493   4.616  14.027  0.7346  0.8014  0.2337
   47DOPE  H12S 5997   1.588   4.684  14.179  1.0085  0.2580  0.4662
   47DOPE  C213 5998   1.445   4.808  14.067  0.0368  0.1726 -0.3564
   47DOPE  H13R 5999   1.421   4.869  14.156  1.9757 -0.5657  0.7422
   47DOPE  H13S 6000   1.350   4.791  14.012 -1.1063  2.9766  0.5758
   47DOPE  C214 6001   1.552   4.880  13.979 -0.8909 -0.0212 -0.5905
   47DOPE  H14R 6002   1.639   4.882  14.048 -0.2955  1.0144 -1.3467
   47DOPE  H14S 6003   1.506   4.976  13.946  0.1437  0.3265 -1.0458
   47DOPE  C215 6004   1.597   4.803  13.848 -0.4529 -0.5718 -0.5785
   47DOPE  H15R 6005   1.507   4.785  13.785 -1.3297  3.0456 -0.5534
   47DOPE  H15S 6006   1.634   4.704  13.883  2.0950  0.6782  0.5304
   47DOPE  C216 6007   1.702   4.874  13.761  0.2376  0.1593  0.2443
   47DOPE  H16R 6008   1.785   4.903  13.829  0.2823  0.9188 -0.1198
   47DOPE  H16S 6009   1.650   4.964  13.721  1.4446 -0.2295 -2.4090
   47DOPE  C217 6010   1.756   4.799  13.641 -0.3451 -0.0172 -0.0607
   47DOPE  H17R 6011   1.821   4.865  13.579 -1.4235 -1.2041 -2.6081
   47DOPE  H17S 6012   1.678   4.754  13.575  0.3778 -2.3986  0.6108
   47DOPE  C218 6013   1.836   4.672  13.684 -0.7084 -0.3767 -0.5622
   47DOPE  H18R 6014   1.935   4.689  13.732 -1.0491 -0.5183  0.2208
   47DOPE  H18S 6015   1.855   4.613  13.592  3.6375 -0.0879 -0.0480
   47DOPE  H18T 6016   1.771   4.611  13.752 -0.4834  1.3404  1.2909
   47DOPE   C33 6017   2.020   4.967  13.401  0.5440  0.0068 -0.4700
   47DOPE   H3X 6018   2.109   4.944  13.337 -0.1500 -0.9309 -1.1325
   47DOPE   H3Y 6019   2.028   4.919  13.501 -0.0218  2.7515  0.9793
   47DOPE   C34 6020   2.035   5.113  13.413 -0.7325  0.1098  0.0970
   47DOPE   H4X 6021   2.141   5.134  13.440 -0.4646 -1.9031  0.7835
   47DOPE   H4Y 6022   2.016   5.163  13.316 -0.6065 -0.4192 -0.2006
   47DOPE   C35 6023   1.938   5.182  13.510  0.2815  1.0218 -0.1070
   47DOPE   H5X 6024   1.835   5.148  13.485  1.1239 -1.2451 -0.8042
   47DOPE   H5Y 6025   1.942   5.290  13.486  1.5324  0.8846 -0.5623
   47DOPE   C36 6026   1.976   5.147  13.656 -0.6092 -0.7707 -0.8029
   47DOPE   H6X 6027   1.962   5.039  13.676  0.0775 -0.4715  1.6846
   47DOPE   H6Y 6028   1.904   5.204  13.719 -0.0797  0.2568 -1.0967
   47DOPE   C37 6029   2.119   5.202  13.694  0.3080 -0.3654 -0.0479
   47DOPE   H7X 6030   2.192   5.131  13.650 -1.3085 -1.2674 -1.3991
   47DOPE   H7Y 6031   2.127   5.300  13.644  0.8822  1.2476  2.9487
   47DOPE   C38 6032   2.156   5.212  13.844 -0.4362 -1.0060  0.3309
   47DOPE   H8X 6033   2.169   5.110  13.887 -0.5358 -0.7758  0.9055
   47DOPE   H8Y 6034   2.078   5.269  13.897  1.2214  0.0314  1.7524
   47DOPE   C39 6035   2.290   5.281  13.862  0.6146  0.1199  0.9721
   47DOPE   H9X 6036   2.339   5.328  13.776  1.2611 -1.5117  0.4209
   47DOPE  C310 6037   2.340   5.303  13.985  0.7731  0.4712 -1.1801
   47DOPE  H10X 6038   2.423   5.374  13.995  0.3166  0.9187 -0.5003
   47DOPE  C311 6039   2.281   5.258  14.115 -0.4413 -0.5759  0.5358
   47DOPE  H11X 6040   2.177   5.221  14.111 -1.5954  2.3949 -0.0856
   47DOPE  H11Y 6041   2.350   5.181  14.154  2.7645  1.2043 -1.2232
   47DOPE  C312 6042   2.287   5.370  14.222 -0.2511  0.7668  0.3883
   47DOPE  H12X 6043   2.383   5.421  14.200 -0.9637  1.0941 -2.2673
   47DOPE  H12Y 6044   2.302   5.320  14.320  0.7116 -1.4726 -0.8085
   47DOPE  C313 6045   2.147   5.443  14.230  0.1304  0.8399 -0.2500
   47DOPE  H13X 6046   2.107   5.476  14.131 -2.4022  0.8563  0.7043
   47DOPE  H13Y 6047   2.074   5.373  14.276 -0.1438  0.1362 -1.6948
   47DOPE  C314 6048   2.155   5.561  14.325 -0.6382 -0.5811  0.0875
   47DOPE  H14X 6049   2.222   5.643  14.291 -2.0259  0.5400 -0.0399
   47DOPE  H14Y 6050   2.185   5.517  14.422 -1.1421 -0.9812  0.0642
   47DOPE  C315 6051   2.022   5.639  14.328 -0.0589 -0.4385  0.1082
   47DOPE  H15X 6052   1.999   5.659  14.221 -0.5796 -0.7921  0.1518
   47DOPE  H15Y 6053   2.036   5.738  14.378  3.9718 -1.0487  0.4771
   47DOPE  C316 6054   1.900   5.560  14.395 -0.2998 -0.0380 -0.0109
   47DOPE  H16X 6055   1.946   5.469  14.440  1.6369  1.1406  0.5443
   47DOPE  H16Y 6056   1.829   5.536  14.314  1.0669  0.7405 -1.4927
   47DOPE  C317 6057   1.827   5.643  14.508 -0.1129  0.2311 -0.5531
   47DOPE  H17X 6058   1.886   5.648  14.601  0.4711  0.5192 -0.9353
   47DOPE  H17Y 6059   1.808   5.746  14.470 -2.0128 -0.2349 -0.9827
   47DOPE  C318 6060   1.692   5.582  14.540 -0.0600  0.0285 -0.2464
   47DOPE  H18X 6061   1.691   5.486  14.596 -2.1761 -0.3983 -0.9105
   47DOPE  H18Y 6062   1.639   5.654  14.606 -0.4192  0.6653 -1.2122
   47DOPE  H18Z 6063   1.634   5.577  14.446  2.2298 -0.6558 -1.6836
   48DOPE     N 6064   0.030   0.958  12.507  0.0902  0.1577 -0.2427
   48DOPE   HN1 6065   0.076   1.048  12.529  0.3960 -0.0021 -0.2147
   48DOPE   HN2 6066   0.106   0.887  12.499  0.8416  0.9246  0.0110
   48DOPE   HN3 6067  -0.025   0.961  12.419  0.0807  1.4897 -0.2095
   48DOPE   C12 6068  -0.070   0.929  12.610 -0.0675 -0.0144 -0.5530
   48DOPE  H12A 6069  -0.129   0.840  12.580  1.1236 -1.0363  0.0031
   48DOPE  H12B 6070  -0.136   1.018  12.611  0.0598  0.1301 -2.2521
   48DOPE   C11 6071  -0.003   0.904  12.747 -0.1992 -0.5909  0.5747
   48DOPE  H11A 6072  -0.087   0.886  12.817 -1.2841  1.8670  0.0254
   48DOPE  H11B 6073   0.051   0.988  12.797  1.3337 -1.1838 -0.0194
   48DOPE     P 6074   0.028   0.646  12.767  0.1470 -0.1561 -0.0107
   48DOPE   O13 6075   0.136   0.541  12.753 -0.1386 -0.0126 -0.3565
   48DOPE   O14 6076  -0.099   0.633  12.689 -0.0035 -0.0293  0.0705
   48DOPE   O11 6077  -0.006   0.668  12.920 -0.1565  0.4387 -0.1961
   48DOPE   O12 6078   0.085   0.794  12.741 -0.1275  0.7533 -0.4668
   48DOPE    C1 6079   0.089   0.712  13.016  0.2306 -0.8998  0.0779
   48DOPE    HA 6080   0.059   0.815  13.045 -0.9528 -1.4191  0.7959
   48DOPE    HB 6081   0.190   0.722  12.971  0.5960  0.2910  1.1064
   48DOPE    C2 6082   0.089   0.629  13.155  0.3047  0.2063  0.2316
   48DOPE    HS 6083   0.098   0.520  13.135 -0.7048  0.1236  0.1592
   48DOPE   O21 6084  -0.036   0.648  13.216  0.1841 -0.0432 -0.1317
   48DOPE   C21 6085  -0.069   0.577  13.329  0.7720 -0.5492  0.2033
   48DOPE   O22 6086  -0.007   0.481  13.370 -0.1001 -0.7505 -0.4335
   48DOPE   C22 6087  -0.187   0.650  13.398 -0.4918  0.1699 -0.2851
   48DOPE   H2R 6088  -0.230   0.720  13.323  1.6053  0.2191 -1.5461
   48DOPE   H2S 6089  -0.137   0.716  13.472 -2.2918 -0.9014  1.9901
   48DOPE    C3 6090   0.204   0.679  13.244 -0.2533  0.5645  0.6024
   48DOPE    HX 6091   0.306   0.665  13.201 -1.2210 -0.2129 -1.5503
   48DOPE    HY 6092   0.213   0.614  13.333 -1.5937 -0.0861  0.2844
   48DOPE   O31 6093   0.185   0.813  13.298 -0.3628  0.3022  0.0583
   48DOPE   C31 6094   0.246   0.905  13.229  1.1650 -0.5887 -0.4552
   48DOPE   O32 6095   0.322   0.891  13.138 -0.4246  0.7080 -0.4131
   48DOPE   C32 6096   0.208   1.044  13.283 -0.3845 -0.3903  0.1165
   48DOPE   H2X 6097   0.286   1.067  13.358 -0.3880  0.7365 -0.2154
   48DOPE   H2Y 6098   0.212   1.119  13.201 -0.6756  2.4246  2.5198
   48DOPE   C23 6099  -0.294   0.564  13.475 -0.3671  0.2495 -0.2744
   48DOPE   H3R 6100  -0.329   0.474  13.420  0.5125  0.2993 -0.9371
   48DOPE   H3S 6101  -0.384   0.624  13.500 -1.0314 -0.7642 -0.1634
   48DOPE   C24 6102  -0.249   0.537  13.624 -0.2604 -0.2947  0.2478
   48DOPE   H4R 6103  -0.206   0.633  13.660  2.5315 -1.6611  0.8692
   48DOPE   H4S 6104  -0.163   0.467  13.616  0.1024  0.1155  0.4968
   48DOPE   C25 6105  -0.362   0.481  13.707  0.3123 -0.2099  0.3425
   48DOPE   H5R 6106  -0.363   0.376  13.671 -2.9830  0.2084 -1.1674
   48DOPE   H5S 6107  -0.459   0.531  13.687  0.5519  0.5940  1.1441
   48DOPE   C26 6108  -0.328   0.496  13.852 -0.1382 -0.1209 -0.1710
   48DOPE   H6R 6109  -0.329   0.603  13.880  0.8475 -0.0014 -0.5793
   48DOPE   H6S 6110  -0.225   0.455  13.865  0.8461  1.2302 -2.9928
   48DOPE   C27 6111  -0.427   0.436  13.955 -0.0440 -0.5805  0.0632
   48DOPE   H7R 6112  -0.432   0.326  13.937 -0.6629 -0.7255  1.0494
   48DOPE   H7S 6113  -0.523   0.479  13.921  0.6427  0.5353 -0.5234
   48DOPE   C28 6114  -0.391   0.472  14.097 -0.1480  0.0695  0.1525
   48DOPE   H8R 6115  -0.401   0.582  14.104  1.5281  0.1414  2.6876
   48DOPE   H8S 6116  -0.281   0.458  14.106 -0.3606 -1.0888  1.2115
   48DOPE   C29 6117  -0.466   0.394  14.202 -0.3848  0.1347  0.6296
   48DOPE   H9R 6118  -0.575   0.380  14.192  0.0429 -2.4508 -1.5267
   48DOPE  C210 6119  -0.400   0.343  14.307 -0.5045  0.2833 -0.7876
   48DOPE  H10R 6120  -0.456   0.293  14.387 -0.7397  1.1263 -0.4190
   48DOPE  C211 6121  -0.254   0.347  14.334  0.7841 -0.0608  0.0261
   48DOPE  H11R 6122  -0.201   0.363  14.238 -3.0938  0.8363 -2.1779
   48DOPE  H11S 6123  -0.218   0.261  14.395  0.8472  1.0262  1.5846
   48DOPE  C212 6124  -0.214   0.472  14.419 -0.2501 -0.0567 -0.1520
   48DOPE  H12R 6125  -0.263   0.555  14.364  1.7062 -0.2531 -2.3542
   48DOPE  H12S 6126  -0.104   0.483  14.407 -0.4868  0.9947 -1.5871
   48DOPE  C213 6127  -0.237   0.451  14.571 -0.0198 -0.0721 -0.3494
   48DOPE  H13R 6128  -0.190   0.357  14.607 -2.7016 -1.9665 -1.4498
   48DOPE  H13S 6129  -0.346   0.427  14.568  0.1911 -0.9899 -1.8088
   48DOPE  C214 6130  -0.211   0.573  14.664 -0.8873  0.4132 -0.2627
   48DOPE  H14R 6131  -0.296   0.642  14.645 -0.1750  1.0032 -1.3838
   48DOPE  H14S 6132  -0.116   0.623  14.634 -0.0228 -0.9675  0.0806
   48DOPE  C215 6133  -0.220   0.543  14.813 -0.0587 -0.2542 -0.1374
   48DOPE  H15R 6134  -0.134   0.473  14.827  1.5600  1.8071  0.8183
   48DOPE  H15S 6135  -0.312   0.482  14.829 -1.0104  1.2686  0.3785
   48DOPE  C216 6136  -0.230   0.665  14.897  0.0818 -0.0656 -0.2698
   48DOPE  H16R 6137  -0.332   0.668  14.939  0.5336 -2.0069  1.1012
   48DOPE  H16S 6138  -0.220   0.755  14.832  0.6995 -0.1712 -0.3274
   48DOPE  C217 6139  -0.125   0.673  15.010  0.3844  0.2134  0.1380
   48DOPE  H17R 6140  -0.027   0.683  14.960 -0.3595  2.2829 -1.0464
   48DOPE  H17S 6141  -0.130   0.579  15.068  0.8698  0.5970  0.8178
   48DOPE  C218 6142  -0.145   0.788  15.109 -0.0050  0.0214  0.0660
   48DOPE  H18R 6143  -0.080   0.786  15.199  1.8950 -1.1252 -1.2764
   48DOPE  H18S 6144  -0.245   0.764  15.152  0.3684  1.4277  1.8702
   48DOPE  H18T 6145  -0.151   0.884  15.053 -2.5404 -0.2809 -0.3138
   48DOPE   C33 6146   0.069   1.062  13.354 -0.2082  0.1787  0.7217
   48DOPE   H3X 6147   0.063   0.985  13.434 -2.0488 -0.0235  0.4335
   48DOPE   H3Y 6148  -0.003   1.044  13.271  2.0200 -0.5821 -1.1509
   48DOPE   C34 6149   0.041   1.197  13.410  0.1075 -0.7208  0.4551
   48DOPE   H4X 6150   0.056   1.276  13.334 -1.6157 -0.4546  0.3417
   48DOPE   H4Y 6151  -0.070   1.202  13.421  0.0944  0.6303 -0.0535
   48DOPE   C35 6152   0.102   1.228  13.542 -0.0154  0.5596 -0.4279
   48DOPE   H5X 6153   0.211   1.203  13.544  0.5842  2.7546  2.2155
   48DOPE   H5Y 6154   0.044   1.166  13.614 -1.1412  0.5369 -1.3395
   48DOPE   C36 6155   0.073   1.377  13.587 -0.1049  0.4457 -0.0128
   48DOPE   H6X 6156  -0.035   1.401  13.582 -0.4385 -1.1558 -1.7483
   48DOPE   H6Y 6157   0.123   1.449  13.518 -0.1645 -1.1215 -1.7958
   48DOPE   C37 6158   0.118   1.399  13.738 -1.1249  0.3816  0.0326
   48DOPE   H7X 6159   0.108   1.502  13.778  1.2341  0.7530 -0.1706
   48DOPE   H7Y 6160   0.060   1.321  13.793 -0.3874  0.0283  0.3198
   48DOPE   C38 6161   0.263   1.363  13.765  0.5062 -0.1801  0.2770
   48DOPE   H8X 6162   0.324   1.393  13.677  1.3337 -1.7270  0.2866
   48DOPE   H8Y 6163   0.269   1.252  13.771 -0.7775 -0.2821  0.0404
   48DOPE   C39 6164   0.320   1.424  13.887  0.4689  0.2727 -0.1822
   48DOPE   H9X 6165   0.281   1.523  13.917  0.1292 -0.4043  1.7944
   48DOPE  C310 6166   0.404   1.364  13.975 -1.0569 -0.4897  0.3738
   48DOPE  H10X 6167   0.438   1.419  14.065  0.1840 -1.1710  0.3430
   48DOPE  C311 6168   0.453   1.222  13.978  0.3795 -0.2552 -0.4193
   48DOPE  H11X 6169   0.449   1.180  13.875 -1.0100  0.9279 -0.8853
   48DOPE  H11Y 6170   0.555   1.207  14.020  1.1015  0.8388 -1.6965
   48DOPE  C312 6171   0.351   1.139  14.059 -0.3935 -0.0429 -0.1614
   48DOPE  H12X 6172   0.389   1.035  14.062  0.1397  0.1394 -0.4333
   48DOPE  H12Y 6173   0.246   1.136  14.023 -1.2734 -0.1533  2.2315
   48DOPE  C313 6174   0.329   1.174  14.204 -0.4530 -0.7181 -0.6056
   48DOPE  H13X 6175   0.428   1.185  14.255 -0.4956 -0.5063 -0.5692
   48DOPE  H13Y 6176   0.291   1.277  14.218 -0.8192 -0.6248 -2.1917
   48DOPE  C314 6177   0.231   1.072  14.270 -0.5458 -0.4301  0.2760
   48DOPE  H14X 6178   0.273   0.969  14.259  0.2900 -0.0225 -0.4171
   48DOPE  H14Y 6179   0.129   1.099  14.234 -0.5018  1.4214  1.4207
   48DOPE  C315 6180   0.229   1.083  14.422  0.1043 -0.4512 -0.2712
   48DOPE  H15X 6181   0.154   1.163  14.443 -1.2438 -1.6684 -0.2887
   48DOPE  H15Y 6182   0.336   1.097  14.449  0.1250  0.4300 -0.7809
   48DOPE  C316 6183   0.181   0.950  14.479  0.0527 -0.4095 -0.6334
   48DOPE  H16X 6184   0.253   0.869  14.452  2.1719  0.8190  1.0457
   48DOPE  H16Y 6185   0.081   0.920  14.442  0.0747 -0.0265 -1.0125
   48DOPE  C317 6186   0.167   0.941  14.636  0.1336 -0.1190 -0.0497
   48DOPE  H17X 6187   0.143   0.836  14.665  0.1112  0.4842  2.3405
   48DOPE  H17Y 6188   0.263   0.977  14.678 -0.2740  0.4692  0.4005
   48DOPE  C318 6189   0.056   1.025  14.696 -0.1962  0.4505 -0.0927
   48DOPE  H18X 6190   0.050   0.998  14.804 -0.9821 -0.9040 -0.4416
   48DOPE  H18Y 6191   0.070   1.134  14.682  0.6566  0.3111 -0.3415
   48DOPE  H18Z 6192  -0.034   0.997  14.636 -0.3239  1.3930 -0.3600
   49DOPE     N 6193   3.013   5.155  12.595  0.0774 -0.4095 -0.2312
   49DOPE   HN1 6194   3.103   5.188  12.637 -0.7903  1.7952  0.0629
   49DOPE   HN2 6195   3.032   5.147  12.493 -0.6153  2.1020 -0.6349
   49DOPE   HN3 6196   2.946   5.234  12.601 -0.4883 -0.7531 -1.6514
   49DOPE   C12 6197   2.976   5.029  12.660  0.1566 -0.0463 -0.5556
   49DOPE  H12A 6198   3.032   5.023  12.756 -1.3191  3.0367  0.6118
   49DOPE  H12B 6199   3.008   4.946  12.592 -1.0391 -0.0999 -1.0680
   49DOPE   C11 6200   2.821   5.018  12.677  0.4078 -0.1319  0.3944
   49DOPE  H11A 6201   2.805   4.918  12.723  3.1499 -1.3752 -1.1269
   49DOPE  H11B 6202   2.774   5.036  12.578 -0.1568 -0.0240  0.6785
   49DOPE     P 6203   2.621   5.107  12.804 -0.3621 -0.6296  0.0700
   49DOPE   O13 6204   2.558   4.983  12.758  0.1115  0.0416  0.0466
   49DOPE   O14 6205   2.548   5.232  12.770 -0.0289  0.3911  0.3159
   49DOPE   O11 6206   2.635   5.097  12.961  0.2977 -0.1306  0.4809
   49DOPE   O12 6207   2.769   5.121  12.756 -0.8939  0.1399  0.3250
   49DOPE    C1 6208   2.724   5.014  13.019  0.0344  0.5979 -0.1331
   49DOPE    HA 6209   2.827   5.030  12.980  0.2321  0.4503  0.3093
   49DOPE    HB 6210   2.696   4.908  13.001  3.0405 -0.8174  2.4487
   49DOPE    C2 6211   2.731   5.058  13.167  0.0072  0.0124 -0.4496
   49DOPE    HS 6212   2.817   5.007  13.216 -0.7804 -0.6115  0.3108
   49DOPE   O21 6213   2.618   5.025  13.251  0.4338  0.5520  0.1506
   49DOPE   C21 6214   2.567   4.906  13.243 -0.0673  0.4721 -0.9183
   49DOPE   O22 6215   2.605   4.807  13.185 -0.2788  0.1921  0.1767
   49DOPE   C22 6216   2.448   4.903  13.340 -0.3346 -0.1291 -0.0995
   49DOPE   H2R 6217   2.363   4.882  13.272 -0.8621  4.7954 -1.3918
   49DOPE   H2S 6218   2.435   5.007  13.378 -2.5212 -1.2481  2.5673
   49DOPE    C3 6219   2.767   5.211  13.169  0.6015  0.2256 -0.3737
   49DOPE    HX 6220   2.691   5.268  13.112  1.2002  3.1902  1.5610
   49DOPE    HY 6221   2.863   5.212  13.113  0.9859 -0.1162  0.2604
   49DOPE   O31 6222   2.786   5.264  13.300 -0.6270 -0.1905 -0.0498
   49DOPE   C31 6223   2.710   5.355  13.348 -0.9301  0.2383  0.3893
   49DOPE   O32 6224   2.615   5.402  13.291 -0.1119 -0.3686  0.7082
   49DOPE   C32 6225   2.761   5.387  13.485  0.1141  0.0255 -0.8109
   49DOPE   H2X 6226   2.787   5.295  13.542  0.5390  1.4626  1.4737
   49DOPE   H2Y 6227   2.855   5.447  13.477  0.8944 -0.9766  0.4192
   49DOPE   C23 6228   2.467   4.809  13.461  0.2129  0.1186  0.1644
   49DOPE   H3R 6229   2.493   4.706  13.430  0.4390  0.6322 -1.4742
   49DOPE   H3S 6230   2.373   4.802  13.521 -0.8388  0.9846 -1.3065
   49DOPE   C24 6231   2.575   4.847  13.561  0.7482 -0.4497 -0.7297
   49DOPE   H4R 6232   2.670   4.843  13.504  1.3981 -2.7306  0.4197
   49DOPE   H4S 6233   2.584   4.770  13.640  0.6694  0.8913  0.6475
   49DOPE   C25 6234   2.536   4.979  13.627 -0.0606  0.3162  0.3113
   49DOPE   H5R 6235   2.426   4.979  13.641 -0.1456 -0.4630 -0.2939
   49DOPE   H5S 6236   2.561   5.065  13.561 -0.4484  0.6833  0.6374
   49DOPE   C26 6237   2.606   5.007  13.761 -0.3181 -0.4645 -0.3687
   49DOPE   H6R 6238   2.599   5.115  13.787  0.3898 -0.6681  0.6833
   49DOPE   H6S 6239   2.715   4.992  13.746 -0.5207 -2.4774 -0.0750
   49DOPE   C27 6240   2.561   4.915  13.880  0.2865  0.3145 -0.0155
   49DOPE   H7R 6241   2.552   4.807  13.859 -0.3628 -0.5204  3.8067
   49DOPE   H7S 6242   2.458   4.943  13.911  0.8353  0.0573  2.1853
   49DOPE   C28 6243   2.655   4.929  14.003  0.0080 -0.4131 -0.4580
   49DOPE   H8R 6244   2.758   4.908  13.970 -0.4491 -2.5791 -0.6206
   49DOPE   H8S 6245   2.636   4.854  14.083 -1.9195  0.7503  0.2558
   49DOPE   C29 6246   2.669   5.075  14.048 -0.3087 -0.5893  0.5929
   49DOPE   H9R 6247   2.736   5.131  13.981 -1.0400 -0.8426 -0.3705
   49DOPE  C210 6248   2.642   5.127  14.166  0.0803  0.3631 -0.1523
   49DOPE  H10R 6249   2.662   5.233  14.188  0.6719 -0.4550  3.9752
   49DOPE  C211 6250   2.591   5.053  14.292 -0.4845  0.1072 -0.5314
   49DOPE  H11R 6251   2.614   4.946  14.273  1.9837  0.6237 -0.8552
   49DOPE  H11S 6252   2.483   5.077  14.298  0.0558  3.1247 -1.0839
   49DOPE  C212 6253   2.660   5.109  14.420  0.1118  0.2971 -0.0640
   49DOPE  H12R 6254   2.623   5.212  14.434 -2.4095 -0.7961  2.5611
   49DOPE  H12S 6255   2.771   5.107  14.416  0.3031  1.5591  2.5957
   49DOPE  C213 6256   2.622   5.046  14.552 -0.0589  0.8223  0.1874
   49DOPE  H13R 6257   2.703   5.076  14.622  2.3251  1.6266 -2.6625
   49DOPE  H13S 6258   2.610   4.937  14.539 -2.9612  0.7895  2.1896
   49DOPE  C214 6259   2.481   5.087  14.600 -0.4165 -0.1891 -0.1919
   49DOPE  H14R 6260   2.403   5.026  14.550 -1.1425 -1.2307  2.0523
   49DOPE  H14S 6261   2.452   5.193  14.581  1.9524  0.8322  1.4100
   49DOPE  C215 6262   2.464   5.058  14.758 -0.2033  0.0365  0.2821
   49DOPE  H15R 6263   2.545   5.110  14.814  0.8899  0.2393 -1.4285
   49DOPE  H15S 6264   2.471   4.951  14.785 -1.7435  0.2662  1.7945
   49DOPE  C216 6265   2.325   5.095  14.806  0.4556 -0.8321 -0.7493
   49DOPE  H16R 6266   2.244   5.071  14.733 -1.5405  1.5219  0.5397
   49DOPE  H16S 6267   2.322   5.206  14.812 -1.4189 -0.7944 -1.7005
   49DOPE  C217 6268   2.286   5.039  14.948  0.5220  0.3970  0.4443
   49DOPE  H17R 6269   2.373   5.003  15.007  0.5441 -2.6250 -1.2500
   49DOPE  H17S 6270   2.212   4.957  14.937  0.6679  0.4686 -1.3595
   49DOPE  C218 6271   2.220   5.139  15.043  0.2380 -0.2379  0.0108
   49DOPE  H18R 6272   2.265   5.239  15.025  0.9051 -0.5756 -0.2381
   49DOPE  H18S 6273   2.225   5.106  15.148  1.3762 -0.1795 -0.0149
   49DOPE  H18T 6274   2.115   5.156  15.010  0.8842  0.2357 -1.9364
   49DOPE   C33 6275   2.654   5.466  13.567 -0.4946 -0.3212 -0.0111
   49DOPE   H3X 6276   2.560   5.412  13.590  0.0467 -1.5956 -0.6592
   49DOPE   H3Y 6277   2.627   5.561  13.517 -0.1148 -0.3287 -0.2429
   49DOPE   C34 6278   2.704   5.513  13.702  0.2024 -0.7226  0.0139
   49DOPE   H4X 6279   2.814   5.531  13.690  0.0656 -0.3909 -0.8897
   49DOPE   H4Y 6280   2.666   5.617  13.712  0.1742 -0.6965 -0.3455
   49DOPE   C35 6281   2.681   5.412  13.816 -0.4540  0.5229  0.7538
   49DOPE   H5X 6282   2.741   5.321  13.795 -0.0522  0.8372  0.5303
   49DOPE   H5Y 6283   2.577   5.374  13.807 -0.0325 -0.4484 -0.3086
   49DOPE   C36 6284   2.701   5.478  13.950  0.2929  0.5245  0.0588
   49DOPE   H6X 6285   2.679   5.400  14.025  0.5231 -0.4156 -0.8308
   49DOPE   H6Y 6286   2.626   5.559  13.965  0.9536  1.4441 -1.3526
   49DOPE   C37 6287   2.842   5.523  13.988  0.2022  0.3715  0.0662
   49DOPE   H7X 6288   2.894   5.434  14.028 -1.0595  0.3491  1.7309
   49DOPE   H7Y 6289   2.901   5.579  13.911 -0.2739 -2.2482 -2.3807
   49DOPE   C38 6290   2.831   5.623  14.106  0.2947 -0.4641  0.1650
   49DOPE   H8X 6291   2.763   5.702  14.067 -0.4554 -1.3343 -0.3312
   49DOPE   H8Y 6292   2.927   5.678  14.106  0.7404 -1.2328 -0.1535
   49DOPE   C39 6293   2.788   5.572  14.236  0.5481 -0.1825 -0.7230
   49DOPE   H9X 6294   2.851   5.490  14.273  0.4554  0.6628  1.4147
   49DOPE  C310 6295   2.672   5.590  14.303 -0.5688 -0.7036  0.7628
   49DOPE  H10X 6296   2.664   5.558  14.409 -0.4541  1.1295  1.3554
   49DOPE  C311 6297   2.558   5.677  14.275 -0.4467  0.5371 -0.2073
   49DOPE  H11X 6298   2.564   5.702  14.167 -1.3266 -1.6406 -0.8105
   49DOPE  H11Y 6299   2.461   5.634  14.307  0.5181 -1.2126  0.4642
   49DOPE  C312 6300   2.578   5.816  14.344 -0.1526 -0.0591 -0.1367
   49DOPE  H12X 6301   2.638   5.881  14.276  1.1910 -2.0951 -0.9827
   49DOPE  H12Y 6302   2.631   5.800  14.440  1.0174 -1.5440 -1.0006
   49DOPE  C313 6303   2.443   5.880  14.383  0.3841 -0.5005 -0.0081
   49DOPE  H13X 6304   2.402   5.929  14.292 -1.1677  1.4295  1.6342
   49DOPE  H13Y 6305   2.372   5.804  14.420 -3.0075  0.9075 -3.0664
   49DOPE  C314 6306   2.458   5.978  14.496 -0.1698 -0.2635 -0.5494
   49DOPE  H14X 6307   2.469   5.923  14.592 -1.3622 -0.1527 -0.3419
   49DOPE  H14Y 6308   2.372   6.048  14.496 -1.2975 -1.6126 -0.6611
   49DOPE  C315 6309   2.583   6.073  14.492 -0.4820 -0.9519  0.5981
   49DOPE  H15X 6310   2.679   6.018  14.505  1.2874  0.7558 -3.3875
   49DOPE  H15Y 6311   2.599   6.132  14.585  1.4084 -1.1481  0.4441
   49DOPE  C316 6312   2.589   6.181  14.385  0.3330  1.0907  0.3643
   49DOPE  H16X 6313   2.500   6.248  14.380  0.9558  1.8474 -2.0735
   49DOPE  H16Y 6314   2.580   6.129  14.288 -0.4172 -0.4034  1.2069
   49DOPE  C317 6315   2.699   6.285  14.398  0.4495  0.0192 -0.3366
   49DOPE  H17X 6316   2.705   6.323  14.502  1.0419  3.7112 -1.5545
   49DOPE  H17Y 6317   2.799   6.244  14.372  0.9082  1.8728 -1.7016
   49DOPE  C318 6318   2.676   6.411  14.310 -0.1147 -0.1557 -0.4369
   49DOPE  H18X 6319   2.768   6.471  14.296 -0.8419  0.9704 -0.4424
   49DOPE  H18Y 6320   2.639   6.378  14.211 -1.1758 -0.8189  0.1594
   49DOPE  H18Z 6321   2.591   6.474  14.343  0.6299  0.7501 -0.2085
   50DOPE     N 6322   0.474   4.595  12.865  0.1701 -0.4126  0.2143
   50DOPE   HN1 6323   0.523   4.589  12.774  0.3449 -3.5454  0.4110
   50DOPE   HN2 6324   0.408   4.675  12.866  1.3078  0.5636 -0.2952
   50DOPE   HN3 6325   0.537   4.616  12.945  0.6942  1.8245 -0.7024
   50DOPE   C12 6326   0.397   4.464  12.896 -0.3098 -0.6160 -0.1886
   50DOPE  H12A 6327   0.344   4.430  12.805 -1.1337 -0.0601  0.0733
   50DOPE  H12B 6328   0.323   4.490  12.975 -1.4843 -0.5102 -1.2961
   50DOPE   C11 6329   0.496   4.362  12.938  0.1614  0.2634  0.4889
   50DOPE  H11A 6330   0.553   4.324  12.851  0.1774  0.7730  0.2715
   50DOPE  H11B 6331   0.428   4.282  12.974  0.6689 -0.0219  0.8231
   50DOPE     P 6332   0.532   4.430  13.188  0.0442  0.0246 -0.1510
   50DOPE   O13 6333   0.438   4.538  13.178  0.6211  0.5742 -0.0178
   50DOPE   O14 6334   0.653   4.455  13.271 -0.0537  0.5599 -0.3913
   50DOPE   O11 6335   0.470   4.288  13.214  0.4477 -0.1076  0.3379
   50DOPE   O12 6336   0.589   4.402  13.041  0.3618  0.8093 -0.4497
   50DOPE    C1 6337   0.547   4.174  13.241 -0.1667 -0.9243 -0.1704
   50DOPE    HA 6338   0.656   4.186  13.259 -0.2195 -1.6948  0.7865
   50DOPE    HB 6339   0.542   4.104  13.155 -2.6456  0.4085 -1.2018
   50DOPE    C2 6340   0.494   4.095  13.363 -0.1212  0.0825  0.6059
   50DOPE    HS 6341   0.386   4.069  13.354 -0.3130  0.7660  0.8094
   50DOPE   O21 6342   0.509   4.192  13.475  0.1616  0.2363 -0.5374
   50DOPE   C21 6343   0.456   4.141  13.585 -0.5009 -0.3882 -0.2449
   50DOPE   O22 6344   0.388   4.041  13.590 -0.1312  0.1058 -0.3055
   50DOPE   C22 6345   0.503   4.217  13.714 -0.3699 -0.1903 -0.3088
   50DOPE   H2R 6346   0.465   4.320  13.694 -2.6673 -0.9111 -0.0046
   50DOPE   H2S 6347   0.612   4.233  13.700 -0.1498 -1.3980 -0.0410
   50DOPE    C3 6348   0.584   3.972  13.381 -0.0095 -0.3058 -0.0165
   50DOPE    HX 6349   0.669   4.021  13.434  0.3655  0.6849 -1.4975
   50DOPE    HY 6350   0.618   3.927  13.286  1.1545 -0.0860  0.2853
   50DOPE   O31 6351   0.522   3.869  13.455 -0.2974  0.6163  0.8978
   50DOPE   C31 6352   0.618   3.789  13.522 -0.1607 -0.6432  0.8657
   50DOPE   O32 6353   0.738   3.791  13.487  0.9556 -0.1207  0.1066
   50DOPE   C32 6354   0.551   3.707  13.631  0.0842 -0.4669 -0.2310
   50DOPE   H2X 6355   0.483   3.771  13.691  2.3321  0.7760  1.1679
   50DOPE   H2Y 6356   0.491   3.633  13.575  2.2668 -0.7185 -2.3690
   50DOPE   C23 6357   0.443   4.168  13.847  0.0778 -0.2277  0.3099
   50DOPE   H3R 6358   0.417   4.060  13.847 -2.7739  0.3513 -2.2218
   50DOPE   H3S 6359   0.354   4.231  13.871  0.5672  0.4197  0.4688
   50DOPE   C24 6360   0.538   4.202  13.961 -0.1147 -0.0308 -0.0811
   50DOPE   H4R 6361   0.542   4.313  13.951 -2.5198  0.0139 -1.0797
   50DOPE   H4S 6362   0.638   4.164  13.930 -0.2652 -0.3925 -0.1286
   50DOPE   C25 6363   0.508   4.159  14.112 -0.4015  0.0800  0.8005
   50DOPE   H5R 6364   0.432   4.078  14.118 -1.5078  0.9582 -0.7096
   50DOPE   H5S 6365   0.452   4.244  14.155 -2.5902 -0.1446 -1.4215
   50DOPE   C26 6366   0.627   4.129  14.201  0.7579  0.0046 -0.0444
   50DOPE   H6R 6367   0.670   4.031  14.171  1.7574  0.5302 -0.3591
   50DOPE   H6S 6368   0.604   4.135  14.309 -0.0392 -0.6635 -0.1630
   50DOPE   C27 6369   0.731   4.243  14.189  0.1501  0.4238 -0.1578
   50DOPE   H7R 6370   0.695   4.331  14.131  1.3214  1.9603  1.3611
   50DOPE   H7S 6371   0.799   4.190  14.118 -1.4461 -2.1929  0.1168
   50DOPE   C28 6372   0.789   4.303  14.315 -0.0583  0.5749  0.4195
   50DOPE   H8R 6373   0.714   4.362  14.371 -1.0634 -0.5494  0.3094
   50DOPE   H8S 6374   0.857   4.377  14.267  1.3208 -1.9680 -1.9123
   50DOPE   C29 6375   0.864   4.210  14.405 -0.2115 -0.0175  0.3469
   50DOPE   H9R 6376   0.848   4.104  14.381 -2.2747  0.7711 -2.2202
   50DOPE  C210 6377   0.940   4.238  14.508  0.3795  0.4866 -0.2058
   50DOPE  H10R 6378   0.976   4.158  14.574 -2.6449 -1.6476 -0.9774
   50DOPE  C211 6379   0.966   4.379  14.552 -0.1523 -0.3807 -0.7450
   50DOPE  H11R 6380   0.896   4.399  14.635 -0.3194  1.2381 -1.2352
   50DOPE  H11S 6381   0.926   4.449  14.475 -1.3373  0.4397  0.5785
   50DOPE  C212 6382   1.105   4.424  14.597  0.1743  0.5599 -0.4194
   50DOPE  H12R 6383   1.092   4.522  14.649 -1.1716  0.4348 -0.5037
   50DOPE  H12S 6384   1.175   4.433  14.511  0.5360  0.7970 -0.1065
   50DOPE  C213 6385   1.180   4.331  14.697 -0.2905 -0.5296  0.3859
   50DOPE  H13R 6386   1.163   4.231  14.653 -1.6068  0.3917 -1.3237
   50DOPE  H13S 6387   1.129   4.331  14.796 -1.4813  1.0173 -0.1754
   50DOPE  C214 6388   1.325   4.362  14.715 -0.3868 -0.5463 -0.9465
   50DOPE  H14R 6389   1.381   4.385  14.622  1.5882  0.4307  0.4225
   50DOPE  H14S 6390   1.377   4.277  14.764  0.4417  1.0732  1.0986
   50DOPE  C215 6391   1.352   4.484  14.805 -0.5000 -0.2452  0.4629
   50DOPE  H15R 6392   1.318   4.576  14.753  0.6272 -0.3134 -0.4198
   50DOPE  H15S 6393   1.463   4.485  14.812 -0.1708 -1.1869 -2.8419
   50DOPE  C216 6394   1.293   4.468  14.944 -0.4388 -0.1453 -0.4561
   50DOPE  H16R 6395   1.368   4.519  15.008  0.2440 -1.1533 -0.4308
   50DOPE  H16S 6396   1.293   4.361  14.973  0.0777 -0.8713 -2.9167
   50DOPE  C217 6397   1.152   4.529  14.972 -0.2253  0.3103  0.2827
   50DOPE  H17R 6398   1.077   4.516  14.892 -1.1813 -2.9421  1.5700
   50DOPE  H17S 6399   1.170   4.638  14.984 -1.3694  0.4240  1.0697
   50DOPE  C218 6400   1.088   4.496  15.105  0.7176 -0.2533  0.0503
   50DOPE  H18R 6401   0.997   4.557  15.119 -0.1323 -0.8975 -2.2283
   50DOPE  H18S 6402   1.167   4.502  15.183 -1.2823  0.2288  2.1148
   50DOPE  H18T 6403   1.051   4.391  15.102 -0.5213  0.1950 -1.2344
   50DOPE   C33 6404   0.638   3.631  13.731  0.6104  0.1495 -0.2863
   50DOPE   H3X 6405   0.723   3.605  13.664 -2.8358 -2.9934 -3.9650
   50DOPE   H3Y 6406   0.592   3.535  13.760 -1.1392  1.0782  0.1411
   50DOPE   C34 6407   0.686   3.716  13.848 -0.7642  0.0219  0.7159
   50DOPE   H4X 6408   0.765   3.665  13.907 -2.4738 -3.6640  0.0811
   50DOPE   H4Y 6409   0.722   3.809  13.800 -1.7245  0.0979  0.1086
   50DOPE   C35 6410   0.581   3.763  13.952 -0.4424  0.1173  0.2177
   50DOPE   H5X 6411   0.493   3.786  13.889  0.3727 -0.5378 -1.1831
   50DOPE   H5Y 6412   0.625   3.853  14.002  0.7331  0.2937 -1.0882
   50DOPE   C36 6413   0.557   3.658  14.054  0.0501  1.0128  0.5878
   50DOPE   H6X 6414   0.652   3.624  14.099  0.3235  1.4936  0.3817
   50DOPE   H6Y 6415   0.513   3.566  14.008  0.0386  1.4720 -0.3396
   50DOPE   C37 6416   0.474   3.704  14.171 -0.0836 -0.2349  0.3532
   50DOPE   H7X 6417   0.520   3.798  14.209  2.4018 -1.0449 -0.4885
   50DOPE   H7Y 6418   0.366   3.717  14.147  0.3703  2.7570 -0.5409
   50DOPE   C38 6419   0.483   3.613  14.294 -0.4259  0.8475 -0.6335
   50DOPE   H8X 6420   0.462   3.682  14.379  0.1487  0.6912 -0.3671
   50DOPE   H8Y 6421   0.586   3.572  14.290 -0.3912  0.9386 -4.1130
   50DOPE   C39 6422   0.379   3.503  14.307  0.1950 -0.2091 -0.0743
   50DOPE   H9X 6423   0.276   3.541  14.300 -0.2517 -1.5451 -1.4386
   50DOPE  C310 6424   0.388   3.368  14.302 -0.1762  0.4505  1.3513
   50DOPE  H10X 6425   0.310   3.300  14.340 -1.3166  1.0236  0.1116
   50DOPE  C311 6426   0.523   3.302  14.284 -0.7791  0.3260 -0.3719
   50DOPE  H11X 6427   0.555   3.307  14.178  1.0342  0.8936  0.1675
   50DOPE  H11Y 6428   0.606   3.349  14.340 -1.5519  1.6511 -0.2897
   50DOPE  C312 6429   0.513   3.150  14.326  0.2952  0.3243  0.1773
   50DOPE  H12X 6430   0.602   3.089  14.300 -0.9043 -0.8806 -1.3033
   50DOPE  H12Y 6431   0.422   3.106  14.279  0.7305  0.7086 -1.0628
   50DOPE  C313 6432   0.509   3.134  14.482  0.3890  0.3123 -0.3252
   50DOPE  H13X 6433   0.603   3.183  14.512  0.9908 -0.2845 -1.1934
   50DOPE  H13Y 6434   0.443   3.201  14.542  0.8352  0.0414  0.4855
   50DOPE  C314 6435   0.495   2.987  14.522 -0.1065  0.1051  0.0462
   50DOPE  H14X 6436   0.572   2.923  14.474 -0.3070  0.5183 -0.8509
   50DOPE  H14Y 6437   0.389   2.956  14.505  0.1866 -1.8986  1.5202
   50DOPE  C315 6438   0.529   2.964  14.671 -0.0821 -0.2107 -0.3957
   50DOPE  H15X 6439   0.625   3.016  14.693 -0.4311  1.2812 -2.1716
   50DOPE  H15Y 6440   0.530   2.853  14.678 -1.3177 -0.2290 -0.3143
   50DOPE  C316 6441   0.422   3.020  14.767  0.6328 -0.4045  0.3975
   50DOPE  H16X 6442   0.323   2.994  14.725  0.4268  0.0155  0.6105
   50DOPE  H16Y 6443   0.437   3.130  14.760  0.9697 -0.4057  0.9987
   50DOPE  C317 6444   0.440   2.979  14.912  0.0378  0.2129  0.8625
   50DOPE  H17X 6445   0.441   2.868  14.921  0.7272  0.3627  3.1748
   50DOPE  H17Y 6446   0.540   3.017  14.941 -0.4262  0.7787  1.7449
   50DOPE  C318 6447   0.353   3.046  15.017 -0.7869  0.3200 -0.2115
   50DOPE  H18X 6448   0.246   3.022  15.005 -0.6680 -1.0738  1.0543
   50DOPE  H18Y 6449   0.392   3.018  15.118  0.5705  1.2445 -0.4606
   50DOPE  H18Z 6450   0.372   3.153  14.996 -0.3973  0.4954  0.9469
   51DOPE     N 6451   4.794   6.263  12.523 -0.4275  0.4467 -0.5902
   51DOPE   HN1 6452   4.760   6.318  12.604  0.2809  0.1655 -0.0882
   51DOPE   HN2 6453   4.887   6.302  12.497 -1.1815  1.6971 -1.4607
   51DOPE   HN3 6454   4.751   6.295  12.434  0.7266  0.6276 -1.1139
   51DOPE   C12 6455   4.798   6.112  12.542  0.5527  0.3264 -0.8750
   51DOPE  H12A 6456   4.875   6.084  12.617  0.5251  2.1417 -0.1407
   51DOPE  H12B 6457   4.817   6.057  12.447  0.6073 -0.0305 -0.6614
   51DOPE   C11 6458   4.659   6.060  12.585  0.5484  0.2817 -0.6637
   51DOPE  H11A 6459   4.662   5.950  12.604 -1.1714  0.6407  2.2791
   51DOPE  H11B 6460   4.579   6.068  12.509 -0.5880  0.2104  0.4814
   51DOPE     P 6461   4.697   6.105  12.844 -0.3248  0.1406  0.3116
   51DOPE   O13 6462   4.767   6.235  12.877 -0.3745 -0.0121 -0.2718
   51DOPE   O14 6463   4.777   5.979  12.844  0.0765  0.1507 -0.6299
   51DOPE   O11 6464   4.587   6.090  12.957  0.7847  0.1382 -0.2458
   51DOPE   O12 6465   4.614   6.125  12.706 -0.3006  0.2711  0.2707
   51DOPE    C1 6466   4.468   6.170  12.959  0.3061 -0.1569  0.3209
   51DOPE    HA 6467   4.384   6.110  12.918 -0.6501  1.4477 -0.1368
   51DOPE    HB 6468   4.487   6.265  12.905 -1.2587  0.2855  0.5128
   51DOPE    C2 6469   4.439   6.208  13.115  0.1017  0.4307  0.0821
   51DOPE    HS 6470   4.369   6.295  13.108 -0.1013  0.5848  2.8896
   51DOPE   O21 6471   4.555   6.256  13.187 -0.3926  0.1752 -0.0747
   51DOPE   C21 6472   4.605   6.363  13.134 -0.5313 -0.6547 -0.7283
   51DOPE   O22 6473   4.545   6.442  13.067 -0.1722 -0.7179  0.3321
   51DOPE   C22 6474   4.756   6.362  13.168 -0.2603 -0.4064  0.2679
   51DOPE   H2R 6475   4.811   6.440  13.111  1.8641 -2.0586 -0.0301
   51DOPE   H2S 6476   4.793   6.267  13.125 -2.3510 -1.3514  0.4397
   51DOPE    C3 6477   4.376   6.096  13.194  0.6413 -0.3436  0.8138
   51DOPE    HX 6478   4.298   6.043  13.136  0.9640  0.6269 -0.5589
   51DOPE    HY 6479   4.322   6.149  13.276 -1.2479  0.3264 -0.7728
   51DOPE   O31 6480   4.461   5.992  13.249 -0.2917  0.1648  0.1922
   51DOPE   C31 6481   4.407   5.929  13.343 -0.2559  0.2662  0.0317
   51DOPE   O32 6482   4.291   5.954  13.382 -0.1080  0.3028  0.3643
   51DOPE   C32 6483   4.495   5.820  13.404  0.2844  0.3614  0.5499
   51DOPE   H2X 6484   4.536   5.757  13.322  2.0601  2.0186  0.0884
   51DOPE   H2Y 6485   4.576   5.870  13.461 -0.0574  0.2409  1.1480
   51DOPE   C23 6486   4.799   6.370  13.318 -0.2238  0.4885  0.5950
   51DOPE   H3R 6487   4.786   6.279  13.381  3.4865  1.0407  2.4393
   51DOPE   H3S 6488   4.721   6.440  13.356  0.2415  2.4104 -1.7319
   51DOPE   C24 6489   4.935   6.429  13.343 -0.1221 -0.0408 -0.6069
   51DOPE   H4R 6490   4.959   6.523  13.289  0.4729 -0.2525 -0.7168
   51DOPE   H4S 6491   5.013   6.357  13.310 -0.1951 -0.8788  0.9609
   51DOPE   C25 6492   4.966   6.462  13.486 -0.0497 -0.1165 -0.6801
   51DOPE   H5R 6493   5.075   6.481  13.497 -0.0803  0.7669 -1.6921
   51DOPE   H5S 6494   4.938   6.381  13.557 -0.0176 -0.2919 -0.8633
   51DOPE   C26 6495   4.903   6.597  13.518  0.4213 -0.1550  0.6800
   51DOPE   H6R 6496   4.792   6.591  13.511  0.5242 -0.9893 -0.8590
   51DOPE   H6S 6497   4.932   6.675  13.445  1.2709 -1.5945 -0.5955
   51DOPE   C27 6498   4.946   6.655  13.657 -0.8866  0.1039  0.2128
   51DOPE   H7R 6499   4.893   6.749  13.684  0.0789 -0.2090  3.8330
   51DOPE   H7S 6500   5.053   6.681  13.651 -1.4581  2.5131 -0.7816
   51DOPE   C28 6501   4.912   6.564  13.773 -1.0285  0.3227 -0.2388
   51DOPE   H8R 6502   4.950   6.608  13.868  0.7441 -4.0971  1.3780
   51DOPE   H8S 6503   4.967   6.467  13.776  3.4354  2.5342 -1.8250
   51DOPE   C29 6504   4.768   6.532  13.783 -0.0216 -0.1706  0.6257
   51DOPE   H9R 6505   4.740   6.449  13.717  1.6917 -1.2727  1.2032
   51DOPE  C210 6506   4.681   6.597  13.855  0.7446 -0.6000  0.0959
   51DOPE  H10R 6507   4.577   6.562  13.866  0.8863 -1.5767 -1.3831
   51DOPE  C211 6508   4.700   6.728  13.932 -0.0273 -0.4708  0.0904
   51DOPE  H11R 6509   4.706   6.816  13.863  0.9125 -1.5440 -1.2450
   51DOPE  H11S 6510   4.795   6.735  13.988  0.2815 -0.5199 -0.4157
   51DOPE  C212 6511   4.601   6.746  14.052  0.4654 -1.1201  0.8351
   51DOPE  H12R 6512   4.497   6.719  14.025 -0.3543 -0.7248  3.3421
   51DOPE  H12S 6513   4.603   6.848  14.095 -2.0604 -1.0942  1.0503
   51DOPE  C213 6514   4.619   6.653  14.179  0.2949 -0.4854 -0.1956
   51DOPE  H13R 6515   4.724   6.666  14.213 -1.0638  1.2576  4.0996
   51DOPE  H13S 6516   4.598   6.549  14.145 -0.7099 -0.2962 -0.1800
   51DOPE  C214 6517   4.536   6.701  14.304  0.1045 -0.0345  0.3577
   51DOPE  H14R 6518   4.441   6.741  14.263  1.2943 -0.0732 -2.7050
   51DOPE  H14S 6519   4.585   6.786  14.356 -1.3413 -0.2545  2.1599
   51DOPE  C215 6520   4.517   6.590  14.405 -0.1616  0.2485  0.1549
   51DOPE  H15R 6521   4.473   6.515  14.336 -1.1185 -0.1584  1.1717
   51DOPE  H15S 6522   4.446   6.629  14.481  0.2457  1.0216  0.1475
   51DOPE  C216 6523   4.644   6.539  14.485 -0.3104  0.7318  0.4530
   51DOPE  H16R 6524   4.722   6.507  14.413 -0.8483 -0.3022  0.3130
   51DOPE  H16S 6525   4.613   6.449  14.543 -2.4841  0.4494 -0.9974
   51DOPE  C217 6526   4.699   6.650  14.568  0.0184  0.1576 -0.3459
   51DOPE  H17R 6527   4.625   6.707  14.629  0.6017 -1.4283  2.0040
   51DOPE  H17S 6528   4.743   6.731  14.506  0.6953 -1.1467 -1.6122
   51DOPE  C218 6529   4.804   6.614  14.673  1.0057 -0.0113  0.0236
   51DOPE  H18R 6530   4.793   6.671  14.768  1.0412 -1.8184  1.1610
   51DOPE  H18S 6531   4.904   6.615  14.624  0.1512  0.0588 -1.7557
   51DOPE  H18T 6532   4.792   6.509  14.707  0.2951  0.5744  1.6890
   51DOPE   C33 6533   4.406   5.728  13.490  0.8477  0.1554 -0.0739
   51DOPE   H3X 6534   4.466   5.637  13.513  1.3321  0.1883 -1.1394
   51DOPE   H3Y 6535   4.312   5.687  13.448  0.2546  1.8890 -0.5237
   51DOPE   C34 6536   4.370   5.797  13.620  0.0523 -0.0192 -0.4440
   51DOPE   H4X 6537   4.455   5.856  13.661  1.4026 -2.2922  0.2723
   51DOPE   H4Y 6538   4.279   5.859  13.612 -0.6301 -0.9049  0.1956
   51DOPE   C35 6539   4.327   5.701  13.737 -0.6801  0.0764 -0.1379
   51DOPE   H5X 6540   4.239   5.640  13.707 -1.3412  1.4020 -0.9654
   51DOPE   H5Y 6541   4.281   5.759  13.819 -2.9972 -3.1184  1.0321
   51DOPE   C36 6542   4.441   5.615  13.792  0.2965  0.0746 -0.2192
   51DOPE   H6X 6543   4.545   5.642  13.762 -0.8222  1.8482 -2.9412
   51DOPE   H6Y 6544   4.417   5.510  13.768  1.8805 -0.9121  2.2106
   51DOPE   C37 6545   4.435   5.626  13.949  0.4195 -0.0712 -0.1415
   51DOPE   H7X 6546   4.450   5.726  13.995 -2.8758  0.0267  0.9510
   51DOPE   H7Y 6547   4.337   5.594  13.989 -0.0929  1.5557 -0.0249
   51DOPE   C38 6548   4.540   5.521  14.009 -0.3290  0.0658 -0.3304
   51DOPE   H8X 6549   4.541   5.432  13.942  2.1766  0.8489 -1.4311
   51DOPE   H8Y 6550   4.513   5.475  14.106  0.7425  0.6132  0.2379
   51DOPE   C39 6551   4.671   5.589  14.003  0.1498 -0.1548 -0.0125
   51DOPE   H9X 6552   4.705   5.612  13.901 -1.4481 -0.4048 -0.6308
   51DOPE  C310 6553   4.758   5.605  14.104  0.4660  0.0852 -0.3578
   51DOPE  H10X 6554   4.845   5.667  14.080 -1.2961  2.0019 -2.2048
   51DOPE  C311 6555   4.731   5.585  14.253 -0.6806 -0.2896  0.5551
   51DOPE  H11X 6556   4.626   5.553  14.270 -0.4757 -0.5642  1.3280
   51DOPE  H11Y 6557   4.777   5.490  14.289 -0.9625 -0.1829  1.2168
   51DOPE  C312 6558   4.785   5.701  14.340  0.1303  0.3133  0.4885
   51DOPE  H12X 6559   4.733   5.789  14.298 -1.7608 -0.3643  1.2765
   51DOPE  H12Y 6560   4.892   5.720  14.319 -0.4232  2.4340 -0.6740
   51DOPE  C313 6561   4.765   5.684  14.487  0.2986 -0.0679 -0.9174
   51DOPE  H13X 6562   4.707   5.761  14.543 -0.5017 -0.8923 -0.5980
   51DOPE  H13Y 6563   4.717   5.586  14.502  0.0276  0.2948  0.7655
   51DOPE  C314 6564   4.903   5.665  14.548 -0.0555  0.3568 -0.5903
   51DOPE  H14X 6565   4.975   5.749  14.537  1.2585 -0.3435  1.8570
   51DOPE  H14Y 6566   4.958   5.582  14.501 -1.2231  0.4582 -2.2439
   51DOPE  C315 6567   4.894   5.621  14.696 -0.2020 -0.3348 -0.4093
   51DOPE  H15X 6568   4.816   5.543  14.706  0.3597 -0.7319  1.0824
   51DOPE  H15Y 6569   4.847   5.705  14.752 -2.3979 -1.4104 -0.5561
   51DOPE  C316 6570   5.031   5.580  14.754  0.1973 -0.5291  0.5245
   51DOPE  H16X 6571   5.117   5.641  14.719  1.1533 -2.1376 -0.0424
   51DOPE  H16Y 6572   5.059   5.477  14.723 -0.8418 -0.4230 -0.8824
   51DOPE  C317 6573   5.024   5.596  14.904  0.1355 -0.3008  1.2167
   51DOPE  H17X 6574   5.003   5.703  14.929 -1.6954 -0.2085 -0.4744
   51DOPE  H17Y 6575   4.935   5.547  14.948 -0.9514  2.8195  2.8493
   51DOPE  C318 6576   5.145   5.550  14.976  0.2106  0.2952 -0.2917
   51DOPE  H18X 6577   5.122   5.572  15.082 -2.4686  0.3228 -0.8126
   51DOPE  H18Y 6578   5.155   5.439  14.977  0.2698  0.2936 -0.7299
   51DOPE  H18Z 6579   5.240   5.602  14.948  1.3897 -1.5184  0.1690
   52DOPE     N 6580   7.648   3.276  12.946  0.0194  0.5378  0.5571
   52DOPE   HN1 6581   7.589   3.192  12.965 -0.6777  0.8194 -0.3190
   52DOPE   HN2 6582   7.710   3.256  12.865 -0.2153 -1.5435  0.8331
   52DOPE   HN3 6583   7.717   3.300  13.020 -1.0779  1.7567  1.2152
   52DOPE   C12 6584   7.565   3.385  12.910 -0.0107 -0.8151  0.2242
   52DOPE  H12A 6585   7.509   3.352  12.821 -1.0653  1.3660  0.0114
   52DOPE  H12B 6586   7.630   3.473  12.891 -0.1455 -0.2866  2.0068
   52DOPE   C11 6587   7.483   3.431  13.037  0.2257  0.0940 -0.3392
   52DOPE  H11A 6588   7.418   3.342  13.053  0.4273  0.2933  1.7792
   52DOPE  H11B 6589   7.409   3.509  13.010  0.3706  0.8491  1.3458
   52DOPE     P 6590   7.618   3.610  13.173 -0.0829  0.3410 -0.1295
   52DOPE   O13 6591   7.554   3.709  13.085  0.3860 -0.5094  0.4885
   52DOPE   O14 6592   7.767   3.600  13.170  0.1525  0.5479  0.0287
   52DOPE   O11 6593   7.569   3.634  13.323 -0.1831  0.4777  1.0450
   52DOPE   O12 6594   7.563   3.464  13.144 -0.4590  0.0278 -0.0417
   52DOPE    C1 6595   7.470   3.557  13.388 -0.0225  0.0952  0.2455
   52DOPE    HA 6596   7.393   3.516  13.319 -1.2722  1.7678  0.5911
   52DOPE    HB 6597   7.411   3.625  13.453 -0.2062  0.4636 -0.3048
   52DOPE    C2 6598   7.529   3.457  13.492 -0.0528 -0.0426 -0.0801
   52DOPE    HS 6599   7.445   3.421  13.555  0.1015 -0.0692  0.1101
   52DOPE   O21 6600   7.630   3.507  13.575  0.1075 -0.0930 -0.0215
   52DOPE   C21 6601   7.599   3.602  13.660  0.6295 -0.4852  0.2834
   52DOPE   O22 6602   7.488   3.653  13.670  0.3127 -0.4093 -0.0284
   52DOPE   C22 6603   7.720   3.647  13.743  0.2519 -0.5940 -0.5056
   52DOPE   H2R 6604   7.722   3.757  13.728 -1.6624 -0.1849  1.5988
   52DOPE   H2S 6605   7.815   3.601  13.708 -0.3065 -3.1930  1.1035
   52DOPE    C3 6606   7.586   3.332  13.417 -0.0176  0.3802  0.6401
   52DOPE    HX 6607   7.665   3.378  13.354 -1.2754  3.2378  0.9879
   52DOPE    HY 6608   7.516   3.292  13.340  0.1689 -0.5726  0.9674
   52DOPE   O31 6609   7.632   3.231  13.509 -0.4193 -0.0754  0.4417
   52DOPE   C31 6610   7.747   3.181  13.490  0.1555 -0.3295 -0.0291
   52DOPE   O32 6611   7.827   3.203  13.394  0.0731  0.2416  0.5815
   52DOPE   C32 6612   7.768   3.084  13.602  0.2350 -0.2106 -0.1097
   52DOPE   H2X 6613   7.689   3.105  13.678 -0.5579 -1.4727 -0.5479
   52DOPE   H2Y 6614   7.750   2.984  13.557  2.4194  0.4477 -2.7085
   52DOPE   C23 6615   7.692   3.623  13.893 -0.0717  1.1558 -0.4264
   52DOPE   H3R 6616   7.793   3.617  13.940  0.6734 -0.2461 -2.0846
   52DOPE   H3S 6617   7.664   3.516  13.901  2.2986  0.6143  2.0611
   52DOPE   C24 6618   7.596   3.722  13.964  0.4792 -0.3007  0.7262
   52DOPE   H4R 6619   7.491   3.717  13.927  1.8474  2.4781 -4.5374
   52DOPE   H4S 6620   7.634   3.824  13.942  1.3439 -0.3234  2.0535
   52DOPE   C25 6621   7.606   3.700  14.115 -0.3469 -0.3091  0.6568
   52DOPE   H5R 6622   7.550   3.780  14.168 -1.0636  0.4513 -1.1951
   52DOPE   H5S 6623   7.711   3.721  14.144  0.1801 -1.8189 -0.0185
   52DOPE   C26 6624   7.537   3.580  14.168 -0.2560  0.0126  0.4518
   52DOPE   H6R 6625   7.561   3.480  14.126 -1.4869 -0.7226  1.4443
   52DOPE   H6S 6626   7.430   3.602  14.150 -0.0827 -0.0311 -0.7047
   52DOPE   C27 6627   7.544   3.579  14.320  0.3282 -0.2346  0.2093
   52DOPE   H7R 6628   7.482   3.496  14.360  2.0441 -0.8120  1.7780
   52DOPE   H7S 6629   7.495   3.673  14.350  0.3552 -0.2030  0.1546
   52DOPE   C28 6630   7.692   3.556  14.368  0.4431 -0.6274 -0.6676
   52DOPE   H8R 6631   7.749   3.649  14.345  1.7216 -1.6528 -1.8645
   52DOPE   H8S 6632   7.751   3.474  14.322 -0.3877 -1.7951  0.2790
   52DOPE   C29 6633   7.677   3.540  14.518 -0.8208 -0.2305 -0.2355
   52DOPE   H9R 6634   7.660   3.631  14.576  1.7202 -0.8231  1.6136
   52DOPE  C210 6635   7.686   3.422  14.590  0.3708 -0.6085 -0.2683
   52DOPE  H10R 6636   7.686   3.433  14.699  2.9852  0.4597 -0.2899
   52DOPE  C211 6637   7.714   3.282  14.540 -0.0149 -0.3316 -0.6135
   52DOPE  H11R 6638   7.793   3.240  14.605  1.4886  1.8532 -0.9153
   52DOPE  H11S 6639   7.759   3.280  14.438  0.6165 -0.5978 -0.3348
   52DOPE  C212 6640   7.596   3.182  14.543 -0.7695  0.1078 -0.4000
   52DOPE  H12R 6641   7.637   3.082  14.517  0.5025  0.7014 -0.7530
   52DOPE  H12S 6642   7.518   3.206  14.468 -2.3779 -0.5624  0.9831
   52DOPE  C213 6643   7.521   3.181  14.681  1.1136  0.6695  0.2014
   52DOPE  H13R 6644   7.470   3.280  14.678 -2.3918 -0.8567  2.9911
   52DOPE  H13S 6645   7.598   3.178  14.761  0.4943  0.9020  0.8115
   52DOPE  C214 6646   7.419   3.061  14.690  0.0834  0.3910  0.6572
   52DOPE  H14R 6647   7.481   2.980  14.647  1.7778  0.9244  2.0046
   52DOPE  H14S 6648   7.327   3.073  14.628  1.0050 -0.1430 -0.8717
   52DOPE  C215 6649   7.371   3.021  14.825 -0.2317  0.2867 -0.3565
   52DOPE  H15R 6650   7.286   2.953  14.803  0.2930 -0.7223  0.6836
   52DOPE  H15S 6651   7.323   3.112  14.865 -0.2562  0.9701 -1.8551
   52DOPE  C216 6652   7.479   2.964  14.914  0.7237 -0.3535 -0.3551
   52DOPE  H16R 6653   7.549   3.045  14.946 -1.3436  1.1042  0.7210
   52DOPE  H16S 6654   7.536   2.883  14.864  1.4544  0.0630 -0.2160
   52DOPE  C217 6655   7.424   2.919  15.052  0.4210  0.1429  0.2073
   52DOPE  H17R 6656   7.358   2.830  15.048  3.1717 -1.9994 -0.3871
   52DOPE  H17S 6657   7.371   3.013  15.081 -0.9777 -0.5503 -0.0479
   52DOPE  C218 6658   7.537   2.892  15.152  0.6936 -0.0159  0.7769
   52DOPE  H18R 6659   7.620   2.965  15.138  0.6440 -0.2673 -1.2481
   52DOPE  H18S 6660   7.506   2.875  15.257 -0.1593 -0.5671  0.4499
   52DOPE  H18T 6661   7.567   2.791  15.118  0.7968  0.9332 -2.2779
   52DOPE   C33 6662   7.916   3.095  13.660  0.5512  0.8057  0.3542
   52DOPE   H3X 6663   7.984   3.062  13.579  0.1671  0.5519  0.1357
   52DOPE   H3Y 6664   7.927   3.021  13.743 -0.0264 -0.2285 -0.4619
   52DOPE   C34 6665   7.952   3.238  13.715  0.5004 -0.2472 -0.0794
   52DOPE   H4X 6666   8.057   3.235  13.748  0.4638  1.5927  0.2895
   52DOPE   H4Y 6667   7.948   3.310  13.631 -0.6437  2.3144  2.0234
   52DOPE   C35 6668   7.872   3.290  13.833  1.0446 -0.7550 -1.0356
   52DOPE   H5X 6669   7.768   3.310  13.799  1.2173  0.7163 -0.7727
   52DOPE   H5Y 6670   7.910   3.386  13.873  1.7388 -0.8528 -1.4439
   52DOPE   C36 6671   7.872   3.194  13.953  0.8229 -0.0490  0.1551
   52DOPE   H6X 6672   7.974   3.182  13.998  0.7444  2.9498  1.3539
   52DOPE   H6Y 6673   7.854   3.096  13.905  1.7493 -0.3936  0.4783
   52DOPE   C37 6674   7.781   3.240  14.066 -1.0529 -0.1671  0.3779
   52DOPE   H7X 6675   7.831   3.310  14.136 -0.5424 -1.7917  1.7042
   52DOPE   H7Y 6676   7.694   3.294  14.023 -0.6272 -2.4633 -3.9151
   52DOPE   C38 6677   7.707   3.129  14.146 -0.5114  0.1145 -0.1647
   52DOPE   H8X 6678   7.631   3.166  14.219 -2.0168  0.3143 -1.7522
   52DOPE   H8Y 6679   7.790   3.081  14.202 -1.0372 -0.8372 -0.1846
   52DOPE   C39 6680   7.648   3.022  14.068  1.2550 -0.8273  0.0351
   52DOPE   H9X 6681   7.714   2.970  13.996  0.5768 -1.3253 -0.2322
   52DOPE  C310 6682   7.522   2.984  14.072 -0.1196 -0.0343  0.3877
   52DOPE  H10X 6683   7.491   2.900  14.008  1.3087  0.4290 -0.9797
   52DOPE  C311 6684   7.411   3.049  14.145  0.0919 -0.5035  0.5020
   52DOPE  H11X 6685   7.419   3.148  14.195  0.0760 -1.0954  1.6915
   52DOPE  H11Y 6686   7.330   3.077  14.074 -1.1139 -1.5692  1.4241
   52DOPE  C312 6687   7.360   2.965  14.259  0.2774 -1.1344  0.0563
   52DOPE  H12X 6688   7.436   2.961  14.340 -1.6041 -3.9126  1.8478
   52DOPE  H12Y 6689   7.339   2.857  14.244 -0.5920 -0.8714 -0.6853
   52DOPE  C313 6690   7.223   3.009  14.317  0.7718  0.1947 -0.7652
   52DOPE  H13X 6691   7.140   2.967  14.256  0.1258  2.0252 -1.2161
   52DOPE  H13Y 6692   7.219   2.967  14.420  1.6977  1.9838  0.0560
   52DOPE  C314 6693   7.209   3.167  14.331  0.4652  0.2276 -0.0033
   52DOPE  H14X 6694   7.216   3.207  14.228  0.5011  1.1085  0.3370
   52DOPE  H14Y 6695   7.289   3.216  14.391 -1.2175  1.3012  1.4686
   52DOPE  C315 6696   7.069   3.215  14.391  0.0318  0.3410  0.1253
   52DOPE  H15X 6697   7.047   3.151  14.479  0.3423 -1.0085 -0.7454
   52DOPE  H15Y 6698   6.988   3.199  14.316  1.0363  2.4591 -1.5273
   52DOPE  C316 6699   7.068   3.359  14.437 -0.4325 -0.0955  0.0886
   52DOPE  H16X 6700   7.076   3.436  14.357 -0.7195  0.3001  0.4399
   52DOPE  H16Y 6701   7.153   3.370  14.507 -1.6412 -0.3316  1.6356
   52DOPE  C317 6702   6.943   3.398  14.513  0.1156  0.0060  0.4200
   52DOPE  H17X 6703   6.860   3.388  14.440 -0.9600  1.4723  1.3812
   52DOPE  H17Y 6704   6.934   3.323  14.595 -0.1443 -1.0706 -0.5630
   52DOPE  C318 6705   6.956   3.541  14.567 -0.2958  0.4383  0.1860
   52DOPE  H18X 6706   6.955   3.611  14.481 -1.4221 -0.4720 -0.5848
   52DOPE  H18Y 6707   6.865   3.563  14.627  0.2457  0.5791  0.9622
   52DOPE  H18Z 6708   7.040   3.546  14.639 -0.0117  0.5644 -0.1529
   53DOPE     N 6709   7.672   4.927  13.380 -0.1410  0.7428  0.1609
   53DOPE   HN1 6710   7.738   4.873  13.321  0.5136  1.5008  0.1871
   53DOPE   HN2 6711   7.715   4.985  13.455  0.5210  3.3426 -2.1085
   53DOPE   HN3 6712   7.613   4.847  13.413  0.5298  0.6859  1.2571
   53DOPE   C12 6713   7.605   5.019  13.294  0.2747 -0.0480  0.8778
   53DOPE  H12A 6714   7.529   4.956  13.242  1.5048 -1.0612  0.2242
   53DOPE  H12B 6715   7.680   5.064  13.226 -0.4649 -0.0128  0.0649
   53DOPE   C11 6716   7.532   5.135  13.373  0.1064  0.1525  0.2964
   53DOPE  H11A 6717   7.611   5.195  13.422  0.1449 -0.9700  1.6839
   53DOPE  H11B 6718   7.465   5.099  13.454  0.5601  2.1310  1.6202
   53DOPE     P 6719   7.322   5.189  13.227 -0.0241 -0.0933  0.7465
   53DOPE   O13 6720   7.307   5.060  13.164 -0.2870 -0.0635 -0.0639
   53DOPE   O14 6721   7.291   5.312  13.155  0.6728 -0.1027  0.1741
   53DOPE   O11 6722   7.240   5.195  13.359  0.1903  0.4266 -0.3424
   53DOPE   O12 6723   7.470   5.212  13.277  0.2089 -0.3260 -0.1648
   53DOPE    C1 6724   7.198   5.072  13.428  0.5980 -0.4490  0.4901
   53DOPE    HA 6725   7.276   4.994  13.435 -0.4370 -1.5089  0.4066
   53DOPE    HB 6726   7.117   5.027  13.368  1.7688 -0.9289 -0.7682
   53DOPE    C2 6727   7.144   5.099  13.575 -0.9133  0.0696  0.7121
   53DOPE    HS 6728   7.086   5.008  13.601 -1.2168  0.5319  1.7131
   53DOPE   O21 6729   7.067   5.223  13.585 -0.9405  0.5495 -0.4274
   53DOPE   C21 6730   6.953   5.215  13.535  0.1832 -0.5602  0.2399
   53DOPE   O22 6731   6.897   5.112  13.493  0.9331 -0.0299 -0.1030
   53DOPE   C22 6732   6.893   5.352  13.535 -0.3340  0.1406 -0.7154
   53DOPE   H2R 6733   6.898   5.389  13.431  0.4018  1.2581 -0.3063
   53DOPE   H2S 6734   6.959   5.426  13.586  1.4138 -0.7736 -1.5719
   53DOPE    C3 6735   7.258   5.106  13.678  0.0027  0.1842  0.6772
   53DOPE    HX 6736   7.335   5.185  13.669  2.1443 -1.6826  1.6836
   53DOPE    HY 6737   7.321   5.016  13.661  0.8459  0.8633  0.1186
   53DOPE   O31 6738   7.202   5.093  13.816 -0.0577  0.1725  0.2169
   53DOPE   C31 6739   7.213   5.198  13.886 -0.3478 -0.5862  0.2434
   53DOPE   O32 6740   7.305   5.282  13.877 -0.1903  0.2343  0.8654
   53DOPE   C32 6741   7.108   5.191  14.001  0.2063  0.2875 -0.7433
   53DOPE   H2X 6742   7.011   5.236  13.969 -0.3282  0.3636  0.9154
   53DOPE   H2Y 6743   7.096   5.084  14.026  0.8177  0.2787 -0.4772
   53DOPE   C23 6744   6.745   5.358  13.591 -0.9572  0.8175  0.0863
   53DOPE   H3R 6745   6.695   5.273  13.541  2.0761 -2.5399  2.1811
   53DOPE   H3S 6746   6.699   5.455  13.563 -1.1709  1.4760  2.4823
   53DOPE   C24 6747   6.734   5.316  13.743  0.0999 -0.6025  0.1046
   53DOPE   H4R 6748   6.781   5.401  13.795  1.6302 -1.2594 -0.1452
   53DOPE   H4S 6749   6.795   5.223  13.751 -1.2436 -1.3825  2.0399
   53DOPE   C25 6750   6.590   5.286  13.784 -0.2768 -0.7367 -0.1868
   53DOPE   H5R 6751   6.549   5.215  13.709 -0.7801  1.2801 -1.8944
   53DOPE   H5S 6752   6.519   5.371  13.771  0.1322 -0.7686 -3.2751
   53DOPE   C26 6753   6.589   5.223  13.926  0.0234 -0.1557  0.1091
   53DOPE   H6R 6754   6.653   5.132  13.921 -2.2618 -1.8148 -0.5031
   53DOPE   H6S 6755   6.483   5.194  13.942 -0.7209  0.8720 -2.4627
   53DOPE   C27 6756   6.632   5.322  14.044 -0.6094 -0.1455 -0.0930
   53DOPE   H7R 6757   6.548   5.390  14.067 -1.5054 -1.5795  1.0774
   53DOPE   H7S 6758   6.719   5.381  14.007  1.3492 -1.4570  2.1582
   53DOPE   C28 6759   6.672   5.236  14.174  0.4018  0.2442  0.6187
   53DOPE   H8R 6760   6.740   5.311  14.220 -0.4243  2.0497 -0.9850
   53DOPE   H8S 6761   6.726   5.148  14.132 -1.9040  0.2663 -2.8248
   53DOPE   C29 6762   6.545   5.207  14.248  0.6782  0.2883 -0.2854
   53DOPE   H9R 6763   6.453   5.200  14.189 -0.2033 -0.9747  1.1573
   53DOPE  C210 6764   6.537   5.204  14.382 -0.4612  1.0584 -0.4496
   53DOPE  H10R 6765   6.439   5.189  14.429 -0.4512 -1.4870 -1.1036
   53DOPE  C211 6766   6.665   5.208  14.466 -0.1999 -0.3389  0.5996
   53DOPE  H11R 6767   6.698   5.310  14.495  1.6105 -1.0288  1.0783
   53DOPE  H11S 6768   6.754   5.167  14.414  1.3968  1.4265  1.7906
   53DOPE  C212 6769   6.656   5.131  14.600  0.6496  0.4977  0.6400
   53DOPE  H12R 6770   6.653   5.023  14.577 -0.7969  0.9266 -1.3968
   53DOPE  H12S 6771   6.558   5.145  14.651 -1.1291 -1.2909 -2.0826
   53DOPE  C213 6772   6.778   5.167  14.696 -0.4333  0.0810  0.7963
   53DOPE  H13R 6773   6.766   5.274  14.723  0.3626  1.3473 -3.1592
   53DOPE  H13S 6774   6.868   5.168  14.632 -0.7789 -0.4710  0.2840
   53DOPE  C214 6775   6.808   5.065  14.806  0.1418  0.0177 -0.0108
   53DOPE  H14R 6776   6.830   4.962  14.770 -0.8201 -0.4222  0.6264
   53DOPE  H14S 6777   6.719   5.052  14.871 -0.3671  0.2179 -0.6678
   53DOPE  C215 6778   6.936   5.103  14.883 -0.3084 -0.0932  0.0881
   53DOPE  H15R 6779   6.946   5.210  14.912  0.6708 -0.4828  1.2145
   53DOPE  H15S 6780   7.028   5.089  14.823  1.8448  1.7896  2.7076
   53DOPE  C216 6781   6.946   5.006  14.998 -0.3916  0.0727  0.0126
   53DOPE  H16R 6782   6.953   4.907  14.950  0.4186 -0.2750  0.8259
   53DOPE  H16S 6783   6.857   5.006  15.064 -2.1271  2.1495 -2.1459
   53DOPE  C217 6784   7.072   5.026  15.088 -0.1578 -0.4311  0.9271
   53DOPE  H17R 6785   7.163   5.046  15.027 -0.6900  0.2214  0.3246
   53DOPE  H17S 6786   7.088   4.932  15.144  2.5356 -0.8052 -0.3326
   53DOPE  C218 6787   7.059   5.147  15.186  0.3011  0.5887  0.6598
   53DOPE  H18R 6788   6.971   5.136  15.252  0.3358  0.0921  0.6340
   53DOPE  H18S 6789   7.032   5.244  15.139 -0.1796  0.5329  0.8197
   53DOPE  H18T 6790   7.153   5.157  15.246  1.2324  1.4408 -0.8756
   53DOPE   C33 6791   7.160   5.278  14.116  0.2452  0.1280 -0.3151
   53DOPE   H3X 6792   7.182   5.381  14.083 -0.0832  0.2420 -0.1791
   53DOPE   H3Y 6793   7.257   5.245  14.161 -0.3814 -2.8224 -0.8936
   53DOPE   C34 6794   7.050   5.305  14.222  0.5042  0.1918  0.0012
   53DOPE   H4X 6795   6.968   5.338  14.155  1.9107 -1.4948 -2.7445
   53DOPE   H4Y 6796   7.015   5.216  14.278 -0.1586  0.3409 -0.1612
   53DOPE   C35 6797   7.078   5.422  14.323  0.0096  0.2006  0.4309
   53DOPE   H5X 6798   7.078   5.521  14.273 -0.6262  0.9345  1.8235
   53DOPE   H5Y 6799   7.175   5.417  14.378 -0.5937  0.6354  1.5778
   53DOPE   C36 6800   6.980   5.426  14.441 -0.2025 -0.4248 -0.0366
   53DOPE   H6X 6801   6.978   5.327  14.492  4.3767 -1.1801 -0.8994
   53DOPE   H6Y 6802   6.886   5.461  14.393  0.7207  2.0883 -0.1637
   53DOPE   C37 6803   7.017   5.532  14.544  0.5380 -0.5760 -0.0864
   53DOPE   H7X 6804   7.120   5.520  14.583  0.1618  0.3381  1.3123
   53DOPE   H7Y 6805   7.024   5.630  14.492  0.1403  0.6623  2.0282
   53DOPE   C38 6806   6.915   5.538  14.662 -0.5706 -0.6553  0.2148
   53DOPE   H8X 6807   6.925   5.439  14.710 -0.8998 -0.9209 -0.2636
   53DOPE   H8Y 6808   6.810   5.554  14.631 -1.7090 -1.4066  3.3189
   53DOPE   C39 6809   6.956   5.657  14.753 -0.3792  1.5349  0.4371
   53DOPE   H9X 6810   7.053   5.696  14.720 -0.8341  2.7475  0.4962
   53DOPE  C310 6811   6.895   5.705  14.862  0.3108 -0.0152 -0.3660
   53DOPE  H10X 6812   6.929   5.797  14.912  0.3966  0.4730 -1.3171
   53DOPE  C311 6813   6.762   5.651  14.919  0.7059  0.7359  0.1703
   53DOPE  H11X 6814   6.706   5.719  14.987 -2.2910 -2.4644  1.1888
   53DOPE  H11Y 6815   6.693   5.632  14.835  1.5297  0.4223 -0.4480
   53DOPE  C312 6816   6.782   5.511  14.978  0.6530 -0.1857 -0.3330
   53DOPE  H12X 6817   6.826   5.532  15.078  0.2371 -0.2002 -0.1460
   53DOPE  H12Y 6818   6.853   5.445  14.923  0.9512  0.6361 -0.9615
   53DOPE  C313 6819   6.646   5.429  14.985 -0.4442 -0.5715 -0.9683
   53DOPE  H13X 6820   6.558   5.492  15.009 -1.2734 -1.1111 -2.4467
   53DOPE  H13Y 6821   6.621   5.388  14.885  1.0424  0.2329 -1.6967
   53DOPE  C314 6822   6.660   5.322  15.087  0.4434 -0.3309 -0.2001
   53DOPE  H14X 6823   6.671   5.372  15.185 -0.3335  0.5403 -0.5448
   53DOPE  H14Y 6824   6.741   5.252  15.057  0.8601  0.5203 -1.0855
   53DOPE  C315 6825   6.536   5.241  15.086  0.8101 -0.0840 -0.5368
   53DOPE  H15X 6826   6.522   5.190  14.989  0.9999 -0.4976 -0.3496
   53DOPE  H15Y 6827   6.443   5.300  15.105  1.7783  0.9717  1.2251
   53DOPE  C316 6828   6.549   5.119  15.185 -1.2052  0.0765  0.1718
   53DOPE  H16X 6829   6.633   5.056  15.148 -1.2845  0.0614  0.0112
   53DOPE  H16Y 6830   6.457   5.057  15.181 -0.3155 -1.4706  2.0909
   53DOPE  C317 6831   6.572   5.161  15.332  0.2223  0.2282  0.0893
   53DOPE  H17X 6832   6.666   5.220  15.345 -0.1206  0.7337  0.2975
   53DOPE  H17Y 6833   6.489   5.232  15.349 -0.0067  0.8477 -3.0022
   53DOPE  C318 6834   6.551   5.050  15.431  0.1168  0.3766 -0.2123
   53DOPE  H18X 6835   6.485   4.969  15.394 -0.4095  0.1439  1.1501
   53DOPE  H18Y 6836   6.649   5.004  15.460  0.3521  1.2983  0.5166
   53DOPE  H18Z 6837   6.511   5.082  15.530  1.6163  0.0210  0.5555
   54DOPE     N 6838   6.965   4.797  13.328  0.0068  0.3036 -0.0807
   54DOPE   HN1 6839   6.994   4.883  13.277  0.4540  0.3848  0.3006
   54DOPE   HN2 6840   6.862   4.798  13.314  0.2108  0.2599 -1.9185
   54DOPE   HN3 6841   6.995   4.801  13.427 -0.4589  2.3540  0.0240
   54DOPE   C12 6842   7.043   4.687  13.255 -0.5890 -0.3585  0.6678
   54DOPE  H12A 6843   7.012   4.694  13.149  1.7766 -2.7429 -0.2818
   54DOPE  H12B 6844   7.007   4.591  13.296 -1.4020 -0.1389  0.4774
   54DOPE   C11 6845   7.192   4.714  13.274  0.0589 -0.3247  0.0684
   54DOPE  H11A 6846   7.217   4.807  13.218 -0.7501  0.2614  0.6635
   54DOPE  H11B 6847   7.256   4.631  13.240 -0.3991 -0.6145 -0.0990
   54DOPE     P 6848   7.339   4.704  13.491 -0.0717  0.1254 -0.0382
   54DOPE   O13 6849   7.327   4.749  13.628  0.2420 -0.4034  0.7351
   54DOPE   O14 6850   7.456   4.751  13.419 -0.5702  0.0419 -0.2056
   54DOPE   O11 6851   7.356   4.545  13.500 -0.0200  0.1633 -0.0031
   54DOPE   O12 6852   7.214   4.737  13.412  0.1171 -0.0264  0.0299
   54DOPE    C1 6853   7.255   4.447  13.539  0.6465 -0.4065  0.4403
   54DOPE    HA 6854   7.293   4.348  13.505 -0.0404 -0.5601  0.0951
   54DOPE    HB 6855   7.160   4.466  13.485  2.0630  2.2400 -1.3490
   54DOPE    C2 6856   7.226   4.444  13.689 -0.3665  0.0425  0.4239
   54DOPE    HS 6857   7.158   4.529  13.709 -0.1084  0.3418  0.0350
   54DOPE   O21 6858   7.348   4.451  13.765 -0.2859 -0.1830 -0.2846
   54DOPE   C21 6859   7.328   4.477  13.893 -0.0991 -0.3510 -1.1986
   54DOPE   O22 6860   7.227   4.526  13.945 -0.0673 -0.0625 -0.2595
   54DOPE   C22 6861   7.458   4.462  13.979  0.4276  0.5221  0.1440
   54DOPE   H2R 6862   7.431   4.412  14.075  1.7431 -0.9106 -0.1919
   54DOPE   H2S 6863   7.485   4.563  14.015  0.5816  0.6323 -0.2816
   54DOPE    C3 6864   7.135   4.322  13.732 -0.5068 -0.0715 -0.3296
   54DOPE    HX 6865   7.082   4.292  13.638  1.1831  2.4599 -2.2487
   54DOPE    HY 6866   7.058   4.363  13.801  0.0752  0.3698  0.0577
   54DOPE   O31 6867   7.223   4.221  13.794  0.0752 -0.5623  0.1770
   54DOPE   C31 6868   7.180   4.103  13.799  0.2249 -0.6406 -0.7605
   54DOPE   O32 6869   7.076   4.059  13.750 -0.2400 -0.3928 -0.1855
   54DOPE   C32 6870   7.272   4.024  13.889 -0.2477  0.1899 -0.3694
   54DOPE   H2X 6871   7.269   3.914  13.872  0.7715  0.1361 -0.2635
   54DOPE   H2Y 6872   7.378   4.052  13.871 -0.3566  2.4891  1.9349
   54DOPE   C23 6873   7.571   4.392  13.901  0.5076 -0.0615  0.0622
   54DOPE   H3R 6874   7.594   4.470  13.825 -1.3599 -0.4817 -0.9874
   54DOPE   H3S 6875   7.542   4.299  13.848 -0.9620  1.6041 -2.2470
   54DOPE   C24 6876   7.690   4.367  14.001  0.0152 -0.4765 -0.1342
   54DOPE   H4R 6877   7.709   4.455  14.066 -0.2124 -0.7216  0.2669
   54DOPE   H4S 6878   7.787   4.350  13.951  0.5986 -0.7679  1.0722
   54DOPE   C25 6879   7.663   4.249  14.081 -0.1801 -0.1637 -0.0018
   54DOPE   H5R 6880   7.643   4.162  14.016  0.7242 -0.2945 -0.1177
   54DOPE   H5S 6881   7.576   4.259  14.150  0.4486  0.0009  0.7780
   54DOPE   C26 6882   7.781   4.200  14.165 -0.3295 -0.4327 -0.1552
   54DOPE   H6R 6883   7.803   4.265  14.252 -0.1132 -0.3652 -0.2609
   54DOPE   H6S 6884   7.879   4.204  14.112  0.1835  0.3415  0.8247
   54DOPE   C27 6885   7.755   4.058  14.226 -0.3361 -0.1089  0.3372
   54DOPE   H7R 6886   7.702   4.000  14.147 -1.3753  0.4331  0.6223
   54DOPE   H7S 6887   7.687   4.059  14.313  0.2559  0.6367  0.8005
   54DOPE   C28 6888   7.886   3.981  14.271  1.2983 -0.4389 -0.6687
   54DOPE   H8R 6889   7.939   3.972  14.174 -1.0820  1.4390 -2.2541
   54DOPE   H8S 6890   7.851   3.878  14.297 -1.4166  0.5004 -0.3100
   54DOPE   C29 6891   7.959   4.051  14.381 -0.4999 -0.1396  0.4259
   54DOPE   H9R 6892   8.021   4.132  14.339 -2.0627  0.5954 -0.5561
   54DOPE  C210 6893   7.938   4.035  14.511  0.2454  0.5255 -0.0359
   54DOPE  H10R 6894   7.994   4.098  14.581  1.3935 -0.3523 -0.1358
   54DOPE  C211 6895   7.854   3.926  14.582 -0.2587  0.5943  0.2149
   54DOPE  H11R 6896   7.767   3.900  14.519  0.9480 -1.7113 -0.6202
   54DOPE  H11S 6897   7.811   3.966  14.677  0.9187  2.3612  0.0423
   54DOPE  C212 6898   7.930   3.795  14.608 -0.6571  0.9198 -0.1164
   54DOPE  H12R 6899   7.935   3.731  14.517  0.9053 -0.3549  0.8161
   54DOPE  H12S 6900   7.875   3.739  14.687 -1.4735  4.0200  1.6746
   54DOPE  C213 6901   8.070   3.810  14.662 -0.5970 -0.4777  0.0124
   54DOPE  H13R 6902   8.063   3.887  14.741 -1.3380  0.6839 -1.1493
   54DOPE  H13S 6903   8.133   3.856  14.582 -1.5850  0.7505 -0.0910
   54DOPE  C214 6904   8.130   3.676  14.705  0.2970  0.5070 -0.2560
   54DOPE  H14R 6905   8.114   3.604  14.622 -0.3086 -1.3103  1.3416
   54DOPE  H14S 6906   8.066   3.638  14.788  0.6219  1.9218  0.6875
   54DOPE  C215 6907   8.275   3.669  14.748  0.4599 -0.1230 -0.5669
   54DOPE  H15R 6908   8.281   3.743  14.831 -1.7620  0.7963 -1.1761
   54DOPE  H15S 6909   8.354   3.693  14.673  1.7026 -0.7824  0.4792
   54DOPE  C216 6910   8.314   3.528  14.790 -0.4425 -0.1668 -1.0121
   54DOPE  H16R 6911   8.306   3.466  14.698 -0.7727  0.3492 -1.3383
   54DOPE  H16S 6912   8.246   3.484  14.866  1.8052 -0.6599  0.8376
   54DOPE  C217 6913   8.454   3.512  14.854 -0.8508 -0.6928  0.2539
   54DOPE  H17R 6914   8.454   3.571  14.948  0.2381 -0.4619  0.1193
   54DOPE  H17S 6915   8.527   3.564  14.788 -0.6643  0.7654  1.5484
   54DOPE  C218 6916   8.502   3.371  14.881  0.2014  0.1273 -0.8828
   54DOPE  H18R 6917   8.435   3.311  14.947  2.1243  0.0928  1.1605
   54DOPE  H18S 6918   8.605   3.375  14.922 -0.8447  0.7427  1.9388
   54DOPE  H18T 6919   8.510   3.319  14.784  0.5125  1.2639 -1.4813
   54DOPE   C33 6920   7.255   4.064  14.038  0.1477 -0.5512  0.0548
   54DOPE   H3X 6921   7.145   4.072  14.049 -0.1516 -2.3789 -1.2257
   54DOPE   H3Y 6922   7.307   4.162  14.048 -0.0246 -0.0718 -2.8195
   54DOPE   C34 6923   7.312   3.972  14.134  0.4366  0.2459 -0.1432
   54DOPE   H4X 6924   7.278   3.867  14.120 -0.3094  0.0542  2.5149
   54DOPE   H4Y 6925   7.423   3.969  14.132  0.4511  1.2071 -1.8695
   54DOPE   C35 6926   7.284   4.009  14.283  0.2141 -0.1219  0.1925
   54DOPE   H5X 6927   7.173   4.003  14.288  0.0174 -0.1888 -2.7413
   54DOPE   H5Y 6928   7.305   4.114  14.311  3.5357 -0.3277 -1.1157
   54DOPE   C36 6929   7.370   3.921  14.376  1.1147  0.2633  0.5990
   54DOPE   H6X 6930   7.475   3.935  14.341  0.2310  1.9935 -1.5944
   54DOPE   H6Y 6931   7.348   3.815  14.351  0.7168 -0.6276  4.1392
   54DOPE   C37 6932   7.350   3.949  14.527  0.5823  0.1701  0.2468
   54DOPE   H7X 6933   7.388   4.048  14.562 -1.2729 -0.2655  3.9677
   54DOPE   H7Y 6934   7.245   3.935  14.559 -0.2360 -0.8165 -2.5587
   54DOPE   C38 6935   7.437   3.841  14.597 -0.4874 -0.3802 -0.1708
   54DOPE   H8X 6936   7.454   3.881  14.699 -0.9334  1.2090 -0.6835
   54DOPE   H8Y 6937   7.536   3.840  14.546 -0.5122  1.1804 -0.3250
   54DOPE   C39 6938   7.369   3.703  14.600  0.1256  0.8418  0.4534
   54DOPE   H9X 6939   7.321   3.678  14.504  2.7481  1.6409 -1.1444
   54DOPE  C310 6940   7.347   3.624  14.705  0.4977  0.2138 -0.1604
   54DOPE  H10X 6941   7.281   3.536  14.701  1.0213 -0.1633 -0.5900
   54DOPE  C311 6942   7.400   3.651  14.847 -0.0544  0.6284 -0.5177
   54DOPE  H11X 6943   7.411   3.555  14.902  1.8900  1.0355 -0.1273
   54DOPE  H11Y 6944   7.500   3.698  14.853  0.6727 -0.5685 -2.3921
   54DOPE  C312 6945   7.300   3.740  14.924 -0.2484 -0.2267  0.2332
   54DOPE  H12X 6946   7.303   3.844  14.886 -0.9542 -0.6031 -0.8969
   54DOPE  H12Y 6947   7.318   3.735  15.033  1.7144  0.4088 -0.0239
   54DOPE  C313 6948   7.157   3.684  14.926  0.2777  0.6308  0.1797
   54DOPE  H13X 6949   7.127   3.669  14.820  1.8956  2.4048 -0.5964
   54DOPE  H13Y 6950   7.154   3.586  14.979 -0.5915  0.3720 -0.3269
   54DOPE  C314 6951   7.060   3.782  14.992 -0.1873  0.1170  0.3785
   54DOPE  H14X 6952   7.095   3.786  15.098  0.4130 -0.6277  0.2190
   54DOPE  H14Y 6953   6.954   3.748  14.987  0.4270 -1.7853 -0.9480
   54DOPE  C315 6954   7.058   3.930  14.942  0.3139  0.0646  0.8362
   54DOPE  H15X 6955   7.156   3.982  14.938  1.5775 -2.2605 -0.8558
   54DOPE  H15Y 6956   6.986   3.989  15.003 -0.1232  1.4524 -0.9567
   54DOPE  C316 6957   6.989   3.952  14.805 -1.5322  0.3141 -0.1603
   54DOPE  H16X 6958   6.896   3.893  14.791 -2.4483  1.6505  0.1155
   54DOPE  H16Y 6959   7.062   3.922  14.727  0.0500  2.1574  0.5161
   54DOPE  C317 6960   6.937   4.096  14.783  0.3369 -0.5975 -0.0951
   54DOPE  H17X 6961   6.897   4.103  14.679  1.1876 -2.2022 -0.5655
   54DOPE  H17Y 6962   6.849   4.118  14.846 -0.2253  0.6498 -1.2485
   54DOPE  C318 6963   7.043   4.202  14.771  0.8512  0.1231  0.0915
   54DOPE  H18X 6964   7.069   4.240  14.872 -1.1616  1.8153  0.0493
   54DOPE  H18Y 6965   7.130   4.157  14.719 -0.0788 -0.7850 -0.7420
   54DOPE  H18Z 6966   7.006   4.291  14.716  0.8586 -0.4548 -0.8809
   55DOPE     N 6967   0.310   5.528  12.972  0.4436  0.0723 -0.4277
   55DOPE   HN1 6968   0.320   5.546  13.074 -0.8829  0.0073 -0.2720
   55DOPE   HN2 6969   0.212   5.503  12.950  1.1922 -0.3780 -3.8691
   55DOPE   HN3 6970   0.371   5.447  12.950 -0.1138 -0.0402 -1.6575
   55DOPE   C12 6971   0.336   5.655  12.899 -0.5827 -0.3267  0.4792
   55DOPE  H12A 6972   0.263   5.735  12.925  0.5009  0.0603  2.4980
   55DOPE  H12B 6973   0.343   5.631  12.791  0.5277 -0.6540  0.6199
   55DOPE   C11 6974   0.480   5.707  12.942 -0.1753  0.2721 -0.0169
   55DOPE  H11A 6975   0.483   5.736  13.049  3.9541  0.3788 -0.0039
   55DOPE  H11B 6976   0.495   5.799  12.881  0.9204  0.8372  1.0638
   55DOPE     P 6977   0.738   5.615  12.953 -0.1241 -0.4507 -0.0365
   55DOPE   O13 6978   0.782   5.747  12.897  0.0491 -0.2625  0.0435
   55DOPE   O14 6979   0.807   5.497  12.905 -0.4913 -0.2529  0.2202
   55DOPE   O11 6980   0.736   5.620  13.116  0.4659  0.0610 -0.1577
   55DOPE   O12 6981   0.582   5.605  12.917  0.0291 -0.0473 -0.6323
   55DOPE    C1 6982   0.667   5.515  13.186  0.3633 -0.2449 -0.7534
   55DOPE    HA 6983   0.692   5.412  13.153  0.1548 -1.3761  2.3257
   55DOPE    HB 6984   0.558   5.533  13.174  0.0905 -0.8076  0.6321
   55DOPE    C2 6985   0.699   5.534  13.335  0.2212 -0.2674 -0.3228
   55DOPE    HS 6986   0.660   5.630  13.374  1.5436  0.8663 -1.6169
   55DOPE   O21 6987   0.838   5.510  13.356  0.2462 -0.0362 -0.3699
   55DOPE   C21 6988   0.910   5.623  13.365 -0.5228 -0.1763  0.1515
   55DOPE   O22 6989   0.865   5.735  13.364  0.3948 -0.2504 -0.5082
   55DOPE   C22 6990   1.059   5.583  13.383 -0.6433  0.5970 -0.5723
   55DOPE   H2R 6991   1.100   5.601  13.281 -2.0237  2.9370 -0.8059
   55DOPE   H2S 6992   1.069   5.478  13.415  0.8156 -0.4791 -4.0739
   55DOPE    C3 6993   0.616   5.435  13.425  0.1590 -0.7766  0.7634
   55DOPE    HX 6994   0.637   5.329  13.397 -0.7868 -0.7649 -0.0486
   55DOPE    HY 6995   0.508   5.444  13.404  0.4039 -0.6157 -0.5101
   55DOPE   O31 6996   0.638   5.457  13.564  0.1486 -0.5903 -0.0938
   55DOPE   C31 6997   0.558   5.545  13.628 -0.0715  0.4372  0.3936
   55DOPE   O32 6998   0.461   5.598  13.578 -0.0732  0.2412 -0.0672
   55DOPE   C32 6999   0.616   5.571  13.762  0.6423 -0.6505  0.9464
   55DOPE   H2X 7000   0.649   5.475  13.806  1.3596 -2.2326 -2.7228
   55DOPE   H2Y 7001   0.707   5.634  13.758  1.1054 -1.3852 -0.6088
   55DOPE   C23 7002   1.129   5.674  13.484  0.1522  0.2028  0.2941
   55DOPE   H3R 7003   1.088   5.776  13.472 -1.7561 -0.6680 -1.1059
   55DOPE   H3S 7004   1.237   5.670  13.462 -0.0327  1.5859 -0.9919
   55DOPE   C24 7005   1.088   5.624  13.623 -0.1038 -0.0979  0.5677
   55DOPE   H4R 7006   1.051   5.519  13.619 -2.7505  0.5259  3.5931
   55DOPE   H4S 7007   1.004   5.685  13.663  1.0390  0.0968  2.8550
   55DOPE   C25 7008   1.205   5.645  13.729 -0.5901  0.2903 -0.3427
   55DOPE   H5R 7009   1.247   5.745  13.709 -1.5679  0.6643 -0.5604
   55DOPE   H5S 7010   1.291   5.574  13.724  0.4171  1.5408 -3.5961
   55DOPE   C26 7011   1.151   5.651  13.872 -0.1064 -0.4879 -0.6235
   55DOPE   H6R 7012   1.067   5.578  13.865 -0.0679 -0.7077  0.8325
   55DOPE   H6S 7013   1.103   5.749  13.890  0.6186 -0.3956  0.9983
   55DOPE   C27 7014   1.245   5.619  13.990 -0.2709  0.2159  0.1504
   55DOPE   H7R 7015   1.300   5.525  13.967  1.0292  0.5503  1.6560
   55DOPE   H7S 7016   1.184   5.612  14.083 -1.0596  2.6336 -0.1185
   55DOPE   C28 7017   1.355   5.731  14.013 -0.7556  0.3188 -0.1964
   55DOPE   H8R 7018   1.295   5.820  14.042 -0.0980  0.1379  1.8624
   55DOPE   H8S 7019   1.405   5.760  13.918  1.9196  1.1223  1.3713
   55DOPE   C29 7020   1.460   5.700  14.113 -0.6136 -0.2125 -0.2546
   55DOPE   H9R 7021   1.529   5.616  14.098 -0.8931 -0.8522  1.7108
   55DOPE  C210 7022   1.472   5.761  14.228 -0.0780 -0.8640 -0.0550
   55DOPE  H10R 7023   1.552   5.737  14.299  0.4434  0.9434  0.0352
   55DOPE  C211 7024   1.379   5.869  14.279  0.4309 -0.0043  0.2017
   55DOPE  H11R 7025   1.277   5.839  14.247  1.0900 -2.0831 -0.1212
   55DOPE  H11S 7026   1.407   5.959  14.220  1.2377 -0.3548  0.0232
   55DOPE  C212 7027   1.393   5.875  14.434 -1.0785 -0.4570  1.3296
   55DOPE  H12R 7028   1.362   5.974  14.472 -2.3881  0.0734 -0.9072
   55DOPE  H12S 7029   1.497   5.864  14.472 -0.5546  0.3030  0.1758
   55DOPE  C213 7030   1.304   5.773  14.503 -0.8465 -0.4476 -0.4593
   55DOPE  H13R 7031   1.317   5.677  14.450  3.3296 -1.6182  2.2680
   55DOPE  H13S 7032   1.201   5.803  14.472 -1.0243 -1.3274 -0.7427
   55DOPE  C214 7033   1.325   5.764  14.651  0.3213 -0.1420 -0.3446
   55DOPE  H14R 7034   1.329   5.864  14.700  0.0828 -0.3522  0.1056
   55DOPE  H14S 7035   1.430   5.732  14.669  0.6195  0.4172 -1.0611
   55DOPE  C215 7036   1.221   5.676  14.712  0.4251  0.4076 -0.0907
   55DOPE  H15R 7037   1.265   5.627  14.803 -0.6007  1.0754  0.7894
   55DOPE  H15S 7038   1.206   5.592  14.640  1.7798  1.0428 -1.1511
   55DOPE  C216 7039   1.098   5.747  14.758  0.4928 -0.0678 -0.3759
   55DOPE  H16R 7040   1.036   5.668  14.806 -0.1133  1.2585  1.1143
   55DOPE  H16S 7041   1.046   5.775  14.663  0.6602 -1.9043 -1.0453
   55DOPE  C217 7042   1.125   5.856  14.864  0.8211 -1.5847  0.3209
   55DOPE  H17R 7043   1.028   5.903  14.893  0.5462 -1.5440 -0.6340
   55DOPE  H17S 7044   1.180   5.942  14.820 -0.6668  0.2243  1.7888
   55DOPE  C218 7045   1.188   5.801  15.000  0.5439 -0.4625  0.3747
   55DOPE  H18R 7046   1.180   5.871  15.085  3.0948  0.2782  0.0909
   55DOPE  H18S 7047   1.297   5.783  14.986  0.8217  2.0088 -1.1204
   55DOPE  H18T 7048   1.137   5.705  15.024  0.8871 -0.4177  1.2978
   55DOPE   C33 7049   0.501   5.652  13.837 -0.1700 -0.3952 -0.2187
   55DOPE   H3X 7050   0.405   5.600  13.820  0.8110 -1.9911 -1.1744
   55DOPE   H3Y 7051   0.497   5.759  13.805  2.0407 -0.3444 -0.4941
   55DOPE   C34 7052   0.522   5.645  13.990  0.3659  0.0320  0.6210
   55DOPE   H4X 7053   0.502   5.540  14.023  1.6400 -0.3425  0.2701
   55DOPE   H4Y 7054   0.622   5.685  14.014  0.8387  0.2439 -1.5284
   55DOPE   C35 7055   0.422   5.731  14.063 -0.6831  0.1723 -0.3797
   55DOPE   H5X 7056   0.442   5.827  14.012 -2.3306 -0.0156 -1.4685
   55DOPE   H5Y 7057   0.443   5.730  14.172 -0.5284  0.6396 -0.4049
   55DOPE   C36 7058   0.271   5.687  14.045 -0.6355 -0.3581  0.3443
   55DOPE   H6X 7059   0.259   5.578  14.066  3.2694 -1.1657 -0.8267
   55DOPE   H6Y 7060   0.249   5.701  13.937  0.4610 -0.0623  0.1534
   55DOPE   C37 7061   0.170   5.769  14.127 -0.3651  0.1360  0.4269
   55DOPE   H7X 7062   0.179   5.755  14.237 -0.1391 -0.1474  0.3752
   55DOPE   H7Y 7063   0.195   5.870  14.090 -0.9359 -0.6483 -2.3580
   55DOPE   C38 7064   0.027   5.736  14.081 -0.4884  0.1713 -0.5320
   55DOPE   H8X 7065   0.019   5.733  13.971  0.0875 -0.9009 -0.5508
   55DOPE   H8Y 7066  -0.038   5.819  14.116 -1.1189 -1.1496  1.6267
   55DOPE   C39 7067  -0.028   5.604  14.131  0.3979  0.5010  0.1084
   55DOPE   H9X 7068   0.005   5.517  14.074 -2.4114 -0.6164  0.0301
   55DOPE  C310 7069  -0.108   5.578  14.236 -0.9040 -0.1325  0.2045
   55DOPE  H10X 7070  -0.099   5.477  14.277 -1.4353 -0.3711 -0.2588
   55DOPE  C311 7071  -0.172   5.673  14.329 -0.4581 -1.1063  0.3169
   55DOPE  H11X 7072  -0.160   5.779  14.296  0.1542 -0.0938  3.4715
   55DOPE  H11Y 7073  -0.282   5.659  14.315 -0.5967  1.6989 -2.7296
   55DOPE  C312 7074  -0.141   5.657  14.474  0.3057 -0.2536 -0.4330
   55DOPE  H12X 7075  -0.040   5.700  14.490 -0.0282  0.6623 -0.7459
   55DOPE  H12Y 7076  -0.151   5.552  14.510 -0.9218  0.3508  1.1565
   55DOPE  C313 7077  -0.243   5.746  14.548 -0.5850 -0.1876 -0.2721
   55DOPE  H13X 7078  -0.224   5.849  14.511 -0.6060 -0.2688 -0.5087
   55DOPE  H13Y 7079  -0.348   5.722  14.520 -1.2232  2.8620 -0.8560
   55DOPE  C314 7080  -0.217   5.755  14.699  0.5957  0.0694  0.0454
   55DOPE  H14X 7081  -0.111   5.723  14.712  0.8910  0.9843 -0.0165
   55DOPE  H14Y 7082  -0.271   5.673  14.750  0.2734 -0.0564 -0.5014
   55DOPE  C315 7083  -0.239   5.891  14.759 -0.3441 -0.0069 -0.7388
   55DOPE  H15X 7084  -0.339   5.935  14.738 -0.8669  0.4903  2.3032
   55DOPE  H15Y 7085  -0.159   5.964  14.734 -1.6430  2.2887  1.3090
   55DOPE  C316 7086  -0.217   5.875  14.912 -0.2241  0.9076 -0.0340
   55DOPE  H16X 7087  -0.149   5.791  14.938 -0.4482 -0.1522 -2.5595
   55DOPE  H16Y 7088  -0.307   5.834  14.961  1.9053 -1.3399  2.3368
   55DOPE  C317 7089  -0.174   6.002  14.983  0.3256 -0.6288 -0.4671
   55DOPE  H17X 7090  -0.105   5.984  15.068  0.1760 -0.5814 -0.3360
   55DOPE  H17Y 7091  -0.128   6.071  14.909  1.5629 -1.3148 -0.3520
   55DOPE  C318 7092  -0.291   6.081  15.050  0.0515  1.0015 -0.4321
   55DOPE  H18X 7093  -0.250   6.142  15.134  2.7186  0.1822 -1.0479
   55DOPE  H18Y 7094  -0.327   6.145  14.966 -0.5832  2.2525  0.7365
   55DOPE  H18Z 7095  -0.368   6.012  15.091 -1.7596  2.5905 -0.9861
   56DOPE     N 7096   1.723   5.669  12.903 -0.2742 -0.1088 -0.4310
   56DOPE   HN1 7097   1.789   5.738  12.861  0.0676  2.4803  3.6989
   56DOPE   HN2 7098   1.633   5.684  12.854  0.7448  2.5675 -1.6983
   56DOPE   HN3 7099   1.707   5.708  12.998 -1.4967 -1.5317 -0.0311
   56DOPE   C12 7100   1.776   5.527  12.906 -0.1481 -0.8351  0.1108
   56DOPE  H12A 7101   1.843   5.525  12.995  1.4094  2.1420 -0.8790
   56DOPE  H12B 7102   1.833   5.521  12.811  0.0586  0.2900  0.1477
   56DOPE   C11 7103   1.664   5.422  12.921  0.5781  0.3615  0.1761
   56DOPE  H11A 7104   1.648   5.405  13.030 -1.9467  1.1319 -0.0210
   56DOPE  H11B 7105   1.713   5.339  12.866  1.7203 -0.7900  2.7532
   56DOPE     P 7106   1.419   5.376  12.821 -0.3830  0.1505 -0.1573
   56DOPE   O13 7107   1.461   5.239  12.850  0.0995 -0.1912 -0.1132
   56DOPE   O14 7108   1.393   5.400  12.679 -0.1189 -0.2401  0.2888
   56DOPE   O11 7109   1.307   5.413  12.923 -0.5655 -0.5669 -1.0347
   56DOPE   O12 7110   1.538   5.470  12.859  0.4200 -0.2220 -0.3079
   56DOPE    C1 7111   1.290   5.540  12.994 -0.2540 -0.3472  0.3700
   56DOPE    HA 7112   1.184   5.548  13.028  0.2334  1.5048  1.5719
   56DOPE    HB 7113   1.309   5.621  12.921  0.7975  0.8291  1.8737
   56DOPE    C2 7114   1.382   5.561  13.108  0.0217  0.0339 -0.2528
   56DOPE    HS 7115   1.483   5.537  13.068  0.2423 -1.1164  0.9110
   56DOPE   O21 7116   1.339   5.465  13.207  0.6486 -0.4488  0.0130
   56DOPE   C21 7117   1.433   5.428  13.291 -0.1226  0.0153  0.2491
   56DOPE   O22 7118   1.551   5.458  13.284  0.2032 -0.0563  0.6017
   56DOPE   C22 7119   1.375   5.339  13.403 -0.1220 -0.2103 -0.2882
   56DOPE   H2R 7120   1.348   5.237  13.368 -1.6015 -1.9205  4.9732
   56DOPE   H2S 7121   1.285   5.382  13.452 -0.3830 -0.5403 -0.4702
   56DOPE    C3 7122   1.361   5.705  13.164 -0.4304 -0.3063 -0.0022
   56DOPE    HX 7123   1.253   5.707  13.189 -0.6459 -0.5003 -0.8990
   56DOPE    HY 7124   1.377   5.784  13.087  3.1938 -0.3277  0.5501
   56DOPE   O31 7125   1.443   5.739  13.279 -0.3016 -0.6242  0.0339
   56DOPE   C31 7126   1.576   5.752  13.255  0.3741 -0.6385  0.5986
   56DOPE   O32 7127   1.628   5.730  13.143  0.6248  0.3848  0.1769
   56DOPE   C32 7128   1.646   5.776  13.386  0.1758 -0.7857  0.3617
   56DOPE   H2X 7129   1.613   5.695  13.454 -1.1562 -2.3252 -1.9840
   56DOPE   H2Y 7130   1.755   5.783  13.364  0.0940  0.8444  0.3446
   56DOPE   C23 7131   1.486   5.298  13.498  0.4230 -0.2097 -0.8609
   56DOPE   H3R 7132   1.578   5.262  13.447  0.6550 -0.0757 -0.5413
   56DOPE   H3S 7133   1.443   5.215  13.557  0.2483  1.3384  1.3211
   56DOPE   C24 7134   1.521   5.403  13.608 -0.3244 -0.1862  0.3805
   56DOPE   H4R 7135   1.436   5.424  13.676 -0.0459  1.9711  0.1193
   56DOPE   H4S 7136   1.546   5.496  13.554 -1.9256 -1.4327 -2.7458
   56DOPE   C25 7137   1.633   5.378  13.702 -1.1043 -0.0896 -0.1891
   56DOPE   H5R 7138   1.731   5.373  13.650 -1.3172 -1.0713 -0.5232
   56DOPE   H5S 7139   1.625   5.275  13.743 -3.3198  0.0171 -0.2294
   56DOPE   C26 7140   1.638   5.477  13.826  0.6266 -0.3905  0.3248
   56DOPE   H6R 7141   1.533   5.486  13.860  0.8310  1.9791  0.5149
   56DOPE   H6S 7142   1.652   5.579  13.785 -2.5023 -0.0517 -0.1374
   56DOPE   C27 7143   1.747   5.435  13.921 -0.6943 -0.8676 -0.1237
   56DOPE   H7R 7144   1.756   5.509  14.003  0.3187 -2.3210  1.1443
   56DOPE   H7S 7145   1.843   5.445  13.866 -1.0220 -1.4330 -0.8251
   56DOPE   C28 7146   1.737   5.295  13.973 -0.2978 -0.0117  0.3048
   56DOPE   H8R 7147   1.821   5.283  14.045 -1.3159 -0.2444  1.5031
   56DOPE   H8S 7148   1.766   5.230  13.888 -0.1524  1.6035 -0.9236
   56DOPE   C29 7149   1.607   5.259  14.039 -0.2111  0.1298 -0.6443
   56DOPE   H9R 7150   1.524   5.229  13.972 -1.7578 -0.1140  1.3078
   56DOPE  C210 7151   1.589   5.235  14.167  0.1741  0.1253 -0.5881
   56DOPE  H10R 7152   1.491   5.200  14.201  1.0789 -0.7725  1.2015
   56DOPE  C211 7153   1.690   5.258  14.281 -0.4460 -0.2007  0.1584
   56DOPE  H11R 7154   1.645   5.308  14.369  1.4263  2.3980 -0.2501
   56DOPE  H11S 7155   1.778   5.322  14.259 -1.2286  0.8238 -0.0403
   56DOPE  C212 7156   1.754   5.114  14.315 -0.2029  0.0074 -0.1288
   56DOPE  H12R 7157   1.672   5.040  14.301 -1.2807  1.0836  0.2687
   56DOPE  H12S 7158   1.781   5.108  14.422 -1.4107 -1.2798  0.1396
   56DOPE  C213 7159   1.862   5.076  14.220 -0.4296 -0.2362 -0.1114
   56DOPE  H13R 7160   1.946   5.149  14.226 -0.1022 -0.6949  1.3296
   56DOPE  H13S 7161   1.823   5.073  14.117  1.3566  0.6673 -0.8658
   56DOPE  C214 7162   1.936   4.939  14.249  0.5144  0.2446 -0.3975
   56DOPE  H14R 7163   1.866   4.871  14.301  1.0899 -0.6207 -0.7444
   56DOPE  H14S 7164   2.018   4.964  14.320  0.4812  1.0679 -0.6379
   56DOPE  C215 7165   1.989   4.873  14.125  0.6697  0.4041  0.6312
   56DOPE  H15R 7166   2.035   4.951  14.060 -1.7927  1.5832  0.1728
   56DOPE  H15S 7167   1.903   4.833  14.067  1.1525  0.6551 -0.2633
   56DOPE  C216 7168   2.086   4.761  14.165  0.3412 -0.3820  0.2582
   56DOPE  H16R 7169   2.047   4.696  14.247  1.4995  0.6922  1.7126
   56DOPE  H16S 7170   2.169   4.812  14.219  0.0879  0.7253 -0.3760
   56DOPE  C217 7171   2.150   4.695  14.038  0.2338 -0.4743  0.2316
   56DOPE  H17R 7172   2.067   4.633  14.000 -0.2333  0.8403 -0.9654
   56DOPE  H17S 7173   2.229   4.629  14.080 -0.0920  0.8587  3.1995
   56DOPE  C218 7174   2.202   4.795  13.932 -0.0738  0.1605  0.6146
   56DOPE  H18R 7175   2.265   4.876  13.972  0.7932 -0.8549  1.3614
   56DOPE  H18S 7176   2.108   4.833  13.887  0.7782  0.6947 -0.7737
   56DOPE  H18T 7177   2.255   4.742  13.850 -0.3955  0.2600  0.3388
   56DOPE   C33 7178   1.596   5.909  13.445 -0.6499  0.1368  0.1605
   56DOPE   H3X 7179   1.489   5.901  13.476 -0.7361  1.2849  0.2023
   56DOPE   H3Y 7180   1.613   5.997  13.380  1.1148 -0.5204 -0.3009
   56DOPE   C34 7181   1.675   5.933  13.577  0.1683 -0.2600  1.0299
   56DOPE   H4X 7182   1.644   5.850  13.644 -0.4528 -0.2903  0.7088
   56DOPE   H4Y 7183   1.784   5.928  13.556 -0.1726  1.7494 -1.6871
   56DOPE   C35 7184   1.643   6.073  13.638 -0.0325 -0.4847  0.3238
   56DOPE   H5X 7185   1.537   6.105  13.651  0.4943  1.6902 -0.3372
   56DOPE   H5Y 7186   1.693   6.141  13.567 -1.9806 -1.4059 -2.0816
   56DOPE   C36 7187   1.715   6.084  13.776 -0.0104  0.3741  0.1588
   56DOPE   H6X 7188   1.740   6.190  13.796 -0.7725  0.6734 -0.4305
   56DOPE   H6Y 7189   1.805   6.020  13.778 -0.3203 -0.0659  2.1456
   56DOPE   C37 7190   1.630   6.027  13.894  0.9758  0.3671  0.0122
   56DOPE   H7X 7191   1.530   6.074  13.898  0.3186 -0.9793  0.0092
   56DOPE   H7Y 7192   1.625   5.920  13.863  2.3098 -0.0559  1.1186
   56DOPE   C38 7193   1.697   6.027  14.030  0.1985 -0.1440  0.2789
   56DOPE   H8X 7194   1.806   6.007  14.028  0.7181  2.1572  1.1638
   56DOPE   H8Y 7195   1.646   5.947  14.088 -0.1465 -1.1057 -1.3031
   56DOPE   C39 7196   1.684   6.168  14.085 -0.7533  0.3042  0.3202
   56DOPE   H9X 7197   1.700   6.250  14.014 -1.6856  1.7211  1.6593
   56DOPE  C310 7198   1.653   6.200  14.212  0.7584 -0.2068  0.1815
   56DOPE  H10X 7199   1.644   6.309  14.228 -1.8730 -0.4665  1.0412
   56DOPE  C311 7200   1.632   6.118  14.336  0.4864 -0.1413 -0.2973
   56DOPE  H11X 7201   1.522   6.110  14.348  0.3819  1.4309 -0.0897
   56DOPE  H11Y 7202   1.656   6.011  14.316 -0.5001 -0.2854 -0.7684
   56DOPE  C312 7203   1.682   6.180  14.470 -0.2260  0.0263  1.0225
   56DOPE  H12X 7204   1.621   6.272  14.482 -0.0364  0.5834 -1.7090
   56DOPE  H12Y 7205   1.791   6.202  14.466  0.7130 -3.8483  1.2305
   56DOPE  C313 7206   1.657   6.102  14.595 -0.3795  0.0426  0.2834
   56DOPE  H13X 7207   1.549   6.075  14.597 -0.3595 -0.0485  0.1558
   56DOPE  H13Y 7208   1.711   6.006  14.581  0.5141  0.6598 -0.6600
   56DOPE  C314 7209   1.693   6.179  14.723  0.8748 -0.0126 -0.2304
   56DOPE  H14X 7210   1.803   6.184  14.734  0.7666  0.4143  0.7908
   56DOPE  H14Y 7211   1.655   6.133  14.817  0.2175  1.9102  0.5159
   56DOPE  C315 7212   1.618   6.320  14.728 -0.0934 -0.5196  1.5058
   56DOPE  H15X 7213   1.511   6.301  14.703  0.0358 -0.5920  1.0041
   56DOPE  H15Y 7214   1.660   6.384  14.648  0.3059 -2.5372  0.0233
   56DOPE  C316 7215   1.627   6.382  14.868 -0.0918  0.2778 -0.0141
   56DOPE  H16X 7216   1.734   6.374  14.897 -0.2616 -0.0194  0.5494
   56DOPE  H16Y 7217   1.571   6.325  14.945 -1.3243 -1.2827 -1.9655
   56DOPE  C317 7218   1.571   6.530  14.872  0.0827  0.1800  0.5526
   56DOPE  H17X 7219   1.571   6.567  14.977 -1.4145 -1.0166  1.0129
   56DOPE  H17Y 7220   1.640   6.590  14.810  2.5772 -2.8907  0.0737
   56DOPE  C318 7221   1.423   6.546  14.839  0.5137  0.1889  0.4836
   56DOPE  H18X 7222   1.402   6.539  14.730  1.4988 -0.7433  0.3412
   56DOPE  H18Y 7223   1.356   6.475  14.893  0.0937  1.0380  1.1136
   56DOPE  H18Z 7224   1.397   6.648  14.876 -1.4863 -0.3069  0.5810
   57DOPE     N 7225   1.248   1.819  13.156 -0.3315 -0.3467 -0.2561
   57DOPE   HN1 7226   1.165   1.873  13.124  1.1230  2.3278  0.2503
   57DOPE   HN2 7227   1.262   1.830  13.258  0.9750  3.6482 -0.6846
   57DOPE   HN3 7228   1.334   1.859  13.114 -0.9338  0.2992 -0.9019
   57DOPE   C12 7229   1.254   1.678  13.124  0.1778 -0.0142 -0.4486
   57DOPE  H12A 7230   1.230   1.662  13.017 -3.1330  0.6527  0.1043
   57DOPE  H12B 7231   1.178   1.627  13.187  1.6538  1.7084  3.0332
   57DOPE   C11 7232   1.387   1.613  13.170  0.1495  0.1756  0.2957
   57DOPE  H11A 7233   1.390   1.504  13.149  1.5147  0.4626 -1.2274
   57DOPE  H11B 7234   1.391   1.615  13.281 -0.6768  0.8921  0.3171
   57DOPE     P 7235   1.638   1.612  13.091 -0.3509 -0.3831  0.2556
   57DOPE   O13 7236   1.753   1.709  13.094  0.0927 -0.0628 -0.7652
   57DOPE   O14 7237   1.627   1.536  12.967 -0.7304 -0.4209 -0.3076
   57DOPE   O11 7238   1.668   1.517  13.222  0.3714 -0.2300  0.4391
   57DOPE   O12 7239   1.502   1.682  13.125 -0.1313  0.4274 -0.2764
   57DOPE    C1 7240   1.640   1.371  13.192  0.1630 -0.0505 -0.4132
   57DOPE    HA 7241   1.715   1.328  13.122  0.1899  1.9093 -1.6491
   57DOPE    HB 7242   1.548   1.337  13.139  0.7629 -3.1365  0.2933
   57DOPE    C2 7243   1.638   1.298  13.334 -0.1993  0.5374  0.1457
   57DOPE    HS 7244   1.616   1.191  13.316 -1.2239  1.2320 -3.6560
   57DOPE   O21 7245   1.535   1.366  13.412 -0.2504  0.1871  1.2304
   57DOPE   C21 7246   1.414   1.306  13.401 -0.2853 -0.2374 -0.0994
   57DOPE   O22 7247   1.392   1.198  13.341  0.4999  0.1563 -0.4420
   57DOPE   C22 7248   1.315   1.391  13.489 -0.2712 -0.0585 -0.1630
   57DOPE   H2R 7249   1.295   1.483  13.430  0.0115 -0.8246 -1.4982
   57DOPE   H2S 7250   1.363   1.399  13.589 -0.0144 -0.0752 -0.2849
   57DOPE    C3 7251   1.770   1.299  13.414  0.0748  0.3725 -0.1641
   57DOPE    HX 7252   1.810   1.403  13.412  0.1196  0.4495  2.2277
   57DOPE    HY 7253   1.849   1.247  13.356 -1.3827 -0.1835 -1.7367
   57DOPE   O31 7254   1.761   1.259  13.558  0.2730 -0.4020  0.2149
   57DOPE   C31 7255   1.747   1.364  13.644 -0.3615 -0.4781 -0.3289
   57DOPE   O32 7256   1.734   1.481  13.616 -0.1637  0.3370 -0.7530
   57DOPE   C32 7257   1.740   1.300  13.794  0.6109  0.3679  0.3821
   57DOPE   H2X 7258   1.673   1.212  13.781 -0.8694  1.5340 -0.2461
   57DOPE   H2Y 7259   1.844   1.263  13.807  0.3047  0.1048  2.2901
   57DOPE   C23 7260   1.174   1.327  13.512  0.0957  0.3074  0.9138
   57DOPE   H3R 7261   1.143   1.269  13.423  1.9914  0.4311  0.1128
   57DOPE   H3S 7262   1.096   1.396  13.549 -0.9333 -0.2901 -0.0957
   57DOPE   C24 7263   1.188   1.230  13.629  0.2459 -0.2887  0.2208
   57DOPE   H4R 7264   1.221   1.291  13.716  0.9094 -0.5352  0.1535
   57DOPE   H4S 7265   1.257   1.145  13.607  1.3128  1.1257 -2.2210
   57DOPE   C25 7266   1.052   1.170  13.676  0.3305  0.3161 -0.1478
   57DOPE   H5R 7267   1.008   1.096  13.606  1.1549 -1.7099  1.3661
   57DOPE   H5S 7268   0.977   1.252  13.686  0.3787  0.3337  0.0913
   57DOPE   C26 7269   1.067   1.077  13.806  1.0487  0.1071  0.3466
   57DOPE   H6R 7270   1.138   1.116  13.881 -0.6104  1.5199  1.2437
   57DOPE   H6S 7271   1.132   0.997  13.764  2.5067  1.6621 -0.4472
   57DOPE   C27 7272   0.933   1.025  13.852  0.1399 -0.3593 -0.5695
   57DOPE   H7R 7273   0.895   0.992  13.753  2.6372 -3.0928 -0.7723
   57DOPE   H7S 7274   0.876   1.112  13.889  0.2192 -0.7234  0.4583
   57DOPE   C28 7275   0.938   0.908  13.954  0.6044  0.3418  0.0252
   57DOPE   H8R 7276   1.007   0.828  13.920  2.1416  1.6615 -0.1358
   57DOPE   H8S 7277   0.833   0.873  13.960  0.6154  0.4142  0.7447
   57DOPE   C29 7278   0.984   0.971  14.087  0.9585 -0.5183  0.1617
   57DOPE   H9R 7279   1.085   1.014  14.088  0.5472  0.7224 -2.3798
   57DOPE  C210 7280   0.894   1.004  14.193 -0.4975  0.1917  0.8924
   57DOPE  H10R 7281   0.932   1.052  14.285 -1.3373  1.1485  0.7673
   57DOPE  C211 7282   0.743   0.980  14.192 -0.0101  0.5617 -0.0551
   57DOPE  H11R 7283   0.709   0.991  14.087  1.3328 -2.8379 -0.9599
   57DOPE  H11S 7284   0.689   1.056  14.254 -0.8887 -1.8372  2.3491
   57DOPE  C212 7285   0.687   0.845  14.242 -0.1914 -0.0756 -0.1606
   57DOPE  H12R 7286   0.707   0.842  14.351 -0.8279  1.2474  0.0100
   57DOPE  H12S 7287   0.745   0.762  14.195  0.9639  0.1741  0.7709
   57DOPE  C213 7288   0.539   0.827  14.214 -0.6414 -0.2336 -0.3808
   57DOPE  H13R 7289   0.511   0.847  14.108  1.4273  1.9403 -0.6046
   57DOPE  H13S 7290   0.490   0.903  14.278 -1.1226 -1.3450  0.6033
   57DOPE  C214 7291   0.470   0.693  14.254 -0.4031 -0.2371  0.2299
   57DOPE  H14R 7292   0.493   0.684  14.363 -1.3880 -0.9780  0.3848
   57DOPE  H14S 7293   0.525   0.605  14.213  0.4822  0.9155 -1.1544
   57DOPE  C215 7294   0.336   0.683  14.200  0.1970 -0.1128  0.1781
   57DOPE  H15R 7295   0.350   0.656  14.093  1.9137  0.6472  0.1817
   57DOPE  H15S 7296   0.267   0.770  14.197 -1.5434 -1.4592 -1.8510
   57DOPE  C216 7297   0.252   0.572  14.275 -0.4801  0.2251 -0.3141
   57DOPE  H16R 7298   0.265   0.583  14.385 -2.3137  0.6309 -0.1056
   57DOPE  H16S 7299   0.294   0.473  14.248 -1.7501 -0.2359 -0.6826
   57DOPE  C217 7300   0.111   0.548  14.224 -0.4213 -0.1841 -0.0302
   57DOPE  H17R 7301   0.047   0.635  14.251 -1.0761  0.0197 -2.0571
   57DOPE  H17S 7302   0.074   0.462  14.284 -1.8496 -0.2340 -0.9472
   57DOPE  C218 7303   0.095   0.498  14.082  0.2495  0.0966 -0.0400
   57DOPE  H18R 7304   0.113   0.388  14.084 -0.7631 -0.1508 -2.0134
   57DOPE  H18S 7305   0.165   0.553  14.016  0.8792  1.6093  1.7996
   57DOPE  H18T 7306  -0.011   0.500  14.049  0.7039  2.7914 -1.5693
   57DOPE   C33 7307   1.709   1.398  13.904  0.0223 -0.4399 -0.3176
   57DOPE   H3X 7308   1.618   1.456  13.881  1.0958  0.5896 -2.2296
   57DOPE   H3Y 7309   1.785   1.478  13.916 -0.8752  0.0783  2.7878
   57DOPE   C34 7310   1.703   1.314  14.034 -0.0914  0.4108  0.6181
   57DOPE   H4X 7311   1.636   1.229  14.009 -1.8068  1.6129  0.9293
   57DOPE   H4Y 7312   1.800   1.262  14.047 -1.1603 -1.8288  0.2248
   57DOPE   C35 7313   1.651   1.383  14.160 -0.4150  0.8707  0.1975
   57DOPE   H5X 7314   1.544   1.411  14.156 -0.4567  1.3217  2.7987
   57DOPE   H5Y 7315   1.715   1.471  14.179 -0.5548  1.1270 -0.4735
   57DOPE   C36 7316   1.659   1.298  14.286  0.1763  0.5301 -0.2913
   57DOPE   H6X 7317   1.596   1.208  14.266 -0.3492  1.1655 -1.6059
   57DOPE   H6Y 7318   1.611   1.361  14.363  1.5382  0.3693  0.7281
   57DOPE   C37 7319   1.792   1.236  14.335 -0.2773  0.5912  0.2827
   57DOPE   H7X 7320   1.832   1.188  14.244 -1.9763  0.0907 -0.2318
   57DOPE   H7Y 7321   1.850   1.326  14.367  0.7983 -0.3465  1.0385
   57DOPE   C38 7322   1.774   1.136  14.453  0.1813 -0.7407 -0.7777
   57DOPE   H8X 7323   1.706   1.050  14.437 -1.9900  0.6504  0.5507
   57DOPE   H8Y 7324   1.727   1.187  14.539 -1.1047 -0.0124 -1.8853
   57DOPE   C39 7325   1.917   1.085  14.482 -0.1874 -0.2568 -0.1513
   57DOPE   H9X 7326   1.966   1.056  14.388 -1.8832 -0.6917 -0.9393
   57DOPE  C310 7327   1.992   1.096  14.595  0.5587  0.5462  0.8980
   57DOPE  H10X 7328   2.092   1.050  14.593 -0.8659 -3.0226  2.5138
   57DOPE  C311 7329   1.964   1.164  14.720 -0.9441  0.1854 -0.2973
   57DOPE  H11X 7330   1.866   1.215  14.712 -0.6719  0.4586 -2.6967
   57DOPE  H11Y 7331   1.966   1.085  14.798 -0.5475 -0.4836 -0.9710
   57DOPE  C312 7332   2.073   1.272  14.743 -0.5134  0.3578 -0.3245
   57DOPE  H12X 7333   2.044   1.308  14.844  0.0400 -3.7533  1.5336
   57DOPE  H12Y 7334   2.056   1.351  14.667 -0.1070  0.0418 -0.7541
   57DOPE  C313 7335   2.221   1.225  14.755  0.5436 -0.4773  0.2970
   57DOPE  H13X 7336   2.242   1.144  14.829  1.0261 -0.0885  0.5951
   57DOPE  H13Y 7337   2.241   1.172  14.659 -1.4178  0.5873 -0.7650
   57DOPE  C314 7338   2.327   1.340  14.780  0.8815 -0.3462  0.2217
   57DOPE  H14X 7339   2.310   1.403  14.870 -0.6503 -1.2278  0.5796
   57DOPE  H14Y 7340   2.322   1.412  14.696  0.8135 -1.7399 -1.0113
   57DOPE  C315 7341   2.478   1.297  14.777 -0.4113  1.0689  0.0559
   57DOPE  H15X 7342   2.510   1.231  14.694 -2.0363  2.2490 -1.5770
   57DOPE  H15Y 7343   2.491   1.262  14.882  0.1364  1.1252  0.0130
   57DOPE  C316 7344   2.571   1.417  14.760 -0.0199  0.6950 -0.4387
   57DOPE  H16X 7345   2.554   1.474  14.854 -1.7028  0.5238 -0.6197
   57DOPE  H16Y 7346   2.549   1.477  14.669 -0.5580  1.7996  0.3975
   57DOPE  C317 7347   2.716   1.354  14.761  0.5384 -0.7756 -0.2748
   57DOPE  H17X 7348   2.734   1.281  14.843  1.6547 -1.0038 -0.6961
   57DOPE  H17Y 7349   2.720   1.306  14.661 -1.0398 -1.4501 -0.0357
   57DOPE  C318 7350   2.828   1.455  14.783  0.1503 -0.3560 -1.1772
   57DOPE  H18X 7351   2.919   1.399  14.813 -0.8011 -0.2648  2.3604
   57DOPE  H18Y 7352   2.852   1.513  14.691  0.0977  1.6670  0.0243
   57DOPE  H18Z 7353   2.799   1.529  14.861  1.3338 -1.2360  0.1419
   58DOPE     N 7354   7.183   5.555  13.196  0.2517  0.2269 -0.6819
   58DOPE   HN1 7355   7.256   5.481  13.192  0.1742  0.1135 -0.1694
   58DOPE   HN2 7356   7.152   5.562  13.295 -1.6377 -1.2393 -1.1121
   58DOPE   HN3 7357   7.092   5.522  13.157 -1.4451  2.7557  0.7800
   58DOPE   C12 7358   7.212   5.685  13.138 -0.6136 -0.8611  0.0067
   58DOPE  H12A 7359   7.124   5.749  13.114  1.0323  0.9718 -1.4809
   58DOPE  H12B 7360   7.259   5.654  13.042 -2.4991 -1.4720 -0.7718
   58DOPE   C11 7361   7.320   5.757  13.230 -0.3351  0.2879 -0.7960
   58DOPE  H11A 7362   7.282   5.777  13.333 -2.5821 -1.5574 -1.1687
   58DOPE  H11B 7363   7.347   5.854  13.183  3.9683  0.3194  1.2628
   58DOPE     P 7364   7.575   5.701  13.172  0.1629 -0.2581  0.3188
   58DOPE   O13 7365   7.548   5.759  13.038  0.1620  0.0259 -0.0851
   58DOPE   O14 7366   7.660   5.578  13.171 -0.2360  0.5040  0.3589
   58DOPE   O11 7367   7.639   5.811  13.266  0.0893  0.7688 -0.5024
   58DOPE   O12 7368   7.439   5.680  13.243 -0.0198  0.0616  0.4585
   58DOPE    C1 7369   7.615   5.810  13.407  0.1232  0.2562  0.2234
   58DOPE    HA 7370   7.591   5.708  13.444  1.1026 -0.0688  0.0077
   58DOPE    HB 7371   7.536   5.882  13.437  0.7566  0.8459  0.5080
   58DOPE    C2 7372   7.742   5.856  13.487 -0.4635  0.8902 -0.5867
   58DOPE    HS 7373   7.716   5.855  13.595 -2.8759  1.6070 -1.0948
   58DOPE   O21 7374   7.773   5.989  13.448 -0.2986  0.5533 -0.3317
   58DOPE   C21 7375   7.891   6.038  13.483 -0.0405  0.1946  0.3327
   58DOPE   O22 7376   7.966   5.997  13.570 -0.4580  0.0117  0.1935
   58DOPE   C22 7377   7.926   6.163  13.395 -0.6288 -0.1339  0.7678
   58DOPE   H2R 7378   7.834   6.206  13.350  0.4889  2.1660  0.5269
   58DOPE   H2S 7379   7.985   6.134  13.306  0.0082  1.6062  0.5792
   58DOPE    C3 7380   7.852   5.747  13.468 -0.5356  0.3331 -0.3903
   58DOPE    HX 7381   7.953   5.766  13.511  0.3045 -2.6757 -0.7453
   58DOPE    HY 7382   7.869   5.749  13.358  1.3328  1.9814 -0.1327
   58DOPE   O31 7383   7.809   5.612  13.497  0.2539  0.3893  0.6839
   58DOPE   C31 7384   7.801   5.595  13.625  0.8083 -0.5263 -0.2987
   58DOPE   O32 7385   7.843   5.668  13.713  0.0097 -0.0742 -0.0035
   58DOPE   C32 7386   7.741   5.456  13.643 -0.2916  0.0384  0.7022
   58DOPE   H2X 7387   7.640   5.458  13.597  0.0391  1.1964 -0.0057
   58DOPE   H2Y 7388   7.807   5.390  13.582 -1.1081 -0.4011  0.2755
   58DOPE   C23 7389   7.983   6.286  13.467 -0.6690 -0.0204 -0.2032
   58DOPE   H3R 7390   8.028   6.348  13.387 -2.3406  0.8610 -0.5091
   58DOPE   H3S 7391   8.061   6.263  13.543 -0.3111 -1.5515 -1.0082
   58DOPE   C24 7392   7.882   6.374  13.549 -0.2289  0.6000  0.3665
   58DOPE   H4R 7393   7.779   6.361  13.509  0.1914  1.3659 -1.0083
   58DOPE   H4S 7394   7.913   6.476  13.519 -0.4761  1.2084  2.0846
   58DOPE   C25 7395   7.890   6.362  13.699  0.3128  0.1372  0.1675
   58DOPE   H5R 7396   7.990   6.372  13.747  0.9482 -0.0643 -1.0511
   58DOPE   H5S 7397   7.861   6.260  13.733 -2.7172  1.0916  0.7240
   58DOPE   C26 7398   7.812   6.471  13.759 -0.3595  0.2646 -0.2539
   58DOPE   H6R 7399   7.727   6.493  13.691 -1.4206 -1.5385  0.4359
   58DOPE   H6S 7400   7.881   6.558  13.770 -0.3659  0.3326 -0.7370
   58DOPE   C27 7401   7.751   6.442  13.897 -0.0594  0.1028 -0.5330
   58DOPE   H7R 7402   7.671   6.365  13.892 -0.5648  0.2871  2.4300
   58DOPE   H7S 7403   7.703   6.539  13.926  0.2169  0.2765 -0.6522
   58DOPE   C28 7404   7.860   6.407  13.999 -0.8027  0.2058 -0.2092
   58DOPE   H8R 7405   7.919   6.317  13.970  0.6744  1.0494  0.0902
   58DOPE   H8S 7406   7.801   6.383  14.090 -1.8031 -2.8486 -1.5109
   58DOPE   C29 7407   7.965   6.518  14.021 -0.2941  0.3159  0.2955
   58DOPE   H9R 7408   8.042   6.529  13.944 -1.0321  0.4424 -0.4356
   58DOPE  C210 7409   7.985   6.580  14.141 -0.4005  0.6216  0.3010
   58DOPE  H10R 7410   8.046   6.672  14.146  1.3631 -0.5212  0.4108
   58DOPE  C211 7411   7.892   6.560  14.257 -0.4695 -0.1520  0.0625
   58DOPE  H11R 7412   7.932   6.496  14.339 -0.3409  1.5872  1.4338
   58DOPE  H11S 7413   7.795   6.510  14.236 -0.9857  0.0326  1.8604
   58DOPE  C212 7414   7.871   6.705  14.317 -0.6067 -0.2469 -0.5707
   58DOPE  H12R 7415   7.859   6.770  14.228  0.4421 -0.4923 -0.9062
   58DOPE  H12S 7416   7.968   6.732  14.364 -1.3932  0.0275  0.9729
   58DOPE  C213 7417   7.742   6.701  14.411  0.3298 -0.5670  0.2855
   58DOPE  H13R 7418   7.754   6.637  14.501  1.0348  1.4392  1.6775
   58DOPE  H13S 7419   7.663   6.674  14.337 -0.6919  0.7734  0.8473
   58DOPE  C214 7420   7.693   6.840  14.457 -0.1463 -0.5502  0.0758
   58DOPE  H14R 7421   7.677   6.898  14.363  4.7115  2.5210  0.8312
   58DOPE  H14S 7422   7.777   6.896  14.503  0.9341 -0.1183 -2.2754
   58DOPE  C215 7423   7.569   6.832  14.549 -0.5703 -0.6495  0.1875
   58DOPE  H15R 7424   7.492   6.786  14.483  0.3211  0.2926 -1.5975
   58DOPE  H15S 7425   7.536   6.932  14.585 -2.3876 -1.4747  0.9121
   58DOPE  C216 7426   7.586   6.748  14.672  0.1492 -0.4830 -0.5812
   58DOPE  H16R 7427   7.623   6.646  14.649 -1.6727 -0.7428 -2.6958
   58DOPE  H16S 7428   7.485   6.729  14.713 -0.1727  0.2438 -1.0087
   58DOPE  C217 7429   7.676   6.827  14.767 -0.1700 -0.4339  0.3797
   58DOPE  H17R 7430   7.621   6.920  14.794 -0.9042 -1.0990  1.2483
   58DOPE  H17S 7431   7.774   6.845  14.720 -0.0665  1.0410  1.1129
   58DOPE  C218 7432   7.709   6.751  14.893 -0.4860 -0.9683 -0.0424
   58DOPE  H18R 7433   7.739   6.646  14.874 -0.8395 -0.6873 -2.4671
   58DOPE  H18S 7434   7.613   6.752  14.949 -0.8659  2.4926 -0.5229
   58DOPE  H18T 7435   7.777   6.807  14.961 -0.9821 -0.3423 -0.0515
   58DOPE   C33 7436   7.724   5.421  13.788 -0.0537 -0.5972  0.1777
   58DOPE   H3X 7437   7.652   5.482  13.846  1.5166  2.0137 -0.4986
   58DOPE   H3Y 7438   7.820   5.420  13.844  1.9617 -0.0364 -3.0145
   58DOPE   C34 7439   7.687   5.274  13.811 -0.7476  0.7746  0.7015
   58DOPE   H4X 7440   7.595   5.249  13.754 -0.2418 -1.1667  0.6856
   58DOPE   H4Y 7441   7.774   5.214  13.777 -2.5746 -1.8565  0.3073
   58DOPE   C35 7442   7.670   5.232  13.959  0.7541  0.2803  0.1774
   58DOPE   H5X 7443   7.619   5.309  14.021  2.8093  0.3567  1.8455
   58DOPE   H5Y 7444   7.773   5.240  13.999  1.7809 -1.6734 -1.8393
   58DOPE   C36 7445   7.608   5.086  13.978  0.3563  0.4080 -0.0130
   58DOPE   H6X 7446   7.695   5.018  13.965  0.9386  0.9934  0.7038
   58DOPE   H6Y 7447   7.550   5.065  13.886 -0.8784 -0.2006  0.8664
   58DOPE   C37 7448   7.545   5.066  14.112  0.1660  0.3026 -0.9767
   58DOPE   H7X 7449   7.465   5.138  14.141 -0.1185 -0.4443  0.1472
   58DOPE   H7Y 7450   7.491   4.970  14.098  1.8243 -0.4455 -2.6781
   58DOPE   C38 7451   7.652   5.035  14.224  0.3098  0.4943  0.2448
   58DOPE   H8X 7452   7.714   5.125  14.239  2.9978 -1.6795  3.5188
   58DOPE   H8Y 7453   7.719   4.957  14.182  0.8754 -0.5137  2.8342
   58DOPE   C39 7454   7.588   5.009  14.353 -0.0586  0.6877  0.7976
   58DOPE   H9X 7455   7.529   5.090  14.399  1.1781  0.6070  2.6019
   58DOPE  C310 7456   7.578   4.888  14.403 -0.5378 -0.0910  0.1736
   58DOPE  H10X 7457   7.507   4.867  14.484  0.6415 -1.4978  0.8888
   58DOPE  C311 7458   7.638   4.757  14.342  0.7940 -0.2468  0.4626
   58DOPE  H11X 7459   7.643   4.767  14.232  0.2566 -0.9200  0.3709
   58DOPE  H11Y 7460   7.734   4.723  14.387  0.6106 -1.7633 -0.2282
   58DOPE  C312 7461   7.552   4.626  14.358  0.0381 -0.3950  0.3367
   58DOPE  H12X 7462   7.556   4.596  14.465  0.6574  0.6114  0.6165
   58DOPE  H12Y 7463   7.618   4.554  14.305  1.3014  0.3425  0.8567
   58DOPE  C313 7464   7.400   4.631  14.315 -0.5412 -0.4718  0.3337
   58DOPE  H13X 7465   7.339   4.713  14.359  0.4242  0.5158 -0.1219
   58DOPE  H13Y 7466   7.390   4.654  14.207 -0.9853 -3.5084 -0.3479
   58DOPE  C314 7467   7.324   4.501  14.350 -0.2595 -0.3086  0.3121
   58DOPE  H14X 7468   7.333   4.484  14.459 -0.7426 -1.3658  0.1912
   58DOPE  H14Y 7469   7.373   4.420  14.291 -1.3090 -0.4192 -0.4375
   58DOPE  C315 7470   7.176   4.500  14.322  0.0079  0.3713 -0.1691
   58DOPE  H15X 7471   7.145   4.517  14.217 -1.4692  0.9981  0.3417
   58DOPE  H15Y 7472   7.132   4.590  14.370  2.4586  1.9868 -0.7364
   58DOPE  C316 7473   7.111   4.372  14.377  0.4386 -0.1211 -0.3087
   58DOPE  H16X 7474   7.153   4.357  14.479  0.5396 -1.7079 -0.5527
   58DOPE  H16Y 7475   7.133   4.293  14.302 -2.3937  2.2431 -3.9829
   58DOPE  C317 7476   6.958   4.376  14.394 -0.4606 -0.9292 -0.5207
   58DOPE  H17X 7477   6.929   4.281  14.445  0.3535 -2.4201 -2.6624
   58DOPE  H17Y 7478   6.940   4.468  14.453  2.2246  0.3827 -1.6049
   58DOPE  C318 7479   6.899   4.367  14.248  0.4271 -0.4565  0.3523
   58DOPE  H18X 7480   6.907   4.264  14.207 -0.5846 -0.0121 -1.0200
   58DOPE  H18Y 7481   6.791   4.391  14.242  0.5583  0.1218  0.2154
   58DOPE  H18Z 7482   6.955   4.435  14.180  0.5522 -0.9234 -0.0158
   59DOPE     N 7483   7.545   7.244  12.879  0.0780  0.4251 -0.4939
   59DOPE   HN1 7484   7.580   7.304  12.802 -0.0290  0.1868 -0.7300
   59DOPE   HN2 7485   7.614   7.167  12.867 -0.3207 -0.4108  2.0776
   59DOPE   HN3 7486   7.448   7.212  12.862 -0.2351  1.8365 -1.5643
   59DOPE   C12 7487   7.558   7.308  13.018  0.1582 -0.5745 -0.9966
   59DOPE  H12A 7488   7.498   7.251  13.093  0.7003  0.2427  0.0874
   59DOPE  H12B 7489   7.513   7.408  13.006  0.9591  0.1742  1.5507
   59DOPE   C11 7490   7.702   7.314  13.071 -0.4751  0.4205  0.2352
   59DOPE  H11A 7491   7.739   7.210  13.084  0.4757  0.4029 -2.0997
   59DOPE  H11B 7492   7.720   7.375  13.162 -0.5631  1.5404 -0.4775
   59DOPE     P 7493   7.941   7.388  12.959 -0.0629 -0.0139  0.6185
   59DOPE   O13 7494   7.963   7.490  12.853 -0.2956  0.2884 -0.3288
   59DOPE   O14 7495   8.000   7.256  12.935 -0.3698  0.4752 -0.2171
   59DOPE   O11 7496   7.990   7.444  13.107 -0.0763 -0.5851 -0.0510
   59DOPE   O12 7497   7.780   7.379  12.964 -0.1428 -0.1223 -0.1112
   59DOPE    C1 7498   7.965   7.579  13.154  1.0017 -0.0943 -0.6122
   59DOPE    HA 7499   7.938   7.562  13.261  1.1854 -1.9425 -0.8282
   59DOPE    HB 7500   7.874   7.628  13.112 -0.6782 -1.3144  1.4107
   59DOPE    C2 7501   8.094   7.671  13.145  0.2187  0.3686  0.4046
   59DOPE    HS 7502   8.111   7.693  13.037  1.9001  0.4362  0.6648
   59DOPE   O21 7503   8.204   7.588  13.192  0.0232  0.2320 -0.0899
   59DOPE   C21 7504   8.323   7.614  13.133  0.2383 -0.6821  0.3650
   59DOPE   O22 7505   8.346   7.697  13.050  0.9329 -0.4083 -0.1956
   59DOPE   C22 7506   8.430   7.530  13.207  0.3502  0.3793 -0.7765
   59DOPE   H2R 7507   8.459   7.438  13.152 -1.5202 -0.5559 -0.2785
   59DOPE   H2S 7508   8.382   7.483  13.296 -1.7792  0.5158 -1.7893
   59DOPE    C3 7509   8.083   7.802  13.229  0.3632 -0.5981 -0.3310
   59DOPE    HX 7510   8.037   7.782  13.328 -1.1365  0.6739 -0.7415
   59DOPE    HY 7511   8.015   7.863  13.166  2.3235 -0.7677 -2.7366
   59DOPE   O31 7512   8.212   7.866  13.244 -0.3123 -0.6383  0.0351
   59DOPE   C31 7513   8.195   7.997  13.276 -0.1594  0.0996 -0.9154
   59DOPE   O32 7514   8.089   8.060  13.285  0.2997 -0.3457 -0.4023
   59DOPE   C32 7515   8.331   8.063  13.287  0.3835 -0.7062 -0.3536
   59DOPE   H2X 7516   8.400   8.023  13.209 -1.4421 -1.2955 -1.7222
   59DOPE   H2Y 7517   8.311   8.169  13.260 -3.0991 -1.1874 -0.0900
   59DOPE   C23 7518   8.549   7.608  13.266 -0.1321 -0.3687  0.1046
   59DOPE   H3R 7519   8.545   7.708  13.218 -2.5388 -0.4139  0.0592
   59DOPE   H3S 7520   8.641   7.548  13.255 -0.7682 -1.2904 -0.3619
   59DOPE   C24 7521   8.544   7.625  13.417 -0.3534 -0.5184  0.0829
   59DOPE   H4R 7522   8.550   7.527  13.470  0.5152  0.1779  1.3013
   59DOPE   H4S 7523   8.453   7.674  13.456  1.0143  0.9423  1.6197
   59DOPE   C25 7524   8.671   7.698  13.463 -0.0719 -0.0087 -0.1547
   59DOPE   H5R 7525   8.690   7.794  13.411  1.5594 -0.7397 -0.9719
   59DOPE   H5S 7526   8.757   7.636  13.430 -1.1938 -2.3031  0.9893
   59DOPE   C26 7527   8.677   7.709  13.616  0.1715  0.5156  0.8388
   59DOPE   H6R 7528   8.771   7.762  13.640  0.7133  1.7097 -3.2092
   59DOPE   H6S 7529   8.673   7.605  13.655  2.9327 -0.5382 -1.3255
   59DOPE   C27 7530   8.571   7.806  13.678  0.0788  0.5190  0.3016
   59DOPE   H7R 7531   8.469   7.771  13.650 -0.3364  0.5244  1.7273
   59DOPE   H7S 7532   8.583   7.905  13.629  2.0177 -0.7393 -2.0036
   59DOPE   C28 7533   8.589   7.814  13.826  0.1674 -0.0268 -0.1863
   59DOPE   H8R 7534   8.696   7.818  13.855  0.5020  1.0162 -1.4688
   59DOPE   H8S 7535   8.560   7.721  13.879  1.4544  0.5455  1.6286
   59DOPE   C29 7536   8.530   7.939  13.889 -0.1478  0.0487 -0.3679
   59DOPE   H9R 7537   8.582   8.034  13.868 -2.5905  1.3307 -0.9743
   59DOPE  C210 7538   8.418   7.951  13.960 -0.5074  0.2009 -0.2248
   59DOPE  H10R 7539   8.392   8.050  13.999 -0.8504 -0.9664  2.8119
   59DOPE  C211 7540   8.323   7.843  14.001 -0.7241  1.1386 -0.2509
   59DOPE  H11R 7541   8.356   7.748  13.954  1.8358  1.4933  0.7149
   59DOPE  H11S 7542   8.217   7.867  13.976 -1.5399 -2.5751 -0.8991
   59DOPE  C212 7543   8.327   7.838  14.159  0.2402 -0.1982 -0.3196
   59DOPE  H12R 7544   8.432   7.819  14.190  0.2979 -1.9554 -1.4892
   59DOPE  H12S 7545   8.271   7.746  14.186 -1.0384 -0.2029 -2.7425
   59DOPE  C213 7546   8.248   7.956  14.220 -1.3115  0.3388 -0.1336
   59DOPE  H13R 7547   8.164   7.979  14.151 -0.5957 -0.9602 -1.4804
   59DOPE  H13S 7548   8.311   8.047  14.221  1.3515 -1.4187  0.6602
   59DOPE  C214 7549   8.207   7.932  14.368  0.0612  0.1865 -0.1248
   59DOPE  H14R 7550   8.152   7.835  14.371 -0.9014  0.5722 -2.5902
   59DOPE  H14S 7551   8.153   8.021  14.405  1.8160  1.0372  0.4990
   59DOPE  C215 7552   8.324   7.917  14.462 -0.1236  0.5832  0.4329
   59DOPE  H15R 7553   8.420   7.923  14.407 -1.1101 -0.5565 -1.5624
   59DOPE  H15S 7554   8.326   7.811  14.494  0.2662  0.3933 -0.2131
   59DOPE  C216 7555   8.320   7.995  14.593 -0.5980  0.2756 -0.3714
   59DOPE  H16R 7556   8.222   7.967  14.637 -0.6393  0.0495 -0.6049
   59DOPE  H16S 7557   8.312   8.104  14.570 -0.1002  0.1029 -1.4231
   59DOPE  C217 7558   8.437   7.957  14.683 -1.1096  0.5561 -0.0311
   59DOPE  H17R 7559   8.438   8.010  14.780  0.3825  2.0519 -0.8016
   59DOPE  H17S 7560   8.527   7.995  14.630 -1.3616  2.3122  0.7214
   59DOPE  C218 7561   8.459   7.806  14.715 -0.2827 -0.4427  0.2475
   59DOPE  H18R 7562   8.513   7.757  14.631 -0.6862 -0.3652 -0.0572
   59DOPE  H18S 7563   8.362   7.755  14.732 -1.4100  1.6982  0.6515
   59DOPE  H18T 7564   8.520   7.789  14.806  1.5554 -1.2248 -1.0666
   59DOPE   C33 7565   8.389   8.052  13.428 -0.0970 -0.8319 -0.5933
   59DOPE   H3X 7566   8.493   8.091  13.426 -1.0004  1.7211 -0.4278
   59DOPE   H3Y 7567   8.399   7.945  13.458 -0.2938 -0.1153  2.3242
   59DOPE   C34 7568   8.310   8.135  13.537  0.1002  0.0975  0.5384
   59DOPE   H4X 7569   8.279   8.229  13.486 -0.9206 -1.1548 -1.2758
   59DOPE   H4Y 7570   8.227   8.076  13.581 -1.2267 -1.0275 -3.1491
   59DOPE   C35 7571   8.407   8.188  13.637  0.1939  0.4143  0.0731
   59DOPE   H5X 7572   8.476   8.258  13.584 -0.0429  0.3230 -0.3601
   59DOPE   H5Y 7573   8.475   8.111  13.678  3.0174  2.0450 -1.2680
   59DOPE   C36 7574   8.339   8.261  13.747 -0.3339  0.8166 -0.5052
   59DOPE   H6X 7575   8.414   8.264  13.829  0.0108 -0.0504 -0.7747
   59DOPE   H6Y 7576   8.249   8.206  13.782  0.8088 -0.5117  0.4680
   59DOPE   C37 7577   8.307   8.401  13.719 -0.6522 -0.7848  0.0670
   59DOPE   H7X 7578   8.405   8.449  13.741  0.2004 -1.8295 -1.3479
   59DOPE   H7Y 7579   8.280   8.424  13.614  0.9499 -1.6994 -0.5782
   59DOPE   C38 7580   8.204   8.448  13.821 -0.1594  0.5745  0.5992
   59DOPE   H8X 7581   8.234   8.448  13.928 -0.2173 -2.2099  0.7022
   59DOPE   H8Y 7582   8.125   8.370  13.835 -0.2644  0.6489  0.4236
   59DOPE   C39 7583   8.147   8.577  13.782  0.7583  0.6939  0.6203
   59DOPE   H9X 7584   8.214   8.655  13.742 -0.1001  1.2334  0.2029
   59DOPE  C310 7585   8.013   8.606  13.781 -0.0950 -0.1025 -0.7499
   59DOPE  H10X 7586   7.985   8.705  13.743 -2.8226 -0.6081 -0.2682
   59DOPE  C311 7587   7.896   8.517  13.822 -0.2459  0.6018 -0.2504
   59DOPE  H11X 7588   7.934   8.435  13.887  0.4549  2.0823  1.2737
   59DOPE  H11Y 7589   7.819   8.572  13.880 -0.9404 -1.9595  1.4395
   59DOPE  C312 7590   7.817   8.458  13.700  0.0600  0.2310  0.3591
   59DOPE  H12X 7591   7.806   8.547  13.634 -1.8811  0.5094  0.9949
   59DOPE  H12Y 7592   7.719   8.421  13.738 -1.0922  1.4108 -1.3078
   59DOPE  C313 7593   7.886   8.339  13.622  0.7577  0.1702 -0.1838
   59DOPE  H13X 7594   7.821   8.310  13.537  2.3381  0.4967 -1.5453
   59DOPE  H13Y 7595   7.969   8.391  13.569 -0.5745  0.9212 -1.6234
   59DOPE  C314 7596   7.910   8.220  13.708 -0.5718  0.1756  0.2910
   59DOPE  H14X 7597   7.840   8.216  13.794  1.1104  0.4542  1.7359
   59DOPE  H14Y 7598   8.011   8.225  13.755 -0.1733 -0.0966 -0.5251
   59DOPE  C315 7599   7.893   8.093  13.626 -0.1331 -0.2624 -0.2624
   59DOPE  H15X 7600   7.940   8.124  13.531 -0.2847  3.4746  0.7313
   59DOPE  H15Y 7601   7.790   8.059  13.601 -0.5294  0.5960  0.1302
   59DOPE  C316 7602   7.969   7.977  13.686 -0.4381 -0.9072 -0.8044
   59DOPE  H16X 7603   7.918   7.959  13.783 -2.3352 -3.0991 -2.1031
   59DOPE  H16Y 7604   8.068   8.013  13.720 -2.2928  2.6076  1.5845
   59DOPE  C317 7605   7.992   7.843  13.625  0.1318 -0.3671 -0.4624
   59DOPE  H17X 7606   7.900   7.780  13.622  0.8895 -1.7029  1.7427
   59DOPE  H17Y 7607   8.036   7.849  13.523 -0.8899  0.5333 -0.8745
   59DOPE  C318 7608   8.079   7.758  13.714 -0.1384 -0.0594  0.2864
   59DOPE  H18X 7609   8.174   7.813  13.734  1.4678 -1.2879 -3.1786
   59DOPE  H18Y 7610   8.027   7.734  13.809 -1.6650 -1.2354 -0.7960
   59DOPE  H18Z 7611   8.122   7.666  13.670  2.4678  1.4928 -0.6438
   60DOPE     N 7612   0.467   7.052  13.020  0.5639 -0.6191  0.3466
   60DOPE   HN1 7613   0.379   7.094  12.983 -0.8356  0.7592  4.5902
   60DOPE   HN2 7614   0.423   6.992  13.093 -0.2043 -0.2182  0.2233
   60DOPE   HN3 7615   0.525   7.125  13.065 -0.2509 -1.0400  2.1943
   60DOPE   C12 7616   0.529   6.972  12.904 -0.2961  0.5137  0.2265
   60DOPE  H12A 7617   0.617   6.917  12.943 -1.0618 -1.8587 -1.1737
   60DOPE  H12B 7618   0.565   7.050  12.833 -0.5166 -0.2335 -0.7290
   60DOPE   C11 7619   0.431   6.880  12.836 -0.2289 -0.4724  0.0132
   60DOPE  H11A 7620   0.471   6.852  12.736  0.0824 -0.2956  0.0858
   60DOPE  H11B 7621   0.332   6.928  12.844  1.0844  2.4910 -0.3486
   60DOPE     P 7622   0.307   6.661  12.882  0.3755  0.1210  0.0309
   60DOPE   O13 7623   0.304   6.601  12.750  0.3205  0.1367  0.3623
   60DOPE   O14 7624   0.187   6.743  12.915 -0.0587  0.4533  0.1087
   60DOPE   O11 7625   0.325   6.553  12.995  0.3806  0.2026  0.6887
   60DOPE   O12 7626   0.438   6.753  12.910  0.4610  0.3054  0.7815
   60DOPE    C1 7627   0.377   6.580  13.122  0.3367 -0.0922  0.0818
   60DOPE    HA 7628   0.473   6.636  13.118 -1.3813  2.9899 -2.5012
   60DOPE    HB 7629   0.398   6.479  13.165  1.4222  0.3009  0.5092
   60DOPE    C2 7630   0.264   6.640  13.214  0.5568  0.7888 -0.6859
   60DOPE    HS 7631   0.223   6.731  13.164  0.4700 -0.8461 -3.8465
   60DOPE   O21 7632   0.309   6.672  13.348  0.0058  0.0614 -0.3555
   60DOPE   C21 7633   0.388   6.782  13.347 -0.1172  0.0171  0.3032
   60DOPE   O22 7634   0.416   6.849  13.253 -0.6160 -0.2485  0.0253
   60DOPE   C22 7635   0.426   6.812  13.492  0.0883 -0.8341  0.4377
   60DOPE   H2R 7636   0.368   6.905  13.510 -0.5187 -1.0730 -0.2395
   60DOPE   H2S 7637   0.535   6.832  13.484 -0.2711  1.1420 -0.1309
   60DOPE    C3 7638   0.144   6.539  13.226 -0.2921 -1.0873 -0.2125
   60DOPE    HX 7639   0.181   6.445  13.270 -1.7131 -2.3546 -1.6005
   60DOPE    HY 7640   0.112   6.503  13.126 -1.0541 -1.3206  0.1090
   60DOPE   O31 7641   0.034   6.588  13.303 -0.4936  0.3358 -0.4453
   60DOPE   C31 7642  -0.067   6.502  13.304  0.6131  0.0373  0.7453
   60DOPE   O32 7643  -0.062   6.394  13.247  0.1592 -0.8463  0.3147
   60DOPE   C32 7644  -0.173   6.553  13.397  0.7297  0.3745 -0.2060
   60DOPE   H2X 7645  -0.194   6.657  13.364  1.2713  0.2675 -0.9051
   60DOPE   H2Y 7646  -0.265   6.494  13.378  0.7283  0.7238 -1.3955
   60DOPE   C23 7647   0.391   6.709  13.596  0.0486 -0.6524  0.5478
   60DOPE   H3R 7648   0.422   6.606  13.571 -0.2923 -0.5051 -0.5596
   60DOPE   H3S 7649   0.280   6.700  13.601  0.0643 -0.9952  0.3229
   60DOPE   C24 7650   0.449   6.747  13.738  0.2849 -0.2729  0.6038
   60DOPE   H4R 7651   0.544   6.799  13.713  0.1629 -0.7041 -0.8693
   60DOPE   H4S 7652   0.472   6.671  13.815 -1.2491 -0.5689  0.8039
   60DOPE   C25 7653   0.358   6.844  13.809  0.0108  0.3723  0.6612
   60DOPE   H5R 7654   0.262   6.798  13.840 -0.5331 -0.1881 -1.6789
   60DOPE   H5S 7655   0.337   6.924  13.735 -0.3278  0.0089  0.3645
   60DOPE   C26 7656   0.430   6.911  13.931  0.5056 -0.3036 -0.1359
   60DOPE   H6R 7657   0.477   7.006  13.897  1.1690 -0.9143 -0.9785
   60DOPE   H6S 7658   0.504   6.847  13.984 -0.9163  0.4569  2.9889
   60DOPE   C27 7659   0.328   6.955  14.039  0.1523 -0.4930 -0.1899
   60DOPE   H7R 7660   0.329   6.873  14.114  1.2342 -0.8293 -0.5519
   60DOPE   H7S 7661   0.226   6.974  14.000  0.6880  0.1867 -1.2937
   60DOPE   C28 7662   0.361   7.087  14.119 -0.0200  0.1009  0.3133
   60DOPE   H8R 7663   0.355   7.172  14.049  0.8116  1.6952  2.0886
   60DOPE   H8S 7664   0.466   7.091  14.154 -0.8512 -2.0928  3.5827
   60DOPE   C29 7665   0.266   7.112  14.236 -0.7364  0.2921 -0.6307
   60DOPE   H9R 7666   0.157   7.109  14.221 -0.8815 -1.5156  0.4638
   60DOPE  C210 7667   0.309   7.098  14.363  0.4395  0.5306 -0.2694
   60DOPE  H10R 7668   0.231   7.101  14.441  0.3478  1.0171 -0.3812
   60DOPE  C211 7669   0.442   7.066  14.418 -0.0986  0.0200 -0.4703
   60DOPE  H11R 7670   0.504   7.158  14.429 -2.9021  1.8494  1.4609
   60DOPE  H11S 7671   0.507   7.003  14.354  2.5356  1.9499  0.1086
   60DOPE  C212 7672   0.448   6.993  14.559  0.2125 -0.8413  0.2589
   60DOPE  H12R 7673   0.554   6.965  14.575  0.5529  1.7709  3.5048
   60DOPE  H12S 7674   0.384   6.904  14.543  0.8990 -1.0644 -1.5139
   60DOPE  C213 7675   0.407   7.076  14.677  0.1832 -0.0966 -0.0364
   60DOPE  H13R 7676   0.302   7.095  14.647 -0.1765 -3.1964 -1.0645
   60DOPE  H13S 7677   0.474   7.165  14.674 -0.6697  0.5350 -0.7918
   60DOPE  C214 7678   0.407   6.992  14.794 -0.1398 -0.1192 -0.0654
   60DOPE  H14R 7679   0.502   6.935  14.800  0.5865  1.2210  3.2768
   60DOPE  H14S 7680   0.326   6.916  14.788  0.1250 -0.4362  0.3234
   60DOPE  C215 7681   0.390   7.063  14.924 -0.2568 -0.3087 -0.5174
   60DOPE  H15R 7682   0.292   7.116  14.923  0.4815  1.1127 -1.5307
   60DOPE  H15S 7683   0.467   7.142  14.938  0.2334 -0.9020  0.2029
   60DOPE  C216 7684   0.402   6.964  15.042  0.7752  0.3694  0.0476
   60DOPE  H16R 7685   0.502   6.917  15.053  1.6856  1.9286 -1.0739
   60DOPE  H16S 7686   0.336   6.876  15.028  1.2395  0.0370 -0.0677
   60DOPE  C217 7687   0.364   7.019  15.177  0.4404  0.1208  0.5879
   60DOPE  H17R 7688   0.263   7.065  15.173  0.6252  0.4231 -0.9167
   60DOPE  H17S 7689   0.434   7.103  15.196  1.3466  0.0139 -1.9649
   60DOPE  C218 7690   0.380   6.925  15.303 -0.2303 -0.3019  0.1313
   60DOPE  H18R 7691   0.486   6.891  15.306  1.6674  4.6477 -0.6290
   60DOPE  H18S 7692   0.303   6.845  15.304  0.9726 -1.4883  1.5774
   60DOPE  H18T 7693   0.370   6.987  15.394  2.5857  0.0752  0.2767
   60DOPE   C33 7694  -0.140   6.537  13.548  0.5495  0.4873 -0.3153
   60DOPE   H3X 7695  -0.066   6.614  13.578  1.0258  0.4455 -1.3249
   60DOPE   H3Y 7696  -0.100   6.435  13.568  1.1447  1.0872  1.7675
   60DOPE   C34 7697  -0.264   6.571  13.632  0.1661 -0.5579 -0.9011
   60DOPE   H4X 7698  -0.289   6.674  13.601  2.3041 -0.2411 -1.7156
   60DOPE   H4Y 7699  -0.350   6.510  13.596 -0.6074 -0.7981  1.1647
   60DOPE   C35 7700  -0.244   6.544  13.778 -0.3142 -0.6835  0.3662
   60DOPE   H5X 7701  -0.179   6.622  13.823 -0.7335  0.9889 -1.7689
   60DOPE   H5Y 7702  -0.191   6.448  13.791  2.1666  0.4032 -1.0736
   60DOPE   C36 7703  -0.366   6.557  13.870  0.1867 -0.2313  0.1313
   60DOPE   H6X 7704  -0.442   6.481  13.845  1.1000 -1.0196 -0.2819
   60DOPE   H6Y 7705  -0.414   6.655  13.847  0.6743 -0.2091 -0.8261
   60DOPE   C37 7706  -0.328   6.531  14.016  0.6344 -0.3736 -0.0650
   60DOPE   H7X 7707  -0.265   6.440  14.016 -0.6100 -1.2753 -0.9451
   60DOPE   H7Y 7708  -0.271   6.612  14.065 -3.2533  2.4847  0.2521
   60DOPE   C38 7709  -0.461   6.503  14.094  0.1324 -0.0108 -0.3301
   60DOPE   H8X 7710  -0.428   6.451  14.186  0.2344 -0.1692 -0.4562
   60DOPE   H8Y 7711  -0.518   6.431  14.032 -1.3898  0.0446  0.9586
   60DOPE   C39 7712  -0.542   6.624  14.119  0.2894 -0.0800  0.6907
   60DOPE   H9X 7713  -0.631   6.642  14.056  1.3392  0.0636 -0.8226
   60DOPE  C310 7714  -0.514   6.716  14.215  0.1298  0.0931  0.1054
   60DOPE  H10X 7715  -0.585   6.799  14.230  0.4414  0.2301  0.9030
   60DOPE  C311 7716  -0.397   6.707  14.310 -0.2852 -0.5136 -0.5319
   60DOPE  H11X 7717  -0.333   6.617  14.297 -0.2296 -0.5643  0.0546
   60DOPE  H11Y 7718  -0.329   6.792  14.292 -1.0506  0.2016 -0.1240
   60DOPE  C312 7719  -0.442   6.711  14.463 -0.0151 -0.1586 -0.2914
   60DOPE  H12X 7720  -0.362   6.665  14.525 -1.3691 -1.1451  0.8090
   60DOPE  H12Y 7721  -0.531   6.648  14.481 -0.2107  0.3128  0.4334
   60DOPE  C313 7722  -0.463   6.860  14.512 -0.0449  0.8917  0.7144
   60DOPE  H13X 7723  -0.365   6.912  14.508  0.2659  0.3512  1.1305
   60DOPE  H13Y 7724  -0.526   6.911  14.435  0.7267  2.1183  0.8729
   60DOPE  C314 7725  -0.508   6.866  14.657  0.2307  0.1565 -0.2185
   60DOPE  H14X 7726  -0.433   6.813  14.719  1.3975 -0.4666 -2.0776
   60DOPE  H14Y 7727  -0.613   6.837  14.678  0.0903  1.6702  1.3715
   60DOPE  C315 7728  -0.503   7.013  14.709  0.0217  0.1624 -0.8883
   60DOPE  H15X 7729  -0.569   7.012  14.799  2.1017 -1.8242  0.7241
   60DOPE  H15Y 7730  -0.548   7.076  14.629  0.1905 -0.7647 -1.7198
   60DOPE  C316 7731  -0.362   7.060  14.756 -0.3543  0.0863  0.0474
   60DOPE  H16X 7732  -0.315   7.087  14.658 -0.1217 -0.6418 -0.0469
   60DOPE  H16Y 7733  -0.319   6.972  14.807 -0.6920 -0.1905 -0.1365
   60DOPE  C317 7734  -0.371   7.186  14.842 -0.1101 -1.0044  0.6126
   60DOPE  H17X 7735  -0.443   7.162  14.923 -2.1564  0.5874 -0.6183
   60DOPE  H17Y 7736  -0.274   7.204  14.892 -0.4246 -0.5311  1.0669
   60DOPE  C318 7737  -0.422   7.317  14.766  0.0056  0.0301 -0.5840
   60DOPE  H18X 7738  -0.533   7.320  14.761 -0.0778  3.2371  0.8119
   60DOPE  H18Y 7739  -0.373   7.399  14.822 -0.8767  0.8095 -0.9456
   60DOPE  H18Z 7740  -0.394   7.328  14.659 -0.0840  1.8707 -0.4475
   6123SM     N 7741   3.196   3.463  17.180 -0.3426  0.0788  0.2309
   6123SM   C15 7742   3.216   3.444  17.033 -0.0854  0.0683  0.3958
   6123SM  H15A 7743   3.313   3.403  17.010 -0.4542  0.2332 -1.6285
   6123SM  H15B 7744   3.213   3.535  16.975 -0.1961 -0.0349  0.2336
   6123SM  H15C 7745   3.145   3.368  17.001 -1.2456  0.3314  2.2013
   6123SM   C14 7746   3.058   3.518  17.200  0.3209  0.0823 -0.4600
   6123SM  H14A 7747   3.068   3.626  17.198  0.0358  0.1986  1.6144
   6123SM  H14B 7748   3.015   3.512  17.299 -0.1660  2.9270 -0.4001
   6123SM  H14C 7749   2.994   3.483  17.121  1.5858  1.3699 -2.1114
   6123SM   C13 7750   3.199   3.328  17.237 -0.1692  0.1519  0.2304
   6123SM  H13A 7751   3.275   3.261  17.199 -0.2441  0.9509 -1.3934
   6123SM  H13B 7752   3.104   3.279  17.223  0.3691 -0.4325 -1.7302
   6123SM  H13C 7753   3.217   3.331  17.344 -0.6612 -2.9784  0.5245
   6123SM   C12 7754   3.300   3.551  17.238  0.7308 -0.4235  0.1878
   6123SM  H12A 7755   3.393   3.521  17.192  1.7451  1.4347  0.9066
   6123SM  H12B 7756   3.328   3.530  17.340 -0.9987  2.4811  1.3733
   6123SM   C11 7757   3.281   3.700  17.227  0.6300 -0.2911  0.3424
   6123SM  H11A 7758   3.373   3.751  17.262 -1.1783  1.1654  3.3763
   6123SM  H11B 7759   3.205   3.729  17.303 -1.7150 -1.6285 -1.3269
   6123SM     P 7760   3.341   3.795  16.984  0.3546  0.0325 -0.1068
   6123SM   O13 7761   3.280   3.900  16.900  0.1862 -0.5242  0.3387
   6123SM   O14 7762   3.460   3.839  17.059 -1.1562 -0.5563 -0.2928
   6123SM   O11 7763   3.374   3.672  16.889  0.3853  0.8099  0.5791
   6123SM   O12 7764   3.235   3.746  17.096  0.3751 -0.3617  0.1069
   6123SM   C1S 7765   3.315   3.663  16.753  0.1656 -0.1879  0.4345
   6123SM   H1S 7766   3.226   3.727  16.734  0.2857  0.7006  2.5654
   6123SM   H1T 7767   3.278   3.561  16.729  1.7267 -0.3645 -1.5410
   6123SM    NF 7768   3.359   3.680  16.508 -0.9461 -0.0199 -0.9490
   6123SM   HNF 7769   3.351   3.593  16.460  0.1586 -1.0735  0.6537
   6123SM   C2S 7770   3.421   3.687  16.640  0.3185 -0.3436 -0.0211
   6123SM   H2S 7771   3.457   3.788  16.667 -0.7384  0.1950 -0.5636
   6123SM   C3S 7772   3.546   3.586  16.644  0.8792  0.1494 -0.0433
   6123SM   H3S 7773   3.518   3.487  16.601  1.0304 -0.4476  1.1783
   6123SM    O3 7774   3.590   3.560  16.769  0.0981  0.1123 -0.4819
   6123SM   HO3 7775   3.535   3.613  16.827 -0.4922 -0.5384 -0.4298
   6123SM   C4S 7776   3.660   3.650  16.564 -0.0614 -0.2236 -0.3534
   6123SM   H4S 7777   3.720   3.729  16.612 -0.7692 -0.7024  1.4291
   6123SM   C5S 7778   3.699   3.607  16.447  0.0857  0.4439 -0.0580
   6123SM   H5S 7779   3.652   3.525  16.392  0.4092 -0.3915  0.8842
   6123SM   C6S 7780   3.826   3.648  16.377  1.1870 -0.2819  0.1927
   6123SM   H6S 7781   3.879   3.557  16.340 -1.5406 -2.0785  0.4009
   6123SM   H6T 7782   3.897   3.702  16.443  3.0454  0.8817 -2.5750
   6123SM   C7S 7783   3.792   3.730  16.255 -0.3623  0.2074 -0.8378
   6123SM   H7S 7784   3.889   3.766  16.215  0.5704  0.8533  1.8332
   6123SM   H7T 7785   3.734   3.818  16.290 -1.0423 -0.9103  0.9957
   6123SM   C8S 7786   3.719   3.661  16.135 -0.1742  0.2762 -0.2775
   6123SM   H8S 7787   3.719   3.716  16.039 -1.1935 -1.8257 -1.5585
   6123SM   H8T 7788   3.611   3.656  16.159 -0.8984  1.4523 -2.8854
   6123SM   C9S 7789   3.773   3.516  16.106 -0.3864  0.0673  0.2996
   6123SM   H9S 7790   3.742   3.441  16.182  0.6142 -0.2635  0.4039
   6123SM   H9T 7791   3.884   3.516  16.099 -0.2546  0.6971  1.7543
   6123SM  C10S 7792   3.704   3.457  15.979 -0.7466  0.4697 -0.2795
   6123SM  H10S 7793   3.598   3.487  15.964 -0.5036  1.0408 -0.8707
   6123SM  H10T 7794   3.708   3.346  15.989  1.0066  0.6758  2.5539
   6123SM  C11S 7795   3.784   3.500  15.851 -0.3255 -0.2386  0.3691
   6123SM  H11S 7796   3.887   3.480  15.888  0.0887  2.8551  1.1179
   6123SM  H11T 7797   3.767   3.608  15.832 -1.8245 -0.3593  0.8840
   6123SM  C12S 7798   3.749   3.411  15.727  0.1446 -0.8416  0.0240
   6123SM  H12S 7799   3.785   3.475  15.643 -0.3045  2.2117  2.0147
   6123SM  H12T 7800   3.638   3.407  15.725  0.0991 -0.2039  0.8790
   6123SM  C13S 7801   3.806   3.273  15.708 -0.8401  0.0418  0.6083
   6123SM  H13S 7802   3.728   3.202  15.673  0.1655 -2.7079  3.4152
   6123SM  H13T 7803   3.833   3.229  15.806 -0.9072 -1.4987 -0.0427
   6123SM  C14S 7804   3.935   3.264  15.616  0.1366 -0.1220  0.0516
   6123SM  H14S 7805   4.014   3.316  15.675 -0.8413  0.8959  0.4955
   6123SM  H14T 7806   3.925   3.318  15.519  1.9059  1.0771  0.4765
   6123SM  C15S 7807   3.979   3.115  15.601 -0.0430  0.6640 -0.1211
   6123SM  H15S 7808   3.899   3.061  15.546 -0.0146  0.2657  0.2284
   6123SM  H15T 7809   3.985   3.064  15.699 -0.1939 -1.0959 -0.9915
   6123SM  C16S 7810   4.119   3.107  15.530  0.4248  0.7454 -0.2155
   6123SM  H16S 7811   4.209   3.136  15.589  0.2061 -1.2038  1.1725
   6123SM  H16T 7812   4.109   3.184  15.451  0.6592  0.0809 -0.9066
   6123SM  C17S 7813   4.149   2.965  15.464 -0.2383 -0.2036  0.5732
   6123SM  H17S 7814   4.069   2.937  15.392  0.6566  0.2720 -0.6413
   6123SM  H17T 7815   4.162   2.888  15.543 -2.4298  0.0762  1.3053
   6123SM  C18S 7816   4.284   2.971  15.385 -0.0607 -0.6922 -0.5448
   6123SM  H18S 7817   4.307   2.876  15.332  0.6320 -1.3755  0.9067
   6123SM  H18T 7818   4.353   3.000  15.468 -2.3857  2.5509  0.4492
   6123SM  H18U 7819   4.290   3.058  15.317 -0.1268 -0.3077 -0.0652
   6123SM   C1F 7820   3.287   3.777  16.463  0.2130 -0.0275  0.5530
   6123SM    OF 7821   3.317   3.895  16.486  0.3478  0.1676  0.1419
   6123SM   C2F 7822   3.168   3.743  16.369 -0.4496  0.3035  0.2557
   6123SM   H2F 7823   3.109   3.661  16.414  0.1549 -1.0879 -1.4048
   6123SM   H2G 7824   3.207   3.699  16.275 -1.9707 -0.1630 -0.1854
   6123SM   C3F 7825   3.091   3.876  16.335  0.1937 -0.6434  0.3296
   6123SM   H3F 7826   3.162   3.938  16.277 -0.2201  1.4537  1.9124
   6123SM   H3G 7827   3.067   3.941  16.422 -0.3883 -1.2838  0.6638
   6123SM   C4F 7828   2.965   3.866  16.250  0.3011  0.4737 -0.8037
   6123SM   H4F 7829   2.927   3.968  16.227 -0.0008  0.3208 -0.9948
   6123SM   H4G 7830   2.883   3.816  16.306 -0.1492  1.5524 -0.4681
   6123SM   C5F 7831   2.998   3.791  16.120 -0.1111  0.2193 -0.5670
   6123SM   H5F 7832   3.009   3.683  16.145 -0.8597 -0.0553 -1.3496
   6123SM   H5G 7833   3.091   3.823  16.070 -0.6192  0.1405 -1.5896
   6123SM   C6F 7834   2.889   3.815  16.015 -0.4515 -0.0287  0.2521
   6123SM   H6F 7835   2.871   3.924  16.001 -0.9407 -0.2994 -1.4648
   6123SM   H6G 7836   2.792   3.768  16.043 -0.0768 -1.3848 -0.6247
   6123SM   C7F 7837   2.938   3.745  15.887  0.2307  0.3623  0.5700
   6123SM   H7F 7838   2.954   3.638  15.910  0.1527  0.3373  0.5120
   6123SM   H7G 7839   3.038   3.779  15.852 -0.0167 -1.0086 -1.6870
   6123SM   C8F 7840   2.851   3.780  15.764 -0.0623 -0.6856  0.8477
   6123SM   H8F 7841   2.858   3.887  15.736  1.1793 -0.3253  2.4141
   6123SM   H8G 7842   2.743   3.764  15.787 -0.1001 -2.5179 -0.3311
   6123SM   C9F 7843   2.888   3.698  15.643 -0.5691  0.1776  0.1189
   6123SM   H9F 7844   2.877   3.589  15.663  0.7412 -0.1311 -0.7525
   6123SM   H9G 7845   2.992   3.712  15.609 -0.9816  1.4453 -0.7037
   6123SM  C10F 7846   2.790   3.714  15.530  0.1035 -0.0519  0.5088
   6123SM  H10F 7847   2.765   3.820  15.508  1.3584  0.3273  0.8218
   6123SM  H10G 7848   2.695   3.661  15.552  0.0335 -0.5657 -0.9120
   6123SM  C11F 7849   2.816   3.647  15.391 -0.3371 -0.1135 -0.3010
   6123SM  H11F 7850   2.786   3.540  15.394 -1.8799  0.3096  1.5637
   6123SM  H11G 7851   2.926   3.643  15.380 -0.0004 -0.2113  2.3200
   6123SM  C12F 7852   2.751   3.716  15.269 -0.4841 -0.2659 -0.3139
   6123SM  H12F 7853   2.789   3.673  15.174 -1.1860 -0.0373 -0.7001
   6123SM  H12G 7854   2.764   3.826  15.263  0.7736 -0.2627  1.5916
   6123SM  C13F 7855   2.598   3.689  15.272 -0.1931 -0.0377 -0.0612
   6123SM  H13F 7856   2.550   3.766  15.337 -0.7101  0.2891 -0.8219
   6123SM  H13G 7857   2.579   3.590  15.320  1.5245  0.5830  2.0845
   6123SM  C14F 7858   2.546   3.695  15.127  0.1336  0.5102  0.1481
   6123SM  H14F 7859   2.435   3.691  15.138  0.1003 -1.2801 -0.5493
   6123SM  H14G 7860   2.595   3.613  15.071 -0.8200  0.5268 -0.7469
   6123SM  C15F 7861   2.577   3.821  15.050 -0.6384  0.3170  0.0076
   6123SM  H15F 7862   2.688   3.831  15.051 -0.6108  0.0172  0.0724
   6123SM  H15G 7863   2.547   3.915  15.102 -1.9911  1.3390 -2.4697
   6123SM  C16F 7864   2.519   3.822  14.909 -0.1406  0.0131  0.1179
   6123SM  H16F 7865   2.409   3.826  14.921 -0.3364  1.5622 -1.7035
   6123SM  H16G 7866   2.552   3.731  14.854 -1.1663  1.3362 -2.8930
   6123SM  C17F 7867   2.569   3.939  14.829  0.2913 -0.5335 -0.0988
   6123SM  H17F 7868   2.680   3.945  14.830  0.2380  2.0419 -1.3425
   6123SM  H17G 7869   2.537   4.029  14.886  1.3952 -0.6709  0.7773
   6123SM  C18F 7870   2.512   3.944  14.689  0.2026  0.6570  0.1197
   6123SM  H18F 7871   2.532   3.842  14.651 -1.5276 -0.1691  1.3223
   6123SM  H18G 7872   2.570   4.020  14.631 -0.9572  1.9237  0.5675
   6123SM  C19F 7873   2.363   3.962  14.666 -0.4302 -0.3819 -0.2400
   6123SM  H19F 7874   2.318   4.063  14.680 -0.5452 -0.3958 -0.5060
   6123SM  H19G 7875   2.303   3.908  14.743 -1.4584 -0.0837 -0.8129
   6123SM  C20F 7876   2.318   3.926  14.525  0.5673  0.6122  0.6525
   6123SM  H20F 7877   2.210   3.952  14.535  0.1806  0.1899 -1.8222
   6123SM  H20G 7878   2.326   3.817  14.505  2.2784  0.6155  1.1618
   6123SM  C21F 7879   2.373   3.999  14.401  0.2133 -0.0042  0.6235
   6123SM  H21F 7880   2.464   3.945  14.366 -0.8244 -1.2383 -0.2740
   6123SM  H21G 7881   2.404   4.101  14.433 -0.4288 -0.1559  1.7625
   6123SM  C22F 7882   2.271   4.013  14.287  0.2205 -0.0727  0.7522
   6123SM  H22F 7883   2.192   4.076  14.333  1.6320  2.7481 -0.4370
   6123SM  H22G 7884   2.229   3.916  14.250 -0.5689  0.9048 -1.0583
   6123SM  C23F 7885   2.321   4.095  14.169  0.4496  0.4488  1.0412
   6123SM  H23F 7886   2.251   4.112  14.084  0.5758 -0.6421  0.7050
   6123SM  H23G 7887   2.409   4.042  14.127 -0.3230 -0.3345  0.3429
   6123SM  H23H 7888   2.349   4.196  14.203 -0.7004  0.6154  1.5421
   6223SM     N 7889   2.942   2.499  17.051  0.0885  0.9980  0.8887
   6223SM   C15 7890   3.074   2.494  17.123  0.0318  0.3620  0.6691
   6223SM  H15A 7891   3.134   2.571  17.076  0.9413 -1.0555 -0.5653
   6223SM  H15B 7892   3.130   2.403  17.108  0.1326  0.4007  0.8081
   6223SM  H15C 7893   3.063   2.521  17.228  1.2665  1.9588  0.4225
   6223SM   C14 7894   2.958   2.435  16.918  0.1857  0.7278  0.3081
   6223SM  H14A 7895   3.043   2.474  16.864 -0.8501  2.5370 -0.0736
   6223SM  H14B 7896   2.870   2.458  16.860 -0.0181  2.0798  1.0925
   6223SM  H14C 7897   2.947   2.328  16.916 -1.2967  0.8731 -0.1633
   6223SM   C13 7898   2.844   2.409  17.122 -0.0461 -0.7680  0.1947
   6223SM  H13A 7899   2.821   2.445  17.221 -1.6861  0.2031 -0.4880
   6223SM  H13B 7900   2.885   2.309  17.130  1.4984 -0.1147  0.8823
   6223SM  H13C 7901   2.751   2.406  17.067  1.6179 -0.7951 -2.8855
   6223SM   C12 7902   2.897   2.645  17.046 -0.9689 -0.5807  0.2456
   6223SM  H12A 7903   2.875   2.683  17.144 -0.1933 -0.0375  0.2208
   6223SM  H12B 7904   2.803   2.657  16.994  0.2624  1.5817 -1.7201
   6223SM   C11 7905   2.991   2.736  16.956  0.2498  0.1307  0.3942
   6223SM  H11A 7906   2.941   2.834  16.942 -0.8692 -0.6240 -1.2069
   6223SM  H11B 7907   3.003   2.682  16.859 -0.2525 -1.7010  1.3101
   6223SM     P 7908   3.236   2.815  16.937 -0.6628 -0.1544  0.1222
   6223SM   O13 7909   3.335   2.853  17.038 -0.0058  0.5538  0.1802
   6223SM   O14 7910   3.268   2.703  16.842  0.2463 -1.0173 -0.8702
   6223SM   O11 7911   3.184   2.946  16.856  0.2648  0.1562 -0.3827
   6223SM   O12 7912   3.113   2.771  17.016 -0.4522 -0.4940 -0.5225
   6223SM   C1S 7913   3.270   3.025  16.774 -0.4314  0.1283 -0.5798
   6223SM   H1S 7914   3.376   2.998  16.790 -0.0041  0.9631 -1.8921
   6223SM   H1T 7915   3.266   3.130  16.809 -3.0888 -0.1953  0.3217
   6223SM    NF 7916   3.343   3.087  16.560  0.2161  0.4784  0.4092
   6223SM   HNF 7917   3.308   3.174  16.525 -1.0588 -0.1305  0.0896
   6223SM   C2S 7918   3.244   3.005  16.625 -0.2913 -0.4637  0.0862
   6223SM   H2S 7919   3.266   2.897  16.608 -1.0864 -0.4293 -1.2772
   6223SM   C3S 7920   3.093   3.019  16.597 -0.6068 -0.1106  0.3932
   6223SM   H3S 7921   3.065   3.122  16.626 -0.3128  0.3617 -0.9331
   6223SM    O3 7922   3.007   2.938  16.677 -0.6241  0.0541 -0.0228
   6223SM   HO3 7923   3.066   2.914  16.749  0.2083  2.2258  0.1050
   6223SM   C4S 7924   3.056   2.997  16.454  0.5456  0.5126 -0.2569
   6223SM   H4S 7925   3.089   2.903  16.407 -1.2370 -1.3417  1.9504
   6223SM   C5S 7926   2.980   3.084  16.378 -0.3129  0.2896 -0.4338
   6223SM   H5S 7927   2.940   3.175  16.424  1.1866  1.6882 -1.7796
   6223SM   C6S 7928   2.946   3.051  16.235  0.5797 -0.3174 -0.1771
   6223SM   H6S 7929   2.930   3.137  16.167  3.2734 -0.2472 -0.8214
   6223SM   H6T 7930   2.849   2.997  16.239  0.0888  0.6075  0.7182
   6223SM   C7S 7931   3.047   2.973  16.155 -1.2238  0.4040 -0.1692
   6223SM   H7S 7932   3.074   2.880  16.209 -0.9081 -0.8915 -2.4374
   6223SM   H7T 7933   3.143   3.030  16.154 -0.1864 -1.1659 -2.9525
   6223SM   C8S 7934   2.987   2.954  16.006  0.1598 -0.9521  0.3273
   6223SM   H8S 7935   2.922   3.038  15.972  2.8543  1.4481  0.6539
   6223SM   H8T 7936   2.925   2.862  16.003  0.1653 -0.9783  0.8783
   6223SM   C9S 7937   3.093   2.952  15.897  1.0970 -0.2914 -0.2410
   6223SM   H9S 7938   3.132   2.848  15.898  0.7634 -0.4156  0.2249
   6223SM   H9T 7939   3.175   3.020  15.927 -0.6640  1.2602  1.3239
   6223SM  C10S 7940   3.036   2.977  15.753 -0.3065  0.4822  0.1070
   6223SM  H10S 7941   3.122   2.966  15.683 -1.0893 -1.3101 -0.6294
   6223SM  H10T 7942   2.989   3.077  15.762 -1.3725 -0.0117  0.1846
   6223SM  C11S 7943   2.934   2.874  15.711  0.5145  0.2071  0.6508
   6223SM  H11S 7944   2.840   2.902  15.763  0.4775 -0.6255  1.0536
   6223SM  H11T 7945   2.968   2.777  15.753  0.7454 -0.4090 -0.8967
   6223SM  C12S 7946   2.912   2.861  15.559 -0.0219 -0.1285  0.1151
   6223SM  H12S 7947   3.007   2.827  15.512  1.7419  2.7821  1.3378
   6223SM  H12T 7948   2.884   2.961  15.521 -1.8388 -0.6596 -0.0542
   6223SM  C13S 7949   2.800   2.760  15.522 -0.8920  0.1396 -0.2799
   6223SM  H13S 7950   2.705   2.808  15.552 -0.0893  0.6847  1.5401
   6223SM  H13T 7951   2.813   2.663  15.575  0.9524 -0.2588 -1.3755
   6223SM  C14S 7952   2.797   2.719  15.374  0.3348 -0.3581 -0.1817
   6223SM  H14S 7953   2.895   2.678  15.341  0.0235 -0.2923 -1.2520
   6223SM  H14T 7954   2.788   2.817  15.321 -3.0023  0.5313  1.7197
   6223SM  C15S 7955   2.691   2.616  15.334  0.2294  0.5890 -1.0889
   6223SM  H15S 7956   2.589   2.662  15.341  0.1861  0.2833  1.9727
   6223SM  H15T 7957   2.686   2.527  15.400 -0.9305  1.2742 -0.1942
   6223SM  C16S 7958   2.701   2.564  15.184  0.5665  0.6328 -0.5184
   6223SM  H16S 7959   2.802   2.558  15.137 -0.1990 -0.2462 -2.1194
   6223SM  H16T 7960   2.655   2.642  15.120  3.0598  0.3425 -2.8379
   6223SM  C17S 7961   2.620   2.435  15.151  0.5633  0.0505  0.8479
   6223SM  H17S 7962   2.658   2.347  15.208 -1.5787 -1.6703 -0.2497
   6223SM  H17T 7963   2.642   2.417  15.043 -0.5291  1.7609  0.3049
   6223SM  C18S 7964   2.469   2.447  15.172 -0.6303  0.3275 -0.5505
   6223SM  H18S 7965   2.444   2.482  15.274  1.5145  0.7360 -0.1335
   6223SM  H18T 7966   2.419   2.351  15.146  1.6780 -1.5534  1.4888
   6223SM  H18U 7967   2.418   2.526  15.112  2.3971  2.6114 -0.3310
   6223SM   C1F 7968   3.467   3.051  16.540 -0.2158  0.1088 -0.2399
   6223SM    OF 7969   3.504   2.939  16.574  0.0970 -0.5655 -0.3068
   6223SM   C2F 7970   3.569   3.150  16.493  1.3157  0.1027 -0.2746
   6223SM   H2F 7971   3.530   3.252  16.512  0.8691 -0.5648  2.7893
   6223SM   H2G 7972   3.588   3.143  16.383  2.9213 -0.5639  0.0120
   6223SM   C3F 7973   3.706   3.142  16.567  0.1325  0.0433  0.1348
   6223SM   H3F 7974   3.761   3.064  16.510 -0.0083 -0.2872  0.4410
   6223SM   H3G 7975   3.691   3.122  16.675  0.4428  3.5330  0.9418
   6223SM   C4F 7976   3.770   3.282  16.564  0.2635 -0.0913 -1.0002
   6223SM   H4F 7977   3.717   3.351  16.633  1.9044 -0.8186  1.1160
   6223SM   H4G 7978   3.767   3.328  16.463 -0.0053 -0.1397 -1.0144
   6223SM   C5F 7979   3.917   3.283  16.589  0.3444  0.0375  0.2349
   6223SM   H5F 7980   3.939   3.241  16.690  1.7917 -1.0100 -0.4711
   6223SM   H5G 7981   3.940   3.391  16.599  1.5684 -0.2705  0.9501
   6223SM   C6F 7982   4.003   3.211  16.481  0.2262 -0.2006 -0.3407
   6223SM   H6F 7983   3.972   3.105  16.471 -1.1611  0.1584  0.0393
   6223SM   H6G 7984   4.113   3.212  16.501  0.0569  0.2376  0.6547
   6223SM   C7F 7985   3.977   3.264  16.341 -1.3965  0.3174 -0.3826
   6223SM   H7F 7986   4.009   3.369  16.323 -0.7114  0.1659 -0.0797
   6223SM   H7G 7987   3.870   3.260  16.309 -1.4520 -0.7796 -0.1046
   6223SM   C8F 7988   4.044   3.165  16.239  0.4957  0.1122  0.6360
   6223SM   H8F 7989   4.010   3.060  16.254  0.2585  0.0438 -0.2978
   6223SM   H8G 7990   4.155   3.166  16.239  0.7097  1.7461 -4.2144
   6223SM   C9F 7991   4.000   3.201  16.103  0.7573  0.7316 -0.3685
   6223SM   H9F 7992   4.036   3.306  16.092  1.0681  0.7241  0.5558
   6223SM   H9G 7993   3.890   3.200  16.089  0.4066 -1.1247  2.0212
   6223SM  C10F 7994   4.066   3.123  15.982 -0.2285  0.0182 -0.4949
   6223SM  H10F 7995   4.175   3.141  15.998 -0.5024  0.6921  0.6790
   6223SM  H10G 7996   4.029   3.172  15.890 -3.1981 -1.9128 -0.4786
   6223SM  C11F 7997   4.037   2.976  15.968 -0.6312  0.6255 -0.0683
   6223SM  H11F 7998   4.096   2.920  16.043 -1.9805  0.0007  0.5609
   6223SM  H11G 7999   4.091   2.947  15.876  0.6704 -0.7142  1.0561
   6223SM  C12F 8000   3.884   2.939  15.989  0.3334  0.0097  0.0705
   6223SM  H12F 8001   3.830   2.964  15.895  0.7845  1.1038  0.0957
   6223SM  H12G 8002   3.852   3.006  16.072  3.4579  1.3526  0.3233
   6223SM  C13F 8003   3.876   2.790  16.021 -0.1170  0.1542  0.4768
   6223SM  H13F 8004   3.767   2.773  16.032  0.0921 -1.6070  0.0576
   6223SM  H13G 8005   3.920   2.758  16.117  0.0247  1.3964  0.8496
   6223SM  C14F 8006   3.943   2.682  15.925  0.7039 -0.3563  0.6151
   6223SM  H14F 8007   3.957   2.587  15.980 -0.3700 -2.0950 -1.9169
   6223SM  H14G 8008   4.040   2.728  15.895 -0.1465  1.6484  0.7639
   6223SM  C15F 8009   3.849   2.651  15.806 -0.4904  0.8316 -0.0026
   6223SM  H15F 8010   3.813   2.743  15.757 -3.2931 -0.1761 -0.0340
   6223SM  H15G 8011   3.751   2.610  15.840 -1.0348  0.0165 -2.3429
   6223SM  C16F 8012   3.918   2.569  15.697  0.3337  0.3325 -0.3891
   6223SM  H16F 8013   3.845   2.489  15.671 -1.0516  1.7581 -1.0858
   6223SM  H16G 8014   4.017   2.530  15.729  0.6422  1.7351  0.4636
   6223SM  C17F 8015   3.938   2.646  15.571  0.1592  0.6805 -0.4727
   6223SM  H17F 8016   4.016   2.726  15.567  0.9720  0.0574  1.7230
   6223SM  H17G 8017   3.839   2.677  15.531 -0.9948 -2.8658 -0.6614
   6223SM  C18F 8018   3.982   2.547  15.463  0.0843  0.8646 -0.5649
   6223SM  H18F 8019   3.913   2.460  15.456  0.6462  0.2709  0.8749
   6223SM  H18G 8020   4.088   2.516  15.478 -0.7275 -3.0417 -1.8001
   6223SM  C19F 8021   3.985   2.608  15.321 -1.1026 -0.7495  0.1922
   6223SM  H19F 8022   4.058   2.692  15.320 -2.6024  0.6344  1.6876
   6223SM  H19G 8023   3.886   2.657  15.308 -1.3099 -1.1718  0.1407
   6223SM  C20F 8024   4.012   2.505  15.214  0.1189  0.1102  0.0164
   6223SM  H20F 8025   3.920   2.448  15.187  0.9027 -0.8995 -0.5841
   6223SM  H20G 8026   4.088   2.431  15.244 -1.3521 -0.9819  1.2056
   6223SM  C21F 8027   4.058   2.576  15.085  0.7032  0.3181  0.1229
   6223SM  H21F 8028   4.060   2.492  15.013  3.4470 -1.8710  2.4823
   6223SM  H21G 8029   4.160   2.617  15.097  0.0441  2.0168  0.1851
   6223SM  C22F 8030   3.966   2.685  15.027  0.0730  0.6584  0.2506
   6223SM  H22F 8031   4.021   2.720  14.937 -2.5823  4.2338 -0.2196
   6223SM  H22G 8032   3.964   2.776  15.090 -0.0356  1.6066 -1.0752
   6223SM  C23F 8033   3.825   2.643  14.991 -0.4779  0.1026 -0.5890
   6223SM  H23F 8034   3.835   2.555  14.924 -3.3932  0.2080 -1.3225
   6223SM  H23G 8035   3.781   2.726  14.932 -0.1394  0.9646  0.3351
   6223SM  H23H 8036   3.761   2.610  15.075  0.9024 -2.8836 -0.5643
   6323SM     N 8037   4.074   4.830  17.068 -0.0468 -0.6405  0.6300
   6323SM   C15 8038   4.198   4.911  17.105  0.5615  0.1271  0.2378
   6323SM  H15A 8039   4.279   4.840  17.092 -0.6860 -1.1933 -0.7458
   6323SM  H15B 8040   4.188   4.946  17.206  0.2186 -0.1795  0.3126
   6323SM  H15C 8041   4.211   4.988  17.030 -2.7687  1.9589  1.3298
   6323SM   C14 8042   3.948   4.901  17.105 -0.0237 -0.8225 -0.6169
   6323SM  H14A 8043   3.861   4.840  17.083 -0.2537  0.0294 -2.2309
   6323SM  H14B 8044   3.944   4.993  17.050 -0.2636 -0.4568  0.0026
   6323SM  H14C 8045   3.938   4.921  17.211  0.6165  0.2242 -0.7448
   6323SM   C13 8046   4.091   4.809  16.918  0.4305  0.7499 -0.3265
   6323SM  H13A 8047   4.174   4.744  16.896 -1.5495 -2.4590  0.9878
   6323SM  H13B 8048   4.102   4.901  16.863 -2.2774  0.7029 -1.0775
   6323SM  H13C 8049   4.002   4.780  16.865 -0.7752  4.0817 -0.3396
   6323SM   C12 8050   4.079   4.703  17.148 -0.0847  0.8665 -0.2499
   6323SM  H12A 8051   3.989   4.646  17.133 -0.4361  0.8463  1.6477
   6323SM  H12B 8052   4.078   4.736  17.251  1.8291  1.4744 -0.3768
   6323SM   C11 8053   4.218   4.622  17.144 -0.5074  0.3116  0.1989
   6323SM  H11A 8054   4.234   4.599  17.037  0.9669  1.1365  0.2249
   6323SM  H11B 8055   4.198   4.523  17.190 -1.3309  0.9437  1.2604
   6323SM     P 8056   4.464   4.626  17.219  0.0763 -0.4913 -0.1445
   6323SM   O13 8057   4.553   4.727  17.276  0.4106 -0.1698 -1.0618
   6323SM   O14 8058   4.453   4.490  17.289  0.2610 -0.0816  0.2580
   6323SM   O11 8059   4.491   4.609  17.070 -0.2032 -0.2718 -0.1215
   6323SM   O12 8060   4.324   4.689  17.211 -0.1533  0.0131  0.6058
   6323SM   C1S 8061   4.553   4.492  17.010  0.2248  1.1408  0.3841
   6323SM   H1S 8062   4.518   4.399  17.059  1.4647  1.4203  1.8796
   6323SM   H1T 8063   4.664   4.501  17.012  0.6443 -2.6828  0.4475
   6323SM    NF 8064   4.620   4.402  16.778  0.0322  0.4963  0.3451
   6323SM   HNF 8065   4.686   4.452  16.723 -0.4873 -0.6718 -1.3961
   6323SM   C2S 8066   4.524   4.484  16.854 -0.0148 -0.3326  0.0693
   6323SM   H2S 8067   4.423   4.437  16.845 -0.7175  1.3275 -1.0588
   6323SM   C3S 8068   4.489   4.629  16.791 -0.7914 -0.4891 -0.5617
   6323SM   H3S 8069   4.555   4.703  16.842 -0.0460 -1.3280 -0.2749
   6323SM    O3 8070   4.356   4.674  16.822  0.2336 -0.2518 -0.1245
   6323SM   HO3 8071   4.327   4.624  16.899 -1.2915  1.0629  0.2333
   6323SM   C4S 8072   4.517   4.649  16.644  1.2069 -0.1164  0.2401
   6323SM   H4S 8073   4.614   4.690  16.615  0.2449  2.2235  0.1203
   6323SM   C5S 8074   4.425   4.641  16.541  0.0062 -0.0369  0.3432
   6323SM   H5S 8075   4.321   4.613  16.561  0.0921  1.1662  2.7550
   6323SM   C6S 8076   4.436   4.659  16.386 -0.2630 -0.5300 -0.3715
   6323SM   H6S 8077   4.342   4.710  16.356 -0.4409  0.5394  1.7616
   6323SM   H6T 8078   4.429   4.559  16.338  0.8851 -0.8008 -0.0105
   6323SM   C7S 8079   4.565   4.741  16.354  0.5408 -0.2543 -0.4066
   6323SM   H7S 8080   4.652   4.675  16.375  1.3584  1.3530  1.6742
   6323SM   H7T 8081   4.579   4.816  16.435  0.1336 -0.9802  0.3515
   6323SM   C8S 8082   4.584   4.812  16.226  0.5231  0.7589 -0.0959
   6323SM   H8S 8083   4.682   4.866  16.227  0.9883 -0.0587 -0.1652
   6323SM   H8T 8084   4.508   4.888  16.198  0.1561 -0.0175 -1.2516
   6323SM   C9S 8085   4.593   4.716  16.106  0.4854 -0.2255  0.2795
   6323SM   H9S 8086   4.510   4.642  16.113 -1.4656  1.7688 -0.4278
   6323SM   H9T 8087   4.689   4.660  16.106  0.4578 -0.2926 -0.9512
   6323SM  C10S 8088   4.565   4.797  15.971 -0.7059  0.2776 -0.1976
   6323SM  H10S 8089   4.642   4.878  15.970 -1.2982  0.8940  1.3764
   6323SM  H10T 8090   4.461   4.835  15.980 -0.6337  0.0492  2.4075
   6323SM  C11S 8091   4.584   4.712  15.850 -0.6496 -0.5172  0.9787
   6323SM  H11S 8092   4.558   4.772  15.761 -1.9634 -1.2261  0.8507
   6323SM  H11T 8093   4.505   4.633  15.858 -0.6726 -0.5847  0.0971
   6323SM  C12S 8094   4.723   4.655  15.806  0.1933 -0.6810 -0.0188
   6323SM  H12S 8095   4.804   4.723  15.841 -0.7906  0.1481  0.6734
   6323SM  H12T 8096   4.721   4.647  15.696 -1.5913  1.7428 -0.2318
   6323SM  C13S 8097   4.749   4.512  15.859  0.0970 -0.1677 -0.4354
   6323SM  H13S 8098   4.662   4.444  15.843  0.7911 -0.7253 -2.0291
   6323SM  H13T 8099   4.759   4.519  15.969  0.0783 -0.9244 -0.3762
   6323SM  C14S 8100   4.876   4.452  15.798  0.2187 -0.3734 -0.0133
   6323SM  H14S 8101   4.912   4.364  15.854 -1.5307 -2.8094 -2.4700
   6323SM  H14T 8102   4.960   4.524  15.798 -1.7728  2.1419  1.5777
   6323SM  C15S 8103   4.843   4.397  15.657  0.0270 -0.6637 -0.4155
   6323SM  H15S 8104   4.885   4.469  15.583  1.3093 -1.7361 -0.7716
   6323SM  H15T 8105   4.734   4.395  15.636  0.0163  0.7229 -0.5769
   6323SM  C16S 8106   4.914   4.269  15.626 -0.6935  0.6000 -0.9244
   6323SM  H16S 8107   4.884   4.184  15.691  0.2041  0.0062 -1.2645
   6323SM  H16T 8108   5.020   4.285  15.655 -0.7467  2.5381 -1.6833
   6323SM  C17S 8109   4.895   4.216  15.485 -0.3043  0.1371  0.6484
   6323SM  H17S 8110   4.983   4.150  15.467 -1.8211 -1.6178 -0.6593
   6323SM  H17T 8111   4.907   4.296  15.410 -2.2291 -0.6917 -0.6043
   6323SM  C18S 8112   4.764   4.142  15.456 -0.1121 -0.3160 -0.5862
   6323SM  H18S 8113   4.679   4.213  15.444 -0.6222 -0.6620  0.7476
   6323SM  H18T 8114   4.734   4.069  15.534 -2.6797  0.1811 -1.0161
   6323SM  H18U 8115   4.773   4.088  15.360  1.6094 -0.7233 -0.2278
   6323SM   C1F 8116   4.648   4.273  16.794  0.4448 -0.5671  0.5806
   6323SM    OF 8117   4.579   4.211  16.870 -0.3399  0.0267  0.2320
   6323SM   C2F 8118   4.763   4.218  16.716  0.0496  0.0175  0.6560
   6323SM   H2F 8119   4.849   4.288  16.710  0.5070 -0.6844 -2.3526
   6323SM   H2G 8120   4.718   4.205  16.615 -3.5681  0.5380  2.0317
   6323SM   C3F 8121   4.819   4.084  16.766  0.7844 -0.0289 -0.3197
   6323SM   H3F 8122   4.748   4.000  16.779  0.0154 -0.1388 -4.0380
   6323SM   H3G 8123   4.867   4.114  16.861 -0.8854  0.0820  0.5242
   6323SM   C4F 8124   4.924   4.028  16.663 -0.3264 -0.5862  0.0752
   6323SM   H4F 8125   4.866   3.971  16.587 -0.6068 -0.2500  0.0325
   6323SM   H4G 8126   4.989   3.965  16.726  1.7349  1.2387 -0.1248
   6323SM   C5F 8127   5.021   4.135  16.604 -0.8219  0.4005 -0.0423
   6323SM   H5F 8128   5.057   4.203  16.685  0.2553 -0.3351  0.1154
   6323SM   H5G 8129   4.982   4.189  16.516 -0.0400 -1.4817 -1.6140
   6323SM   C6F 8130   5.155   4.068  16.561  0.9739 -0.0433  0.1600
   6323SM   H6F 8131   5.127   3.994  16.483  1.4381 -1.7903  1.5950
   6323SM   H6G 8132   5.201   4.004  16.639 -0.9704 -1.6734  0.0394
   6323SM   C7F 8133   5.249   4.187  16.512  0.0250 -0.2732 -0.1538
   6323SM   H7F 8134   5.290   4.255  16.590  2.4872 -2.6146  0.7380
   6323SM   H7G 8135   5.187   4.258  16.453 -1.1013 -1.0345  0.0935
   6323SM   C8F 8136   5.373   4.133  16.433  0.2528 -0.4896  0.1564
   6323SM   H8F 8137   5.336   4.071  16.348 -0.1448 -0.1409  0.0731
   6323SM   H8G 8138   5.422   4.063  16.505 -1.7183 -1.9737  0.1595
   6323SM   C9F 8139   5.463   4.253  16.383 -0.1277  0.0942 -0.5482
   6323SM   H9F 8140   5.474   4.319  16.472 -2.0769 -2.1517  1.4553
   6323SM   H9G 8141   5.404   4.315  16.312 -2.0002  0.5154  1.2816
   6323SM  C10F 8142   5.595   4.211  16.336 -0.3748  1.1571  0.5363
   6323SM  H10F 8143   5.596   4.148  16.245  0.9432  1.6035  0.2203
   6323SM  H10G 8144   5.636   4.141  16.412 -0.7031 -0.0887 -0.4078
   6323SM  C11F 8145   5.696   4.321  16.302 -0.0077  0.0647  0.2262
   6323SM  H11F 8146   5.795   4.291  16.344 -0.8575  0.8554  3.0045
   6323SM  H11G 8147   5.674   4.412  16.362  0.2563 -0.3604  0.9806
   6323SM  C12F 8148   5.686   4.380  16.158  0.2913  0.0721  0.0577
   6323SM  H12F 8149   5.581   4.412  16.146  0.1833 -0.5867 -0.8509
   6323SM  H12G 8150   5.695   4.306  16.076  0.2509 -0.7063  0.7347
   6323SM  C13F 8151   5.769   4.503  16.137  0.1310 -0.1291 -0.9766
   6323SM  H13F 8152   5.872   4.469  16.114 -0.2704 -2.1939  0.0481
   6323SM  H13G 8153   5.753   4.572  16.222 -1.1526 -1.1878 -0.3338
   6323SM  C14F 8154   5.723   4.584  16.012  0.5265  0.1976 -0.1213
   6323SM  H14F 8155   5.760   4.689  16.022  0.5180  0.4277 -1.9998
   6323SM  H14G 8156   5.613   4.593  16.019  0.0547 -1.8486 -2.9025
   6323SM  C15F 8157   5.755   4.508  15.881 -0.1050  0.1034 -0.8967
   6323SM  H15F 8158   5.729   4.401  15.889 -0.5966  0.3794  2.2541
   6323SM  H15G 8159   5.865   4.518  15.872 -0.1728  0.8922 -0.9714
   6323SM  C16F 8160   5.686   4.562  15.750 -0.2623  0.0142 -0.5769
   6323SM  H16F 8161   5.713   4.493  15.667 -0.1948  0.2472 -0.7502
   6323SM  H16G 8162   5.740   4.657  15.729 -0.4060  0.0232 -0.9267
   6323SM  C17F 8163   5.535   4.575  15.756 -0.3033 -0.1211  0.0144
   6323SM  H17F 8164   5.497   4.618  15.661 -3.1496  0.8647  1.4965
   6323SM  H17G 8165   5.495   4.643  15.834  0.7206  1.6052 -0.8769
   6323SM  C18F 8166   5.455   4.444  15.779 -0.5110 -0.0624 -0.2774
   6323SM  H18F 8167   5.514   4.369  15.835 -0.0097 -1.1112 -2.1215
   6323SM  H18G 8168   5.420   4.394  15.687  0.0355 -0.2267 -0.4005
   6323SM  C19F 8169   5.325   4.457  15.864  0.2419 -0.1095 -0.9014
   6323SM  H19F 8170   5.251   4.512  15.802 -1.0476 -2.0617 -1.1634
   6323SM  H19G 8171   5.343   4.499  15.965  1.5248 -1.2069 -0.6546
   6323SM  C20F 8172   5.267   4.319  15.883 -0.2172  0.1916 -0.6389
   6323SM  H20F 8173   5.283   4.256  15.793 -0.7574 -2.4348  0.9990
   6323SM  H20G 8174   5.159   4.332  15.906 -0.4860 -0.2423 -1.6319
   6323SM  C21F 8175   5.328   4.246  16.007 -1.0245  0.0661  0.1250
   6323SM  H21F 8176   5.289   4.290  16.101 -0.5423  1.4699 -0.3147
   6323SM  H21G 8177   5.438   4.261  15.998 -1.1046  0.3966 -0.3095
   6323SM  C22F 8178   5.294   4.099  16.025 -0.0729  0.3051 -0.0745
   6323SM  H22F 8179   5.350   4.054  16.111  1.0926  1.9983  0.1120
   6323SM  H22G 8180   5.328   4.046  15.934 -0.7672  2.1332 -1.4608
   6323SM  C23F 8181   5.141   4.078  16.045  0.3864 -0.2677  0.4049
   6323SM  H23F 8182   5.076   4.123  15.967 -0.2961 -0.9399  0.5823
   6323SM  H23G 8183   5.112   4.115  16.145  2.1451 -1.4883  1.4224
   6323SM  H23H 8184   5.123   3.969  16.036 -1.7083  0.0476  0.3824
   6423SM     N 8185   6.285   2.601  17.101 -0.3354  0.1615 -0.2011
   6423SM   C15 8186   6.372   2.509  17.192  0.2737 -0.2700 -0.4091
   6423SM  H15A 8187   6.313   2.422  17.215 -0.8495  0.4798 -0.3727
   6423SM  H15B 8188   6.395   2.554  17.288 -0.1598 -1.2818  0.1829
   6423SM  H15C 8189   6.461   2.483  17.137  2.0467 -0.4169  2.3268
   6423SM   C14 8190   6.364   2.714  17.050  0.5979 -0.3416  0.8515
   6423SM  H14A 8191   6.300   2.788  17.003  0.2523  1.3218  3.6835
   6423SM  H14B 8192   6.431   2.685  16.971 -0.4539  3.5415 -1.7813
   6423SM  H14C 8193   6.416   2.770  17.126  0.2756 -1.2954  1.8068
   6423SM   C13 8194   6.240   2.518  16.986  0.4951  0.1877 -0.4592
   6423SM  H13A 8195   6.172   2.444  17.027  2.6085 -2.0274 -0.7832
   6423SM  H13B 8196   6.326   2.483  16.932  2.1146  2.7848  0.2262
   6423SM  H13C 8197   6.182   2.583  16.922  1.9560  4.0110  1.7480
   6423SM   C12 8198   6.164   2.638  17.189 -0.9277 -0.5022  0.7394
   6423SM  H12A 8199   6.195   2.693  17.277 -0.8589  0.5536  0.0764
   6423SM  H12B 8200   6.106   2.551  17.214 -1.2643 -0.4781  0.0808
   6423SM   C11 8201   6.066   2.727  17.121  0.3539  0.0772  0.6656
   6423SM  H11A 8202   6.015   2.666  17.044 -3.4075  2.3726  1.0275
   6423SM  H11B 8203   6.117   2.812  17.070 -0.2494  0.1417  0.1546
   6423SM     P 8204   5.828   2.707  17.236  0.1880  0.3059 -0.2274
   6423SM   O13 8205   5.851   2.568  17.284  0.0566 -0.2404  0.5918
   6423SM   O14 8206   5.742   2.794  17.322  0.1987 -0.4124  0.6790
   6423SM   O11 8207   5.772   2.702  17.089  0.0968 -0.5160 -0.0279
   6423SM   O12 8208   5.973   2.776  17.221 -0.0098  0.6328  0.3855
   6423SM   C1S 8209   5.749   2.823  17.013 -0.5788  0.1889 -0.0242
   6423SM   H1S 8210   5.845   2.877  17.002 -0.8789  0.6563 -0.3616
   6423SM   H1T 8211   5.682   2.888  17.073  0.3101  0.1646  1.0241
   6423SM    NF 8212   5.702   2.906  16.781 -0.0881  0.2102 -0.1259
   6423SM   HNF 8213   5.625   2.955  16.741 -1.3186 -0.7644  0.9768
   6423SM   C2S 8214   5.682   2.796  16.873 -0.4026 -0.3404 -0.2092
   6423SM   H2S 8215   5.732   2.706  16.832  1.5855  1.6203 -2.3765
   6423SM   C3S 8216   5.534   2.747  16.890  0.0519 -0.9165  0.0435
   6423SM   H3S 8217   5.480   2.821  16.954 -0.4188 -0.7872 -0.5004
   6423SM    O3 8218   5.525   2.629  16.976 -0.4217 -0.1607 -0.3994
   6423SM   HO3 8219   5.612   2.632  17.017 -0.2057  1.0126 -0.9210
   6423SM   C4S 8220   5.458   2.725  16.764 -0.6888  0.3005 -0.6833
   6423SM   H4S 8221   5.509   2.661  16.689  0.6707 -0.4406  0.7975
   6423SM   C5S 8222   5.350   2.787  16.728  0.7255 -0.7195 -0.1678
   6423SM   H5S 8223   5.300   2.848  16.804  0.6251  0.1258 -0.9009
   6423SM   C6S 8224   5.262   2.772  16.603  0.0230 -0.1506 -0.0485
   6423SM   H6S 8225   5.203   2.863  16.577  0.1878  0.0443  0.2474
   6423SM   H6T 8226   5.193   2.686  16.617 -1.2929  0.5572 -1.8548
   6423SM   C7S 8227   5.338   2.750  16.474 -0.4935 -0.6384 -0.0956
   6423SM   H7S 8228   5.388   2.651  16.478  0.9179 -0.1719 -3.1063
   6423SM   H7T 8229   5.423   2.821  16.476  1.0240 -2.4135  0.2613
   6423SM   C8S 8230   5.251   2.762  16.351  1.0096  0.4566  0.0394
   6423SM   H8S 8231   5.193   2.856  16.365  1.8588  1.0962 -0.6235
   6423SM   H8T 8232   5.179   2.679  16.341 -0.4040  1.7597 -1.1539
   6423SM   C9S 8233   5.335   2.756  16.220 -0.1417 -0.3537 -0.2716
   6423SM   H9S 8234   5.375   2.657  16.187  0.9395  0.2627 -0.8363
   6423SM   H9T 8235   5.420   2.827  16.219 -1.5347  1.4931  2.1897
   6423SM  C10S 8236   5.253   2.796  16.096  0.2940 -0.8312  0.2069
   6423SM  H10S 8237   5.195   2.891  16.106 -0.3520 -0.8011 -2.7898
   6423SM  H10T 8238   5.177   2.717  16.080  0.0629 -0.1259 -2.8166
   6423SM  C11S 8239   5.338   2.821  15.967 -0.7617 -0.0335 -0.8491
   6423SM  H11S 8240   5.402   2.730  15.960 -0.3861  0.1893 -0.4397
   6423SM  H11T 8241   5.396   2.913  15.988 -1.5683  0.6344 -1.5278
   6423SM  C12S 8242   5.265   2.844  15.831  0.3678  0.0642  0.4109
   6423SM  H12S 8243   5.187   2.922  15.839 -0.6136 -0.9104  0.4957
   6423SM  H12T 8244   5.197   2.761  15.806 -0.0195  0.9943 -1.8243
   6423SM  C13S 8245   5.372   2.871  15.720  0.5458 -0.5725 -0.3626
   6423SM  H13S 8246   5.450   2.793  15.706  1.1759  0.1776 -1.1070
   6423SM  H13T 8247   5.417   2.971  15.736  0.7784 -0.6436 -0.5789
   6423SM  C14S 8248   5.295   2.885  15.592  0.8384  0.4787  0.0737
   6423SM  H14S 8249   5.290   2.989  15.553  0.4853  0.1488 -0.7803
   6423SM  H14T 8250   5.197   2.832  15.597  0.4650  0.8849 -2.0374
   6423SM  C15S 8251   5.376   2.798  15.496  0.6069 -0.1065  0.2168
   6423SM  H15S 8252   5.387   2.694  15.535 -0.2153  0.6973  2.7558
   6423SM  H15T 8253   5.477   2.843  15.491  0.6756 -0.2116  0.6532
   6423SM  C16S 8254   5.318   2.820  15.355 -0.3854  0.7894  1.3830
   6423SM  H16S 8255   5.289   2.927  15.360  1.9456  1.4538  1.9118
   6423SM  H16T 8256   5.219   2.771  15.338  0.3494 -0.6671  1.1055
   6423SM  C17S 8257   5.416   2.796  15.241 -0.0978  0.7917  0.0633
   6423SM  H17S 8258   5.473   2.703  15.263 -2.4236 -0.8696 -0.5285
   6423SM  H17T 8259   5.489   2.880  15.232 -0.0640  0.7735  0.1707
   6423SM  C18S 8260   5.327   2.773  15.115  0.2112  0.4131 -0.4182
   6423SM  H18S 8261   5.269   2.684  15.149  2.4979 -0.3472  1.8699
   6423SM  H18T 8262   5.389   2.749  15.026 -0.9432 -0.4476 -1.0092
   6423SM  H18U 8263   5.265   2.864  15.103  0.6342  0.9305  1.0597
   6423SM   C1F 8264   5.820   2.935  16.737 -0.3999 -0.2911  0.1311
   6423SM    OF 8265   5.922   2.878  16.771 -0.2146 -0.2648  0.5146
   6423SM   C2F 8266   5.830   3.067  16.663 -0.0038 -0.5192 -0.0539
   6423SM   H2F 8267   5.933   3.107  16.672 -0.3048  0.1557  0.4649
   6423SM   H2G 8268   5.752   3.137  16.700 -0.3839 -1.1088  0.2656
   6423SM   C3F 8269   5.806   3.056  16.515 -0.1515  0.7954 -0.6657
   6423SM   H3F 8270   5.701   3.022  16.510 -0.3589  1.4766 -1.0762
   6423SM   H3G 8271   5.874   2.977  16.478  1.5432  0.9879  1.7722
   6423SM   C4F 8272   5.835   3.188  16.445  0.1192  0.0008 -0.3186
   6423SM   H4F 8273   5.944   3.211  16.447 -0.2969  2.3792 -1.5854
   6423SM   H4G 8274   5.778   3.277  16.479 -1.3454 -0.5230 -1.2735
   6423SM   C5F 8275   5.803   3.184  16.293  0.1828  0.1993 -0.7108
   6423SM   H5F 8276   5.876   3.248  16.238 -0.6121 -0.1971 -2.2744
   6423SM   H5G 8277   5.702   3.223  16.270  0.7887  2.1463 -0.2716
   6423SM   C6F 8278   5.813   3.044  16.224  0.0112 -0.2132 -0.5191
   6423SM   H6F 8279   5.721   2.987  16.246 -0.7054  1.2314  0.3715
   6423SM   H6G 8280   5.903   2.996  16.268  1.7814  2.2813 -1.1717
   6423SM   C7F 8281   5.839   3.062  16.068 -0.7852 -0.2908 -0.6721
   6423SM   H7F 8282   5.941   3.105  16.065 -0.6235 -0.6773 -0.8126
   6423SM   H7G 8283   5.767   3.136  16.028 -1.6743 -0.4718  0.5366
   6423SM   C8F 8284   5.825   2.934  15.986 -0.1916 -0.1080  0.5193
   6423SM   H8F 8285   5.723   2.891  15.995  0.7068 -2.7338 -0.9070
   6423SM   H8G 8286   5.902   2.860  16.015  0.6196  0.5625  0.1447
   6423SM   C9F 8287   5.836   2.973  15.835  0.4976  0.4720 -0.0577
   6423SM   H9F 8288   5.928   3.028  15.807  1.5960  0.5232  3.2637
   6423SM   H9G 8289   5.751   3.037  15.803 -1.2863 -0.4935  2.3953
   6423SM  C10F 8290   5.846   2.843  15.761  0.1698 -0.2630  0.3422
   6423SM  H10F 8291   5.755   2.782  15.778  0.4102 -1.2103 -1.4904
   6423SM  H10G 8292   5.926   2.774  15.796  3.0345  3.7722  2.4216
   6423SM  C11F 8293   5.868   2.867  15.605  0.2370  0.0603  0.3931
   6423SM  H11F 8294   5.965   2.918  15.592  0.0638  0.3388  0.1922
   6423SM  H11G 8295   5.796   2.935  15.555  1.0210  0.7986  0.2560
   6423SM  C12F 8296   5.864   2.738  15.526  0.8481 -0.9002  0.3912
   6423SM  H12F 8297   5.762   2.696  15.529  0.5350 -0.1444  0.5976
   6423SM  H12G 8298   5.940   2.669  15.569  1.8252  0.7209  1.4147
   6423SM  C13F 8299   5.894   2.747  15.372 -0.0723  0.0509  0.1925
   6423SM  H13F 8300   5.907   2.643  15.335 -0.4666 -0.1468  0.5936
   6423SM  H13G 8301   5.993   2.797  15.373  0.1052 -0.2821  1.5227
   6423SM  C14F 8302   5.807   2.835  15.282 -0.2941  0.4724 -0.6628
   6423SM  H14F 8303   5.784   2.935  15.326  0.0436 -0.0414  0.7243
   6423SM  H14G 8304   5.710   2.781  15.278 -0.9194  1.0818  3.0455
   6423SM  C15F 8305   5.866   2.850  15.140  0.9444  0.6098  0.3589
   6423SM  H15F 8306   5.887   2.745  15.110 -0.2090 -0.5551  3.1849
   6423SM  H15G 8307   5.962   2.904  15.133  0.8913  0.5493 -1.1493
   6423SM  C16F 8308   5.758   2.906  15.049 -0.2291 -0.0622  0.1302
   6423SM  H16F 8309   5.728   3.001  15.099 -1.0132 -0.3808  0.2893
   6423SM  H16G 8310   5.661   2.851  15.047 -0.6961  0.7705 -1.4994
   6423SM  C17F 8311   5.793   2.930  14.908 -0.9014  0.0361  0.4027
   6423SM  H17F 8312   5.701   2.944  14.846  0.0555 -1.7928 -1.5598
   6423SM  H17G 8313   5.840   2.836  14.872  0.7134  0.8406  0.3108
   6423SM  C18F 8314   5.899   3.036  14.887  0.4301 -1.1626  0.1095
   6423SM  H18F 8315   5.937   3.032  14.782 -1.3828 -2.4371 -0.5262
   6423SM  H18G 8316   5.994   3.013  14.941  0.6914  1.7342  1.0612
   6423SM  C19F 8317   5.863   3.185  14.915 -0.3446  0.2888 -0.4503
   6423SM  H19F 8318   5.835   3.193  15.022 -0.7445 -1.8200 -0.3581
   6423SM  H19G 8319   5.768   3.204  14.861 -1.2118 -0.1339  0.8742
   6423SM  C20F 8320   5.975   3.284  14.875  0.3189 -0.1701 -0.3840
   6423SM  H20F 8321   6.059   3.236  14.930 -0.6628  1.7327  3.0978
   6423SM  H20G 8322   5.956   3.386  14.913 -1.6494 -0.7578  0.3220
   6423SM  C21F 8323   5.990   3.310  14.730  0.0200 -0.1937 -1.0326
   6423SM  H21F 8324   5.895   3.351  14.690 -0.2832  2.2243  1.8486
   6423SM  H21G 8325   6.000   3.210  14.681  1.3926 -0.7030  0.1925
   6423SM  C22F 8326   6.105   3.399  14.694 -0.2459 -0.2602 -0.4778
   6423SM  H22F 8327   6.107   3.488  14.760 -0.3826 -1.2348  0.8717
   6423SM  H22G 8328   6.097   3.435  14.589 -0.8237  1.8310  0.2215
   6423SM  C23F 8329   6.240   3.336  14.710  0.4517  0.0067 -0.6443
   6423SM  H23F 8330   6.255   3.315  14.818 -0.2677  2.9173  0.1216
   6423SM  H23G 8331   6.321   3.410  14.692  0.2953 -0.0495 -1.6566
   6423SM  H23H 8332   6.255   3.254  14.636 -1.4149  0.4620 -1.5983
   6523SM     N 8333   5.404   3.407  17.389 -0.5052 -0.2293  0.5107
   6523SM   C15 8334   5.385   3.264  17.426  0.8683  0.6828  0.4784
   6523SM  H15A 8335   5.333   3.219  17.343 -0.4535 -0.3686  1.8186
   6523SM  H15B 8336   5.327   3.253  17.516  2.5980 -2.1360  1.3629
   6523SM  H15C 8337   5.470   3.199  17.425 -0.3329 -0.9469 -0.7830
   6523SM   C14 8338   5.272   3.471  17.390 -0.4011  0.1299 -0.2834
   6523SM  H14A 8339   5.281   3.579  17.381 -2.3215  0.3714  0.1437
   6523SM  H14B 8340   5.207   3.442  17.472 -1.6295  0.7416 -1.0034
   6523SM  H14C 8341   5.214   3.431  17.308  1.8598 -2.4197 -0.7690
   6523SM   C13 8342   5.486   3.487  17.493  0.5376  0.3614  0.8705
   6523SM  H13A 8343   5.592   3.469  17.483  0.7861  2.2811 -0.3738
   6523SM  H13B 8344   5.444   3.464  17.590  1.5796  2.7278  1.9495
   6523SM  H13C 8345   5.473   3.594  17.483  1.7648  0.4174 -0.3694
   6523SM   C12 8346   5.468   3.414  17.249  0.2326  0.4207  0.0381
   6523SM  H12A 8347   5.560   3.357  17.254  1.1317  1.7120 -1.2580
   6523SM  H12B 8348   5.511   3.513  17.242  1.7774 -0.2827 -0.8988
   6523SM   C11 8349   5.378   3.371  17.135  0.1039  0.1724  0.4782
   6523SM  H11A 8350   5.435   3.403  17.045  0.2939  1.5358  1.0598
   6523SM  H11B 8351   5.285   3.427  17.114  0.5133  0.0436 -2.0006
   6523SM     P 8352   5.436   3.118  17.081  0.5513 -0.0279  0.0907
   6523SM   O13 8353   5.573   3.145  17.116  0.0060  0.2086  0.1567
   6523SM   O14 8354   5.382   2.984  17.122 -0.3554  0.4390  0.3268
   6523SM   O11 8355   5.428   3.138  16.927  0.4606 -0.0148  0.0337
   6523SM   O12 8356   5.344   3.231  17.142  0.0494  0.3381 -0.5075
   6523SM   C1S 8357   5.299   3.162  16.866 -0.2543 -0.4841  0.7095
   6523SM   H1S 8358   5.231   3.216  16.936  0.2206 -0.1908  0.9449
   6523SM   H1T 8359   5.252   3.068  16.830  0.6677 -0.1430 -1.5779
   6523SM    NF 8360   5.192   3.306  16.692 -0.6969 -0.4768 -0.1232
   6523SM   HNF 8361   5.153   3.270  16.608  0.1707  1.2479 -1.3293
   6523SM   C2S 8362   5.317   3.246  16.734 -0.4446 -0.0364  1.1655
   6523SM   H2S 8363   5.386   3.326  16.767 -0.5780  1.3779 -1.6617
   6523SM   C3S 8364   5.388   3.150  16.621  0.0244 -0.1561 -0.3286
   6523SM   H3S 8365   5.321   3.073  16.577  0.1408  0.1618 -1.0658
   6523SM    O3 8366   5.492   3.082  16.681  0.6729 -0.1910 -0.0515
   6523SM   HO3 8367   5.477   3.081  16.776 -1.1873  0.7079 -0.3079
   6523SM   C4S 8368   5.450   3.235  16.510 -0.3455 -0.5120 -0.4201
   6523SM   H4S 8369   5.524   3.308  16.546 -0.0700 -1.9990  2.3822
   6523SM   C5S 8370   5.401   3.226  16.384 -0.3975 -0.6772 -0.4652
   6523SM   H5S 8371   5.324   3.150  16.361 -0.8565 -0.2966 -0.2008
   6523SM   C6S 8372   5.454   3.316  16.273 -0.0161  0.3133  0.2328
   6523SM   H6S 8373   5.557   3.356  16.292 -0.2734  0.6489  0.9705
   6523SM   H6T 8374   5.397   3.407  16.246  1.3314  1.0771 -0.1539
   6523SM   C7S 8375   5.458   3.228  16.139  0.4620 -0.2711  0.2969
   6523SM   H7S 8376   5.358   3.205  16.096  1.3461 -0.2340 -1.9197
   6523SM   H7T 8377   5.513   3.133  16.159  0.0683 -0.5217  0.2005
   6523SM   C8S 8378   5.530   3.315  16.035 -0.1215 -0.3720  0.7455
   6523SM   H8S 8379   5.636   3.333  16.066 -0.4073  1.8928  0.5754
   6523SM   H8T 8380   5.479   3.413  16.027 -0.8863 -0.8788 -1.0704
   6523SM   C9S 8381   5.525   3.259  15.892 -0.5945  0.0098 -0.5485
   6523SM   H9S 8382   5.421   3.231  15.862  0.2212 -2.0917 -1.5874
   6523SM   H9T 8383   5.584   3.165  15.883  1.7051  1.2392  0.8181
   6523SM  C10S 8384   5.579   3.371  15.798  0.2455  0.4093  0.0716
   6523SM  H10S 8385   5.680   3.411  15.819 -0.1452  1.0736  0.7651
   6523SM  H10T 8386   5.509   3.457  15.807  0.0010  0.2291 -0.0871
   6523SM  C11S 8387   5.584   3.325  15.652  0.2195 -0.1303  0.8275
   6523SM  H11S 8388   5.549   3.412  15.592  1.5915  0.4212  0.7924
   6523SM  H11T 8389   5.510   3.247  15.622  0.0480  0.3282  0.0031
   6523SM  C12S 8390   5.725   3.286  15.603 -0.4769  0.2675  0.4981
   6523SM  H12S 8391   5.790   3.222  15.666  0.2376 -0.1685 -0.6411
   6523SM  H12T 8392   5.792   3.371  15.577  0.6556 -1.3553 -2.3829
   6523SM  C13S 8393   5.708   3.208  15.468 -0.2859 -0.1050 -1.2497
   6523SM  H13S 8394   5.641   3.126  15.502  0.1030  0.6282  1.5408
   6523SM  H13T 8395   5.807   3.171  15.431 -1.2081 -0.8662 -3.1009
   6523SM  C14S 8396   5.647   3.289  15.362  0.3177 -0.6616 -0.1499
   6523SM  H14S 8397   5.728   3.362  15.340 -0.1847 -0.5602 -1.8391
   6523SM  H14T 8398   5.550   3.334  15.392  0.6891  1.1515 -1.4480
   6523SM  C15S 8399   5.617   3.214  15.236 -0.3271  0.2782 -0.0900
   6523SM  H15S 8400   5.558   3.123  15.262  1.3814  0.0077  3.3658
   6523SM  H15T 8401   5.718   3.183  15.203  0.0353  0.3485  0.9105
   6523SM  C16S 8402   5.548   3.299  15.128  0.3145 -0.0135 -0.0372
   6523SM  H16S 8403   5.453   3.347  15.161  0.7978  1.1756 -0.3114
   6523SM  H16T 8404   5.528   3.245  15.034  1.4192  2.0277 -1.5246
   6523SM  C17S 8405   5.639   3.416  15.092 -1.0482 -0.0914 -0.0890
   6523SM  H17S 8406   5.743   3.378  15.087 -0.6442  1.1126 -1.5644
   6523SM  H17T 8407   5.639   3.486  15.178  0.9770  1.7130 -1.4496
   6523SM  C18S 8408   5.602   3.483  14.962  0.4294  0.3303  0.1194
   6523SM  H18S 8409   5.499   3.524  14.969  0.0854 -0.4140 -0.5055
   6523SM  H18T 8410   5.624   3.404  14.887  0.7198 -1.0055  1.5653
   6523SM  H18U 8411   5.670   3.570  14.947  2.6130 -1.2438  0.4349
   6523SM   C1F 8412   5.123   3.392  16.767 -0.5703 -0.3664 -0.1502
   6523SM    OF 8413   5.176   3.447  16.869 -0.1824  0.0286  0.3055
   6523SM   C2F 8414   4.980   3.423  16.716 -0.0256 -0.7858 -0.3326
   6523SM   H2F 8415   4.920   3.349  16.774 -1.1364  0.8490  0.7318
   6523SM   H2G 8416   4.981   3.405  16.607  0.3774  1.6726 -0.8038
   6523SM   C3F 8417   4.953   3.577  16.732  0.0652  0.6968 -0.1367
   6523SM   H3F 8418   5.010   3.638  16.660  0.2117  1.7292  0.8224
   6523SM   H3G 8419   4.970   3.615  16.835  2.1081 -0.2250 -0.0963
   6523SM   C4F 8420   4.806   3.610  16.699 -0.0949  0.0684  0.1856
   6523SM   H4F 8421   4.784   3.716  16.723 -0.7455  0.0054 -0.1107
   6523SM   H4G 8422   4.740   3.530  16.738  3.4518 -4.1671 -1.6144
   6523SM   C5F 8423   4.778   3.606  16.545  0.2580 -0.5987  0.3512
   6523SM   H5F 8424   4.783   3.501  16.508 -3.2269 -2.1304  3.4557
   6523SM   H5G 8425   4.849   3.661  16.481 -0.3795 -1.4959 -1.1849
   6523SM   C6F 8426   4.642   3.674  16.514  0.2685  0.4061 -0.5308
   6523SM   H6F 8427   4.647   3.780  16.547 -1.7275  0.4420 -0.1829
   6523SM   H6G 8428   4.559   3.631  16.575  1.9799 -0.6597  1.1576
   6523SM   C7F 8429   4.635   3.677  16.358  0.6812  0.2258  0.2583
   6523SM   H7F 8430   4.710   3.741  16.305 -0.2886  0.4695 -0.8614
   6523SM   H7G 8431   4.535   3.723  16.343  0.5773 -0.1291 -0.1609
   6523SM   C8F 8432   4.634   3.535  16.299  0.1323 -0.4554  0.1059
   6523SM   H8F 8433   4.566   3.470  16.357  0.8474 -0.3079  1.1287
   6523SM   H8G 8434   4.736   3.491  16.297 -0.2145 -1.2560 -0.9053
   6523SM   C9F 8435   4.575   3.536  16.157  0.0183  0.9796 -0.4212
   6523SM   H9F 8436   4.468   3.566  16.156 -0.2915  0.0077  0.9791
   6523SM   H9G 8437   4.567   3.430  16.124  1.4383  0.9621 -0.7697
   6523SM  C10F 8438   4.656   3.612  16.052 -0.5086  0.4381 -0.0038
   6523SM  H10F 8439   4.664   3.716  16.090 -0.6660  0.2377  0.5982
   6523SM  H10G 8440   4.598   3.617  15.958 -1.5405 -0.4094  0.5540
   6523SM  C11F 8441   4.791   3.551  16.030  0.8583 -0.2480  0.0737
   6523SM  H11F 8442   4.782   3.442  16.008 -0.3708 -0.5054  1.6518
   6523SM  H11G 8443   4.848   3.566  16.124  1.8745  0.4397 -0.6175
   6523SM  C12F 8444   4.869   3.631  15.922  0.2919  0.1818  0.1006
   6523SM  H12F 8445   4.883   3.733  15.963  0.3320  0.2963 -0.1964
   6523SM  H12G 8446   4.813   3.637  15.826 -0.4573 -1.1113  0.4281
   6523SM  C13F 8447   5.005   3.575  15.890 -0.0192 -0.3289  0.1216
   6523SM  H13F 8448   4.982   3.490  15.821 -0.6912 -0.3526  0.3703
   6523SM  H13G 8449   5.055   3.521  15.974 -0.4749  0.4219  0.8839
   6523SM  C14F 8450   5.094   3.681  15.828  0.1623 -0.4684 -0.5016
   6523SM  H14F 8451   5.110   3.759  15.906 -0.4590 -0.6939 -0.1495
   6523SM  H14G 8452   5.037   3.739  15.751 -1.8350  0.0989  1.3072
   6523SM  C15F 8453   5.229   3.629  15.783 -0.2448  0.0260  0.4575
   6523SM  H15F 8454   5.214   3.537  15.721 -0.6571 -0.0471  0.6633
   6523SM  H15G 8455   5.285   3.600  15.874 -1.7483  1.6686  1.9654
   6523SM  C16F 8456   5.310   3.718  15.695 -0.5941 -0.3600 -0.0669
   6523SM  H16F 8457   5.415   3.684  15.689  0.2166  1.8948  0.6104
   6523SM  H16G 8458   5.316   3.818  15.742  0.3113 -1.2315  1.7840
   6523SM  C17F 8459   5.253   3.722  15.548 -0.4755 -0.0851  0.7513
   6523SM  H17F 8460   5.148   3.758  15.555  0.0427  1.2827  2.2642
   6523SM  H17G 8461   5.253   3.617  15.511 -0.1605  0.4039 -0.7005
   6523SM  C18F 8462   5.337   3.815  15.458 -0.8461 -0.1028 -0.5482
   6523SM  H18F 8463   5.319   3.766  15.360  2.2642 -0.2115 -1.1532
   6523SM  H18G 8464   5.445   3.812  15.485 -0.2732  1.1476 -2.4849
   6523SM  C19F 8465   5.288   3.958  15.435  0.2182 -0.0305  1.1574
   6523SM  H19F 8466   5.187   3.956  15.389  1.3855 -0.4160 -1.5773
   6523SM  H19G 8467   5.356   4.007  15.362 -1.8778 -0.1506 -0.9929
   6523SM  C20F 8468   5.293   4.049  15.558  0.1018  0.0960  0.3252
   6523SM  H20F 8469   5.215   4.015  15.629  0.1137  0.5752  0.5678
   6523SM  H20G 8470   5.270   4.149  15.516  1.6184  0.2899 -0.1313
   6523SM  C21F 8471   5.421   4.064  15.632 -0.0724  0.2294  0.1543
   6523SM  H21F 8472   5.457   3.966  15.670  1.3774  0.7794  0.2680
   6523SM  H21G 8473   5.409   4.140  15.713 -1.5376  0.3965 -0.1831
   6523SM  C22F 8474   5.540   4.123  15.546 -0.3730 -0.4130 -0.4355
   6523SM  H22F 8475   5.502   4.212  15.492  0.9554  0.7259  0.4604
   6523SM  H22G 8476   5.573   4.051  15.468 -1.3557 -0.5652 -0.7297
   6523SM  C23F 8477   5.664   4.157  15.632 -0.0500  0.3371 -0.5005
   6523SM  H23F 8478   5.629   4.246  15.688 -2.0234 -1.5365  1.4957
   6523SM  H23G 8479   5.755   4.187  15.576  2.1262 -2.0013  1.5255
   6523SM  H23H 8480   5.685   4.080  15.709 -0.2251 -1.1791 -1.9070
   6623SM     N 8481   4.049   0.302  16.905 -0.1129 -0.2909  0.0543
   6623SM   C15 8482   3.999   0.445  16.916  0.6377  0.0302  0.0809
   6623SM  H15A 8483   4.076   0.512  16.883 -0.4205  0.8284 -0.8242
   6623SM  H15B 8484   3.984   0.469  17.020 -0.4770  0.0358 -0.0628
   6623SM  H15C 8485   3.905   0.465  16.867  0.4025 -0.8789  0.1374
   6623SM   C14 8486   3.963   0.214  16.981  1.2102  0.5697 -0.1774
   6623SM  H14A 8487   3.944   0.254  17.080  0.5359  0.8518 -0.4130
   6623SM  H14B 8488   4.003   0.114  16.982  1.6451  0.7188 -1.2908
   6623SM  H14C 8489   3.863   0.214  16.942  1.3971  1.2353 -0.6792
   6623SM   C13 8490   4.046   0.253  16.762  0.0905  0.3541 -0.6009
   6623SM  H13A 8491   4.119   0.304  16.700 -0.4649  2.2406  0.2560
   6623SM  H13B 8492   3.946   0.249  16.723 -0.1210  0.9418 -0.1263
   6623SM  H13C 8493   4.079   0.150  16.763 -0.9919 -0.0419  2.1340
   6623SM   C12 8494   4.189   0.293  16.969  0.3689 -0.0238  0.1954
   6623SM  H12A 8495   4.215   0.191  16.990 -0.2024 -0.1252  0.4478
   6623SM  H12B 8496   4.185   0.342  17.066 -1.1224 -0.9614  0.6381
   6623SM   C11 8497   4.307   0.366  16.900 -0.0203 -0.5042 -0.6912
   6623SM  H11A 8498   4.331   0.330  16.798  3.4367 -0.9401  0.1404
   6623SM  H11B 8499   4.402   0.338  16.951 -1.0143 -2.0680  0.3804
   6623SM     P 8500   4.330   0.599  17.022 -0.1208  0.3164  0.1722
   6623SM   O13 8501   4.284   0.532  17.143  0.3447  0.3772 -0.5421
   6623SM   O14 8502   4.479   0.620  17.008  0.8657 -0.0070 -0.2866
   6623SM   O11 8503   4.242   0.734  17.020 -0.4087  0.1906  0.9308
   6623SM   O12 8504   4.287   0.511  16.896  0.1873  0.6952 -0.2167
   6623SM   C1S 8505   4.297   0.847  16.939  0.1602 -0.6551  0.1348
   6623SM   H1S 8506   4.402   0.867  16.969  0.3869 -1.8701  0.2276
   6623SM   H1T 8507   4.237   0.934  16.971  0.4708 -0.8758  1.3774
   6623SM    NF 8508   4.347   0.954  16.722 -0.0597 -0.1209  0.2029
   6623SM   HNF 8509   4.289   1.034  16.710 -0.8500 -0.2729  2.5907
   6623SM   C2S 8510   4.278   0.836  16.779  0.0037  0.2988  0.1434
   6623SM   H2S 8511   4.325   0.739  16.750 -1.9959 -0.8040  0.3742
   6623SM   C3S 8512   4.132   0.831  16.735 -0.0913  0.3763  0.1262
   6623SM   H3S 8513   4.081   0.926  16.764  0.4529  0.5885  0.3986
   6623SM    O3 8514   4.058   0.722  16.788  0.0909  0.2493  0.1895
   6623SM   HO3 8515   4.124   0.676  16.839 -0.0139 -0.3517 -0.2010
   6623SM   C4S 8516   4.138   0.802  16.586 -0.0029 -0.1557 -0.2878
   6623SM   H4S 8517   4.204   0.716  16.566 -0.1492 -0.5497  0.8406
   6623SM   C5S 8518   4.094   0.886  16.492  0.0139  0.5029 -0.3389
   6623SM   H5S 8519   4.057   0.984  16.527 -0.6576 -0.0689  0.5781
   6623SM   C6S 8520   4.103   0.871  16.343 -0.4964 -0.4578  0.1244
   6623SM   H6S 8521   4.197   0.912  16.299 -1.7508  3.3014  0.6372
   6623SM   H6T 8522   4.019   0.925  16.294 -1.0644 -0.6744  0.8503
   6623SM   C7S 8523   4.061   0.728  16.301 -0.0912  0.1453 -0.1632
   6623SM   H7S 8524   3.956   0.705  16.329 -0.6708  0.3466 -2.0324
   6623SM   H7T 8525   4.141   0.655  16.323 -0.6038 -0.1014  0.9451
   6623SM   C8S 8526   4.036   0.736  16.143 -0.7159  1.0991  0.7944
   6623SM   H8S 8527   4.127   0.779  16.097  0.0112 -0.4810  0.7017
   6623SM   H8T 8528   3.953   0.808  16.127 -2.5542 -0.9682  0.4619
   6623SM   C9S 8529   4.004   0.602  16.085 -0.2036  0.8267  0.4767
   6623SM   H9S 8530   3.939   0.537  16.148  1.1330 -1.5535 -0.4560
   6623SM   H9T 8531   4.104   0.553  16.082 -0.7110 -0.1592 -1.0981
   6623SM  C10S 8532   3.950   0.606  15.941 -0.1769  0.3654  0.1605
   6623SM  H10S 8533   4.025   0.666  15.886 -0.3992  0.5545  0.0595
   6623SM  H10T 8534   3.851   0.657  15.942  0.4194  1.6085 -0.7023
   6623SM  C11S 8535   3.952   0.461  15.887  0.4673 -0.0985 -0.8450
   6623SM  H11S 8536   3.890   0.401  15.957  0.1254 -1.1306 -1.9931
   6623SM  H11T 8537   4.055   0.420  15.894  1.5376  2.3887 -0.9474
   6623SM  C12S 8538   3.905   0.435  15.747  0.4939  0.3769  0.6119
   6623SM  H12S 8539   3.818   0.505  15.741  0.5413  0.6483  2.4127
   6623SM  H12T 8540   3.870   0.331  15.730 -0.9194  0.8569  0.4201
   6623SM  C13S 8541   4.004   0.479  15.637  0.1592 -0.3051  0.0304
   6623SM  H13S 8542   4.101   0.428  15.650  0.7508  0.6415 -0.6247
   6623SM  H13T 8543   4.017   0.589  15.649  1.9782 -0.6110  1.2984
   6623SM  C14S 8544   3.966   0.432  15.501  0.1757 -0.3158  0.2694
   6623SM  H14S 8545   4.019   0.500  15.431  2.2818 -0.2664  1.8125
   6623SM  H14T 8546   3.855   0.431  15.494  0.2073 -0.8880 -0.1885
   6623SM  C15S 8547   4.013   0.291  15.463 -0.5024 -0.3031  0.1035
   6623SM  H15S 8548   3.976   0.230  15.548  1.5514  0.0497  1.3086
   6623SM  H15T 8549   4.124   0.286  15.460 -0.4444  1.0617 -1.3677
   6623SM  C16S 8550   3.968   0.242  15.335  0.0956  0.4212  0.3269
   6623SM  H16S 8551   3.867   0.194  15.343  0.6474 -1.1168 -1.2811
   6623SM  H16T 8552   4.043   0.169  15.300 -1.0488  0.3288 -2.1183
   6623SM  C17S 8553   3.962   0.340  15.214  0.1729  0.0806 -0.1191
   6623SM  H17S 8554   4.043   0.417  15.210 -0.1198  0.6192  2.5756
   6623SM  H17T 8555   3.872   0.402  15.235  0.8823  1.2058 -0.2995
   6623SM  C18S 8556   3.938   0.272  15.076  0.0953 -0.0145  0.4020
   6623SM  H18S 8557   4.008   0.189  15.052 -0.8148 -1.1889  1.6391
   6623SM  H18T 8558   3.944   0.350  14.997 -2.3089  0.7284  0.8816
   6623SM  H18U 8559   3.841   0.219  15.069  0.9874 -2.0491  2.1882
   6623SM   C1F 8560   4.477   0.963  16.707 -0.1072 -0.3030 -0.4062
   6623SM    OF 8561   4.550   0.879  16.758 -0.5451 -0.4025  0.1705
   6623SM   C2F 8562   4.536   1.087  16.636  0.4908 -0.4259 -0.2821
   6623SM   H2F 8563   4.535   1.170  16.710 -0.9813 -0.3886 -0.3108
   6623SM   H2G 8564   4.467   1.115  16.553 -0.9932  1.8348  1.5861
   6623SM   C3F 8565   4.674   1.063  16.575  0.7550 -1.4348 -0.3288
   6623SM   H3F 8566   4.684   0.966  16.522  3.8268 -0.0726 -2.5407
   6623SM   H3G 8567   4.737   1.058  16.666 -0.2680  0.6863  0.5762
   6623SM   C4F 8568   4.723   1.173  16.472  0.2987  0.2426  0.4303
   6623SM   H4F 8569   4.834   1.176  16.472  0.4005 -1.0904  2.6687
   6623SM   H4G 8570   4.682   1.272  16.501 -0.5333  0.1799 -0.4750
   6623SM   C5F 8571   4.693   1.167  16.320 -0.6665 -0.2161  0.4342
   6623SM   H5F 8572   4.583   1.174  16.305 -0.5290 -2.1869 -2.2513
   6623SM   H5G 8573   4.723   1.066  16.285  1.3965 -0.1551  1.8983
   6623SM   C6F 8574   4.772   1.276  16.238  0.5246 -0.0524  0.3859
   6623SM   H6F 8575   4.879   1.262  16.262  0.4941 -0.5308  0.2544
   6623SM   H6G 8576   4.742   1.380  16.264 -0.2586  0.1173 -1.0748
   6623SM   C7F 8577   4.752   1.257  16.082 -0.2134  0.1164  0.2314
   6623SM   H7F 8578   4.730   1.149  16.066 -0.0861  0.1309 -0.0378
   6623SM   H7G 8579   4.842   1.282  16.022  0.1546 -3.8356 -1.1371
   6623SM   C8F 8580   4.634   1.343  16.050 -0.3357 -0.4109 -0.2380
   6623SM   H8F 8581   4.634   1.437  16.109  1.6174 -1.4408  1.5584
   6623SM   H8G 8582   4.537   1.294  16.072 -1.8605  2.0432 -1.0381
   6623SM   C9F 8583   4.638   1.386  15.900  0.6361 -0.4740  0.2093
   6623SM   H9F 8584   4.725   1.454  15.885 -0.0620  0.7551  1.4276
   6623SM   H9G 8585   4.552   1.451  15.873  1.1063  0.1108  0.1057
   6623SM  C10F 8586   4.636   1.281  15.789 -0.4145 -0.0049  0.3715
   6623SM  H10F 8587   4.555   1.210  15.817 -0.7556  0.8324  1.5934
   6623SM  H10G 8588   4.723   1.211  15.783 -0.0742  0.4794 -0.6161
   6623SM  C11F 8589   4.597   1.347  15.658 -0.4441 -0.2169 -0.2095
   6623SM  H11F 8590   4.665   1.434  15.645 -0.9644  0.0503 -1.2672
   6623SM  H11G 8591   4.496   1.392  15.665 -0.8100 -1.1809  1.2852
   6623SM  C12F 8592   4.617   1.251  15.540  0.5593 -0.4309 -0.2618
   6623SM  H12F 8593   4.543   1.169  15.547  0.0275  0.1406  1.8105
   6623SM  H12G 8594   4.710   1.194  15.561  0.1127 -1.1548 -0.2122
   6623SM  C13F 8595   4.618   1.314  15.404 -0.3437  0.5687  0.3869
   6623SM  H13F 8596   4.700   1.388  15.391 -0.0620  0.1241 -0.4538
   6623SM  H13G 8597   4.521   1.369  15.398 -1.2318 -0.9886  0.0592
   6623SM  C14F 8598   4.620   1.212  15.286  0.9275 -0.0249 -0.5254
   6623SM  H14F 8599   4.526   1.153  15.287  1.2466 -0.8313 -3.9404
   6623SM  H14G 8600   4.696   1.131  15.299 -0.9497 -1.6545  0.8406
   6623SM  C15F 8601   4.618   1.274  15.143 -0.2675 -0.0726 -0.2502
   6623SM  H15F 8602   4.703   1.343  15.125 -0.4961 -0.2579 -2.2811
   6623SM  H15G 8603   4.524   1.329  15.121  0.1916  0.1843 -1.6796
   6623SM  C16F 8604   4.635   1.168  15.031 -0.3441  0.2352 -1.3267
   6623SM  H16F 8605   4.574   1.076  15.048 -0.8083  0.4390 -1.8676
   6623SM  H16G 8606   4.742   1.137  15.038 -0.0127  1.7025  1.1418
   6623SM  C17F 8607   4.614   1.222  14.893  0.3024  0.6258  0.2061
   6623SM  H17F 8608   4.650   1.327  14.899 -0.0650  0.6823  2.5359
   6623SM  H17G 8609   4.503   1.224  14.881  0.3049 -0.4577 -0.1144
   6623SM  C18F 8610   4.676   1.135  14.786  0.4734 -0.0120 -0.9398
   6623SM  H18F 8611   4.785   1.155  14.797  0.5620 -1.3840  1.0305
   6623SM  H18G 8612   4.657   1.163  14.680  1.8920  3.2683 -0.4506
   6623SM  C19F 8613   4.646   0.982  14.795 -0.2344 -0.0321 -0.2052
   6623SM  H19F 8614   4.535   0.979  14.795 -0.5217  3.4799  2.8916
   6623SM  H19G 8615   4.677   0.941  14.894 -0.0877  2.9591  1.0932
   6623SM  C20F 8616   4.700   0.898  14.675  0.5026 -0.4557  0.2637
   6623SM  H20F 8617   4.811   0.894  14.680  0.9632  4.9939  3.8960
   6623SM  H20G 8618   4.676   0.960  14.587 -0.7300  0.7560  1.4063
   6623SM  C21F 8619   4.635   0.759  14.670 -0.1269  0.4968 -0.6162
   6623SM  H21F 8620   4.663   0.693  14.585  1.2514 -1.0461  0.9436
   6623SM  H21G 8621   4.525   0.772  14.679 -0.2189  1.5626 -2.7328
   6623SM  C22F 8622   4.668   0.672  14.792 -0.3166 -0.2119  0.1364
   6623SM  H22F 8623   4.633   0.718  14.887  0.5713  2.6859 -0.8533
   6623SM  H22G 8624   4.777   0.657  14.805 -0.5315 -0.6188  1.6229
   6623SM  C23F 8625   4.614   0.535  14.782  0.1357 -1.0601 -0.1530
   6623SM  H23F 8626   4.503   0.527  14.775 -0.2175  2.3990 -0.5296
   6623SM  H23G 8627   4.652   0.484  14.872 -0.0344 -1.1150 -0.1110
   6623SM  H23H 8628   4.642   0.482  14.689 -2.1559 -0.6761 -1.1517
   6723SM     N 8629   3.511   6.061  17.098 -0.4146  0.1680  0.4929
   6723SM   C15 8630   3.644   6.131  17.081  0.3516 -0.6131 -0.6137
   6723SM  H15A 8631   3.635   6.237  17.101  0.8752 -0.3978 -1.4717
   6723SM  H15B 8632   3.707   6.112  16.996  0.0063  0.5618 -1.1601
   6723SM  H15C 8633   3.701   6.099  17.167  0.1498  0.1177 -0.1933
   6723SM   C14 8634   3.467   6.074  17.239 -0.3044 -0.2346  0.0994
   6723SM  H14A 8635   3.370   6.028  17.254 -0.4680  0.3885  1.0486
   6723SM  H14B 8636   3.460   6.179  17.265  0.7299 -0.0265 -0.4130
   6723SM  H14C 8637   3.529   6.025  17.312 -2.1058 -1.8873  0.6166
   6723SM   C13 8638   3.411   6.133  17.014  0.2592 -0.3820  0.0673
   6723SM  H13A 8639   3.307   6.109  17.029  0.0155 -0.5348 -1.6302
   6723SM  H13B 8640   3.443   6.114  16.912  1.0583  0.8345  0.0784
   6723SM  H13C 8641   3.416   6.240  17.026 -2.6327 -0.0958 -0.4133
   6723SM   C12 8642   3.533   5.916  17.058  0.0919  0.0176 -0.4214
   6723SM  H12A 8643   3.439   5.866  17.072  0.0551 -0.1558 -1.2590
   6723SM  H12B 8644   3.619   5.871  17.105 -0.1135 -1.3433 -1.2864
   6723SM   C11 8645   3.555   5.906  16.902 -0.2052  0.2917  0.3526
   6723SM  H11A 8646   3.480   5.964  16.845  0.1676  1.2747  0.8399
   6723SM  H11B 8647   3.553   5.800  16.869  1.6291  0.6919 -1.2757
   6723SM     P 8648   3.814   5.887  16.889 -0.3328  0.0493  0.2152
   6723SM   O13 8649   3.924   5.967  16.830 -0.1497 -0.1898  0.2129
   6723SM   O14 8650   3.846   5.874  17.034  0.5128 -0.0269  0.0587
   6723SM   O11 8651   3.800   5.743  16.816  0.3174 -0.3822 -0.8391
   6723SM   O12 8652   3.680   5.960  16.862 -0.5047  0.5241 -0.3103
   6723SM   C1S 8653   3.772   5.753  16.678  0.2730  0.3863  0.2198
   6723SM   H1S 8654   3.841   5.818  16.621  0.2672 -0.0571 -0.2940
   6723SM   H1T 8655   3.670   5.796  16.665 -0.3051 -0.2933  2.0752
   6723SM    NF 8656   3.808   5.608  16.474  0.7830 -0.7310 -0.3500
   6723SM   HNF 8657   3.732   5.608  16.410  1.3269  1.4689 -1.0863
   6723SM   C2S 8658   3.775   5.609  16.615 -0.6499  0.3469 -0.3763
   6723SM   H2S 8659   3.853   5.540  16.656  0.0716  1.1624 -0.3395
   6723SM   C3S 8660   3.642   5.544  16.650 -0.3915  0.3961  0.0828
   6723SM   H3S 8661   3.558   5.594  16.596  0.0834 -0.3388 -1.3815
   6723SM    O3 8662   3.614   5.544  16.789  0.5907 -0.0678 -0.1947
   6723SM   HO3 8663   3.685   5.594  16.828  2.4510 -1.3054 -1.8239
   6723SM   C4S 8664   3.639   5.396  16.594 -0.7250 -0.5934 -0.0392
   6723SM   H4S 8665   3.713   5.329  16.640  1.6674  1.0181 -1.3328
   6723SM   C5S 8666   3.542   5.346  16.508  0.2253  0.4191  0.2710
   6723SM   H5S 8667   3.455   5.408  16.482 -0.9153 -1.2098  0.0134
   6723SM   C6S 8668   3.541   5.196  16.466 -0.1757 -0.1392  0.0187
   6723SM   H6S 8669   3.452   5.141  16.503  0.1486 -1.2496 -0.7864
   6723SM   H6T 8670   3.633   5.152  16.510 -0.1819  1.3238  1.5920
   6723SM   C7S 8671   3.552   5.167  16.315 -0.2791 -0.5214  0.1660
   6723SM   H7S 8672   3.451   5.177  16.272  0.1073  1.0722 -0.4365
   6723SM   H7T 8673   3.597   5.068  16.289  0.8720 -0.9793  3.3957
   6723SM   C8S 8674   3.636   5.277  16.239  0.9116  0.2171 -0.5296
   6723SM   H8S 8675   3.719   5.314  16.302  0.5389  1.6166 -0.8214
   6723SM   H8T 8676   3.566   5.362  16.222 -1.2354 -1.2287  0.6907
   6723SM   C9S 8677   3.693   5.220  16.109 -0.5416 -0.2198  0.0320
   6723SM   H9S 8678   3.594   5.208  16.059 -0.6324 -2.3283  0.6460
   6723SM   H9T 8679   3.746   5.123  16.113  2.1920  0.9912 -2.8414
   6723SM  C10S 8680   3.790   5.317  16.044 -0.1497 -0.3956  0.2803
   6723SM  H10S 8681   3.895   5.296  16.074  0.5170  0.2398 -1.4804
   6723SM  H10T 8682   3.771   5.418  16.088 -1.8823  0.3367 -1.9349
   6723SM  C11S 8683   3.778   5.331  15.893 -0.3624 -0.8820  0.2590
   6723SM  H11S 8684   3.848   5.410  15.858 -0.9538 -1.1463 -1.6801
   6723SM  H11T 8685   3.678   5.357  15.852  0.2181  0.4918 -0.3522
   6723SM  C12S 8686   3.807   5.204  15.820 -0.5556 -0.8096  0.1992
   6723SM  H12S 8687   3.758   5.119  15.873  0.6820 -2.2613 -0.8968
   6723SM  H12T 8688   3.916   5.181  15.829 -0.3397  0.1959  0.3252
   6723SM  C13S 8689   3.773   5.199  15.672 -1.1539  0.3636 -0.8673
   6723SM  H13S 8690   3.664   5.212  15.655 -1.2894 -0.6365 -0.8309
   6723SM  H13T 8691   3.808   5.099  15.637  2.7098  0.7266  1.4145
   6723SM  C14S 8692   3.861   5.303  15.597  0.4563  0.1064 -0.1966
   6723SM  H14S 8693   3.966   5.295  15.633 -0.4775  0.8655  3.0400
   6723SM  H14T 8694   3.822   5.399  15.638  1.1674 -0.9859  3.4261
   6723SM  C15S 8695   3.837   5.295  15.445  0.0452 -0.5857 -0.3540
   6723SM  H15S 8696   3.823   5.187  15.423  2.5822 -0.9118 -0.6494
   6723SM  H15T 8697   3.927   5.342  15.399  0.7281 -0.1785  1.3335
   6723SM  C16S 8698   3.723   5.396  15.401  0.7512  0.4095  0.7784
   6723SM  H16S 8699   3.757   5.502  15.412  0.7715  0.4273  0.5414
   6723SM  H16T 8700   3.641   5.391  15.476 -1.8855  0.5858 -1.9112
   6723SM  C17S 8701   3.671   5.374  15.258 -0.4226 -0.7459  0.2731
   6723SM  H17S 8702   3.569   5.416  15.243 -1.1023 -2.2022  0.5919
   6723SM  H17T 8703   3.672   5.264  15.247  2.5119 -0.5969 -2.4963
   6723SM  C18S 8704   3.753   5.451  15.157  0.1788  0.1827  0.0299
   6723SM  H18S 8705   3.719   5.433  15.053 -3.9506 -1.2285  1.4470
   6723SM  H18T 8706   3.857   5.417  15.177  0.4976  0.9646 -0.2859
   6723SM  H18U 8707   3.746   5.559  15.181  1.7453  0.4495 -0.5980
   6723SM   C1F 8708   3.932   5.637  16.425  0.1698 -0.1064 -0.4669
   6723SM    OF 8709   4.034   5.629  16.496  0.5277  0.1451  0.3354
   6723SM   C2F 8710   3.937   5.683  16.277 -0.4702  0.4183 -0.3872
   6723SM   H2F 8711   3.913   5.791  16.268 -1.0693  0.1540 -2.5189
   6723SM   H2G 8712   3.863   5.630  16.213 -0.5143  0.0560 -0.0418
   6723SM   C3F 8713   4.075   5.668  16.219  0.8152 -0.3193 -0.3010
   6723SM   H3F 8714   4.097   5.559  16.221 -1.5741 -0.8619 -0.4821
   6723SM   H3G 8715   4.146   5.731  16.278  1.6828  1.4000 -3.0181
   6723SM   C4F 8716   4.082   5.729  16.075  0.0092 -0.6156 -0.6924
   6723SM   H4F 8717   4.187   5.712  16.044  0.3925 -0.3918  0.4458
   6723SM   H4G 8718   4.050   5.835  16.084 -0.6311 -1.0157  3.0269
   6723SM   C5F 8719   3.986   5.654  15.982  0.2912 -0.7807  0.0243
   6723SM   H5F 8720   3.881   5.667  16.016  0.4099  0.2590  0.0503
   6723SM   H5G 8721   4.001   5.545  15.977 -2.3094 -1.1915 -0.3707
   6723SM   C6F 8722   3.986   5.723  15.841 -0.4335 -0.1143 -0.4920
   6723SM   H6F 8723   4.085   5.706  15.795 -0.1377  1.5094 -0.5174
   6723SM   H6G 8724   3.973   5.830  15.868  2.0008  0.4430 -1.3183
   6723SM   C7F 8725   3.859   5.703  15.749 -0.7923 -0.7491  0.5470
   6723SM   H7F 8726   3.777   5.707  15.824 -0.4731  0.8499  0.8404
   6723SM   H7G 8727   3.880   5.598  15.719  2.9848  0.7975 -3.1780
   6723SM   C8F 8728   3.839   5.785  15.620 -0.5238  0.6069  0.5391
   6723SM   H8F 8729   3.920   5.759  15.548  0.5461 -0.6109  2.1008
   6723SM   H8G 8730   3.840   5.893  15.646 -1.1991  1.2305 -1.7970
   6723SM   C9F 8731   3.707   5.739  15.551 -0.3780  0.0490 -0.3629
   6723SM   H9F 8732   3.618   5.760  15.614 -0.3005 -2.1328  0.5690
   6723SM   H9G 8733   3.710   5.628  15.540  0.3549 -0.1861  1.6489
   6723SM  C10F 8734   3.684   5.804  15.411 -0.9504 -0.1360  0.2901
   6723SM  H10F 8735   3.758   5.755  15.344 -1.4359  1.2867 -1.3269
   6723SM  H10G 8736   3.701   5.914  15.410 -1.7100 -0.0096 -1.7757
   6723SM  C11F 8737   3.547   5.755  15.367  0.3794 -0.6535 -0.0489
   6723SM  H11F 8738   3.470   5.807  15.428 -0.5904  0.0508 -1.7951
   6723SM  H11G 8739   3.545   5.645  15.351  2.1679 -0.3241 -3.3451
   6723SM  C12F 8740   3.523   5.822  15.224 -0.3989  0.8853  0.2827
   6723SM  H12F 8741   3.594   5.783  15.148 -0.0618  0.1196  0.9751
   6723SM  H12G 8742   3.543   5.930  15.240  1.3939  0.6190  0.0638
   6723SM  C13F 8743   3.388   5.783  15.168  0.5152  0.4820 -0.2803
   6723SM  H13F 8744   3.311   5.821  15.238  1.1670 -0.0645  0.7451
   6723SM  H13G 8745   3.375   5.673  15.162 -0.6935  0.5450  0.9512
   6723SM  C14F 8746   3.355   5.853  15.037  0.3054 -0.2540  0.7876
   6723SM  H14F 8747   3.251   5.822  15.013  1.2137 -2.6654 -0.3152
   6723SM  H14G 8748   3.425   5.810  14.962  0.6247 -1.6837  1.8582
   6723SM  C15F 8749   3.368   6.001  15.042  0.2692 -0.8945  0.3123
   6723SM  H15F 8750   3.474   6.031  15.026  0.1754  0.0626  1.3359
   6723SM  H15G 8751   3.335   6.026  15.146 -1.2515 -1.8240  0.0752
   6723SM  C16F 8752   3.275   6.072  14.942  0.1922 -0.6303  0.2293
   6723SM  H16F 8753   3.175   6.060  14.988 -0.7366  0.9081 -1.2868
   6723SM  H16G 8754   3.265   6.011  14.849 -1.2837 -0.0129 -0.0495
   6723SM  C17F 8755   3.303   6.224  14.918 -0.1771  0.0834 -0.2577
   6723SM  H17F 8756   3.403   6.237  14.871 -0.2418  0.1576 -0.3754
   6723SM  H17G 8757   3.309   6.279  15.014  1.6501  1.5736 -1.1686
   6723SM  C18F 8758   3.191   6.299  14.832 -0.7591  0.2290  0.1013
   6723SM  H18F 8759   3.102   6.289  14.897 -0.9305  2.6389  0.3187
   6723SM  H18G 8760   3.167   6.232  14.746 -1.3318  1.3595 -0.6435
   6723SM  C19F 8761   3.230   6.444  14.797 -0.0774  0.5015  0.0651
   6723SM  H19F 8762   3.322   6.456  14.735 -0.7950  0.6241 -1.0125
   6723SM  H19G 8763   3.239   6.508  14.886  1.3964  1.1769 -0.5406
   6723SM  C20F 8764   3.120   6.517  14.715 -0.5021  0.0670  0.3305
   6723SM  H20F 8765   3.135   6.627  14.714  1.0166 -0.1167 -0.0120
   6723SM  H20G 8766   3.026   6.492  14.768  0.4885 -0.3503  1.9607
   6723SM  C21F 8767   3.115   6.470  14.573 -0.7845  0.7924 -0.0671
   6723SM  H21F 8768   3.070   6.369  14.562  1.4055 -0.1031 -1.4078
   6723SM  H21G 8769   3.222   6.456  14.547 -0.3657 -0.1701  1.9873
   6723SM  C22F 8770   3.068   6.571  14.472 -1.0986 -0.5037  0.2958
   6723SM  H22F 8771   3.130   6.658  14.501  0.0945 -1.8965  2.1994
   6723SM  H22G 8772   2.963   6.594  14.500 -1.3794 -2.2867  0.8458
   6723SM  C23F 8773   3.084   6.533  14.323 -0.5615  0.4108 -0.3925
   6723SM  H23F 8774   3.181   6.486  14.298 -0.4441  0.4622 -0.0384
   6723SM  H23G 8775   3.062   6.617  14.253  0.8054  1.3232  0.2272
   6723SM  H23H 8776   3.009   6.454  14.303 -0.1085  0.2942 -1.6971
   6823SM     N 8777   3.852   1.327  17.540 -0.7524 -0.3873 -0.2356
   6823SM   C15 8778   3.724   1.286  17.593  0.1802 -0.1233 -0.2037
   6823SM  H15A 8779   3.660   1.231  17.525 -0.6746 -0.6154  0.9418
   6823SM  H15B 8780   3.664   1.370  17.626 -0.5506  0.0393 -1.8629
   6823SM  H15C 8781   3.738   1.221  17.678  0.8019 -1.8947 -1.5981
   6823SM   C14 8782   3.904   1.437  17.614  0.3475 -0.3652 -0.2824
   6823SM  H14A 8783   3.845   1.527  17.611  0.6511  0.0644  3.2672
   6823SM  H14B 8784   4.001   1.466  17.576  1.1212 -0.7588  1.2989
   6823SM  H14C 8785   3.925   1.410  17.716  0.3191  1.7868  0.3295
   6823SM   C13 8786   3.949   1.213  17.551 -0.0413  0.0080  0.7727
   6823SM  H13A 8787   4.042   1.253  17.510 -0.6139 -0.6766 -1.3265
   6823SM  H13B 8788   3.912   1.128  17.497 -0.1797  0.9635 -0.7014
   6823SM  H13C 8789   3.956   1.192  17.656  0.6039 -0.1834  0.6990
   6823SM   C12 8790   3.832   1.367  17.392 -0.3242 -0.2179 -0.3749
   6823SM  H12A 8791   3.920   1.421  17.361  0.4768  0.0163  2.1074
   6823SM  H12B 8792   3.748   1.434  17.388 -0.4608 -0.0940  2.3952
   6823SM   C11 8793   3.808   1.243  17.291  0.9357 -0.9541  1.1822
   6823SM  H11A 8794   3.775   1.292  17.197 -1.6141 -0.4525  2.2713
   6823SM  H11B 8795   3.719   1.189  17.330 -2.2821  2.0016 -1.4100
   6823SM     P 8796   4.014   1.219  17.141 -0.3464  0.0588 -0.1179
   6823SM   O13 8797   4.069   1.356  17.162  0.4534 -0.3762  0.2212
   6823SM   O14 8798   4.112   1.112  17.115 -0.7024  0.1456  0.2288
   6823SM   O11 8799   3.918   1.216  17.014  0.0188  0.1646  0.2136
   6823SM   O12 8800   3.927   1.167  17.267 -0.5220  0.2879 -0.2041
   6823SM   C1S 8801   3.944   1.282  16.899  1.0984 -1.0601  0.3068
   6823SM   H1S 8802   4.047   1.322  16.887  0.8017 -0.3248  0.1180
   6823SM   H1T 8803   3.891   1.380  16.899  2.0774 -0.4959  1.5743
   6823SM    NF 8804   3.960   1.261  16.658  0.0012 -0.1367  1.1160
   6823SM   HNF 8805   3.892   1.313  16.607  0.4435 -1.4655 -0.9554
   6823SM   C2S 8806   3.908   1.203  16.777 -0.0326  0.7210  0.4903
   6823SM   H2S 8807   3.963   1.106  16.784  1.9054  1.7058 -0.2579
   6823SM   C3S 8808   3.758   1.164  16.766 -0.0216  0.0108  0.3035
   6823SM   H3S 8809   3.700   1.258  16.754 -1.1191 -0.7622 -0.7436
   6823SM    O3 8810   3.712   1.105  16.882 -0.3712  0.1875  0.1033
   6823SM   HO3 8811   3.773   1.139  16.948 -0.1249  0.1637 -0.1103
   6823SM   C4S 8812   3.733   1.086  16.647  0.0729  0.2335 -0.7098
   6823SM   H4S 8813   3.798   0.998  16.638  0.4567  0.3153  0.9135
   6823SM   C5S 8814   3.661   1.120  16.544 -0.6608 -0.2605  0.1359
   6823SM   H5S 8815   3.599   1.211  16.546 -1.0828 -0.4694 -1.8491
   6823SM   C6S 8816   3.631   1.033  16.429  0.4049  0.7556  0.1210
   6823SM   H6S 8817   3.636   1.098  16.339 -2.3723 -1.8269 -2.1358
   6823SM   H6T 8818   3.525   0.999  16.422  1.1061 -1.6489  0.2344
   6823SM   C7S 8819   3.713   0.904  16.393  0.2247 -0.3291  0.3206
   6823SM   H7S 8820   3.702   0.828  16.473 -0.8933 -0.5045  0.0164
   6823SM   H7T 8821   3.821   0.925  16.382  0.0863  1.6274  2.1590
   6823SM   C8S 8822   3.663   0.836  16.260 -0.2932 -0.6861  0.3280
   6823SM   H8S 8823   3.565   0.787  16.280 -0.1031 -2.5705 -2.6027
   6823SM   H8T 8824   3.724   0.748  16.230  0.0419 -0.3020 -0.1317
   6823SM   C9S 8825   3.656   0.928  16.138 -0.5518 -0.3081  0.5874
   6823SM   H9S 8826   3.753   0.976  16.116 -0.3933 -1.8884 -2.8395
   6823SM   H9T 8827   3.583   1.010  16.152 -1.0531 -0.6659  0.1050
   6823SM  C10S 8828   3.609   0.851  16.016  0.0574  0.0146 -0.8061
   6823SM  H10S 8829   3.519   0.791  16.040  0.5917 -0.7212 -0.6388
   6823SM  H10T 8830   3.682   0.770  15.996 -0.7498 -1.1727  0.8664
   6823SM  C11S 8831   3.585   0.931  15.889  0.5078  0.8095  0.2988
   6823SM  H11S 8832   3.540   1.026  15.924 -0.4600  0.1171  1.0109
   6823SM  H11T 8833   3.515   0.865  15.833  1.0326 -0.0018  0.5781
   6823SM  C12S 8834   3.710   0.960  15.815 -0.5627  0.1774 -0.2977
   6823SM  H12S 8835   3.794   0.923  15.877  0.5655 -0.8251 -2.3102
   6823SM  H12T 8836   3.724   1.070  15.817 -0.9454  0.2286 -0.3072
   6823SM  C13S 8837   3.736   0.896  15.680 -0.3240  0.4943  0.2127
   6823SM  H13S 8838   3.667   0.939  15.605 -1.2602  0.4208  1.0052
   6823SM  H13T 8839   3.718   0.787  15.691  1.8077  0.2693  2.4230
   6823SM  C14S 8840   3.872   0.912  15.614 -0.8709 -0.4110  0.1784
   6823SM  H14S 8841   3.941   0.863  15.686  0.7331 -0.2879 -1.1987
   6823SM  H14T 8842   3.901   1.018  15.598  0.0315 -0.4983  1.1828
   6823SM  C15S 8843   3.903   0.831  15.485 -0.5692 -0.1534 -0.8747
   6823SM  H15S 8844   3.864   0.732  15.518  1.8219 -0.2153  2.2125
   6823SM  H15T 8845   4.012   0.831  15.463 -0.2329 -1.2104  0.6575
   6823SM  C16S 8846   3.837   0.877  15.356  0.0705  0.5060 -0.5918
   6823SM  H16S 8847   3.888   0.966  15.313  0.4147  0.2428 -0.7410
   6823SM  H16T 8848   3.732   0.894  15.389  0.2990 -0.7549  0.8697
   6823SM  C17S 8849   3.838   0.761  15.256  0.1681  0.2031  0.0457
   6823SM  H17S 8850   3.765   0.776  15.174  1.3115 -1.8989 -1.4280
   6823SM  H17T 8851   3.805   0.678  15.322  1.1250 -0.8708 -0.7848
   6823SM  C18S 8852   3.968   0.723  15.192 -0.6231 -0.0418 -0.7274
   6823SM  H18S 8853   4.004   0.808  15.130  2.0843  0.0580  0.8391
   6823SM  H18T 8854   3.954   0.631  15.132  1.8103 -0.8292 -0.1882
   6823SM  H18U 8855   4.051   0.710  15.264  1.2198  0.8294 -2.5728
   6823SM   C1F 8856   4.091   1.251  16.634  0.2066 -0.1982 -0.2794
   6823SM    OF 8857   4.156   1.171  16.698 -0.6035 -0.1813  0.1114
   6823SM   C2F 8858   4.134   1.333  16.519  0.1955 -0.6238 -0.3613
   6823SM   H2F 8859   4.070   1.423  16.521  0.5148 -0.4056  1.3433
   6823SM   H2G 8860   4.121   1.278  16.423 -1.3066 -0.3988 -0.2980
   6823SM   C3F 8861   4.278   1.384  16.545  0.7942 -0.2949 -0.6670
   6823SM   H3F 8862   4.357   1.306  16.549  1.9431  0.7890  3.9130
   6823SM   H3G 8863   4.291   1.432  16.644  0.6209  2.6601 -1.9709
   6823SM   C4F 8864   4.314   1.490  16.439  0.3840 -0.5844  0.5791
   6823SM   H4F 8865   4.329   1.444  16.339  2.0995 -0.8775  0.9301
   6823SM   H4G 8866   4.413   1.535  16.464 -0.1234  0.5458  0.5759
   6823SM   C5F 8867   4.212   1.600  16.423  0.2464  0.8426 -0.0269
   6823SM   H5F 8868   4.164   1.620  16.521 -1.2315 -0.6853 -0.3788
   6823SM   H5G 8869   4.123   1.565  16.365  0.7635 -1.8335  0.6585
   6823SM   C6F 8870   4.279   1.724  16.366  0.7437 -0.2640 -0.4887
   6823SM   H6F 8871   4.359   1.766  16.431 -1.2643  2.5579  0.3733
   6823SM   H6G 8872   4.193   1.795  16.368 -0.6202 -1.8109 -1.6507
   6823SM   C7F 8873   4.313   1.711  16.220  0.0346 -0.5619  0.3028
   6823SM   H7F 8874   4.229   1.649  16.181 -0.9084 -0.7316  2.4568
   6823SM   H7G 8875   4.396   1.644  16.188 -0.2264 -0.6748 -0.1549
   6823SM   C8F 8876   4.315   1.845  16.143  0.3993 -0.0032  1.0137
   6823SM   H8F 8877   4.399   1.903  16.188 -1.0047  1.7727  1.4684
   6823SM   H8G 8878   4.220   1.900  16.160 -0.6294 -1.4133  0.0947
   6823SM   C9F 8879   4.335   1.822  15.984  0.2164 -0.1141 -0.6636
   6823SM   H9F 8880   4.350   1.922  15.938  0.5169 -0.1141 -0.5681
   6823SM   H9G 8881   4.243   1.772  15.947 -0.4916  1.4860 -1.1929
   6823SM  C10F 8882   4.454   1.745  15.954 -0.2958 -0.0031  0.6449
   6823SM  H10F 8883   4.443   1.640  15.988  0.5434 -0.2956  0.0630
   6823SM  H10G 8884   4.543   1.784  16.007 -0.5676  0.7503  0.5449
   6823SM  C11F 8885   4.490   1.752  15.799 -0.1316  0.0893  0.2447
   6823SM  H11F 8886   4.590   1.706  15.787  0.8018  2.2988 -0.9826
   6823SM  H11G 8887   4.508   1.858  15.771 -1.2633  0.2991  0.2402
   6823SM  C12F 8888   4.395   1.670  15.718 -0.2752  0.4531 -0.5290
   6823SM  H12F 8889   4.292   1.711  15.713 -0.3231  0.7622  1.6947
   6823SM  H12G 8890   4.379   1.572  15.768 -0.4806  1.0336  0.5715
   6823SM  C13F 8891   4.425   1.660  15.566 -0.0930 -0.0873 -0.0801
   6823SM  H13F 8892   4.525   1.617  15.550  0.6495  0.9865  1.3848
   6823SM  H13G 8893   4.432   1.762  15.522  1.7211  0.6253  1.7097
   6823SM  C14F 8894   4.317   1.580  15.488 -0.2726  0.2523 -0.9062
   6823SM  H14F 8895   4.281   1.490  15.543  2.1035  1.7080  3.5696
   6823SM  H14G 8896   4.364   1.535  15.398 -1.5248 -2.1957 -0.4162
   6823SM  C15F 8897   4.187   1.662  15.453 -0.3107  0.2348  0.0729
   6823SM  H15F 8898   4.226   1.742  15.387 -0.9123  1.9284  1.6989
   6823SM  H15G 8899   4.147   1.719  15.540 -3.4156  0.5251 -1.4046
   6823SM  C16F 8900   4.081   1.578  15.373 -0.4639 -0.5247  0.3431
   6823SM  H16F 8901   4.027   1.502  15.434  0.0011 -0.1466  1.2313
   6823SM  H16G 8902   4.128   1.531  15.283 -1.0462  3.5253 -2.3235
   6823SM  C17F 8903   3.969   1.661  15.312  0.5655  0.2423  0.4992
   6823SM  H17F 8904   3.999   1.768  15.306  1.3655 -0.0306 -3.6703
   6823SM  H17G 8905   3.885   1.666  15.385 -0.1132  1.1704 -0.2994
   6823SM  C18F 8906   3.909   1.586  15.191 -0.4063 -0.0578 -0.9956
   6823SM  H18F 8907   3.866   1.491  15.229  0.1786 -0.7720 -2.0853
   6823SM  H18G 8908   3.990   1.552  15.124  0.5288 -0.3267  0.2302
   6823SM  C19F 8909   3.798   1.666  15.123 -0.2809 -0.4900 -0.3381
   6823SM  H19F 8910   3.832   1.764  15.081 -1.7454  0.2287  0.0789
   6823SM  H19G 8911   3.723   1.684  15.203 -1.3119 -2.9071 -0.6827
   6823SM  C20F 8912   3.732   1.579  15.015  0.2027  0.1794  0.1889
   6823SM  H20F 8913   3.694   1.486  15.062  0.8733  0.6156  1.6475
   6823SM  H20G 8914   3.813   1.548  14.946 -0.3205  0.3234 -0.5017
   6823SM  C21F 8915   3.631   1.662  14.935  0.0863 -0.0890 -0.3649
   6823SM  H21F 8916   3.665   1.767  14.929  1.2767 -0.4223  0.1968
   6823SM  H21G 8917   3.534   1.647  14.988  0.4143  0.7680  0.4988
   6823SM  C22F 8918   3.624   1.601  14.796 -0.1255 -0.7609 -0.0063
   6823SM  H22F 8919   3.608   1.491  14.794 -2.8500 -0.5167  2.1180
   6823SM  H22G 8920   3.724   1.608  14.750 -1.2752  0.5697 -2.4806
   6823SM  C23F 8921   3.527   1.672  14.704 -0.3661  0.0217  0.3224
   6823SM  H23F 8922   3.566   1.772  14.675  1.4379 -0.2669  1.5286
   6823SM  H23G 8923   3.433   1.691  14.759 -1.8067 -1.1860 -1.6028
   6823SM  H23H 8924   3.505   1.615  14.612  3.8096 -0.0206 -0.8639
   6923SM     N 8925   5.186   1.209  17.257  0.2091  0.6146 -0.5268
   6923SM   C15 8926   5.072   1.136  17.319 -0.2437 -0.2400 -0.0838
   6923SM  H15A 8927   5.050   1.035  17.286  1.6967 -0.6837 -0.1541
   6923SM  H15B 8928   4.982   1.193  17.300 -0.1407  0.0553  0.3196
   6923SM  H15C 8929   5.092   1.122  17.424  0.7766  1.1771 -0.0703
   6923SM   C14 8930   5.200   1.337  17.337 -0.4628 -0.0849  0.4459
   6923SM  H14A 8931   5.233   1.320  17.439 -2.3380 -0.2490  1.0693
   6923SM  H14B 8932   5.103   1.383  17.346 -0.4779 -0.1533  0.6556
   6923SM  H14C 8933   5.276   1.399  17.291 -0.4326 -1.2599 -1.1494
   6923SM   C13 8934   5.299   1.121  17.274 -0.3593 -0.8708  0.1085
   6923SM  H13A 8935   5.390   1.164  17.236 -0.9714  0.4049  0.0603
   6923SM  H13B 8936   5.285   1.028  17.221 -1.7135  0.5113 -2.1153
   6923SM  H13C 8937   5.298   1.100  17.380 -0.5422 -1.2176  0.0392
   6923SM   C12 8938   5.163   1.245  17.116 -0.1811 -0.4891  0.7007
   6923SM  H12A 8939   5.061   1.277  17.103  0.0023 -0.4028 -0.6400
   6923SM  H12B 8940   5.162   1.157  17.054  1.2311 -1.7312  2.3182
   6923SM   C11 8941   5.258   1.346  17.049  0.1823  0.3998 -0.4509
   6923SM  H11A 8942   5.233   1.450  17.081  0.6155 -0.1064  1.7193
   6923SM  H11B 8943   5.238   1.345  16.940 -1.0795 -0.2634 -0.2360
   6923SM     P 8944   5.505   1.435  17.089 -0.1961 -0.2805 -0.1089
   6923SM   O13 8945   5.490   1.492  17.224  0.6410 -0.1772  0.7534
   6923SM   O14 8946   5.632   1.385  17.048  0.0805 -0.2124 -0.1133
   6923SM   O11 8947   5.455   1.537  16.976 -0.5377  0.1609  0.0384
   6923SM   O12 8948   5.394   1.321  17.080 -0.4013  0.8347 -0.1358
   6923SM   C1S 8949   5.513   1.670  16.961 -0.4511 -1.3423  0.1674
   6923SM   H1S 8950   5.616   1.676  17.003 -1.2561 -0.9305  2.2076
   6923SM   H1T 8951   5.447   1.750  17.003 -0.0689 -0.2564 -1.2295
   6923SM    NF 8952   5.572   1.836  16.781 -0.3736  0.6895 -0.0083
   6923SM   HNF 8953   5.532   1.917  16.739  2.2809  2.1405  0.0155
   6923SM   C2S 8954   5.515   1.700  16.808  0.0951 -0.4975  0.0574
   6923SM   H2S 8955   5.580   1.625  16.758  2.3916  1.5687 -0.2440
   6923SM   C3S 8956   5.387   1.690  16.728  0.2950  0.2174 -0.2568
   6923SM   H3S 8957   5.333   1.784  16.750  0.3418 -0.3518  2.6146
   6923SM    O3 8958   5.298   1.587  16.767 -0.0498  0.2690  0.4440
   6923SM   HO3 8959   5.331   1.536  16.840 -0.4827  2.0472  1.9652
   6923SM   C4S 8960   5.417   1.683  16.574 -0.0028 -0.4052 -0.7153
   6923SM   H4S 8961   5.435   1.783  16.530  0.2980  0.2213  0.7744
   6923SM   C5S 8962   5.445   1.572  16.509  0.1518  0.1070  0.4222
   6923SM   H5S 8963   5.457   1.475  16.559  0.7218  0.4379  0.9415
   6923SM   C6S 8964   5.480   1.567  16.361 -0.0924  0.1596  0.3023
   6923SM   H6S 8965   5.585   1.533  16.349  0.2152  1.9758 -4.2918
   6923SM   H6T 8966   5.472   1.660  16.301 -0.7236 -0.6280 -0.8749
   6923SM   C7S 8967   5.394   1.467  16.279  0.2918 -0.9693 -0.1427
   6923SM   H7S 8968   5.294   1.514  16.273 -0.0119 -1.6819 -0.6558
   6923SM   H7T 8969   5.378   1.373  16.336 -0.3269  0.4288  2.1597
   6923SM   C8S 8970   5.455   1.421  16.145  0.9904  0.4115  0.3028
   6923SM   H8S 8971   5.389   1.338  16.113  2.1659 -0.4724  0.0984
   6923SM   H8T 8972   5.559   1.386  16.162  1.8710  3.1585  1.2763
   6923SM   C9S 8973   5.448   1.535  16.042  0.6492 -0.2708 -0.1032
   6923SM   H9S 8974   5.529   1.603  16.076  0.5868  0.7858 -1.9554
   6923SM   H9T 8975   5.350   1.585  16.028 -0.1278 -1.4725  0.7232
   6923SM  C10S 8976   5.472   1.486  15.901  0.5283  0.5266  0.1131
   6923SM  H10S 8977   5.443   1.565  15.829 -0.6359  0.8723  0.9280
   6923SM  H10T 8978   5.406   1.397  15.890  0.7790  0.5002 -1.2626
   6923SM  C11S 8979   5.614   1.446  15.875 -0.2694 -0.0177  0.0343
   6923SM  H11S 8980   5.635   1.369  15.952 -3.9552  0.8332  2.1692
   6923SM  H11T 8981   5.678   1.532  15.904  0.4324 -0.6853  0.5121
   6923SM  C12S 8982   5.632   1.393  15.730  0.6384  0.2986  0.1104
   6923SM  H12S 8983   5.565   1.305  15.720  2.6189 -1.0689 -2.3301
   6923SM  H12T 8984   5.733   1.350  15.713 -0.2491 -2.7894  2.0126
   6923SM  C13S 8985   5.610   1.505  15.623  0.6114  0.3463 -0.8816
   6923SM  H13S 8986   5.669   1.596  15.646  0.2048  0.9964 -2.3071
   6923SM  H13T 8987   5.502   1.531  15.623  0.3248 -0.4428  2.2306
   6923SM  C14S 8988   5.648   1.459  15.480 -0.2049 -0.5423 -0.0644
   6923SM  H14S 8989   5.755   1.430  15.489  0.7496  2.5004 -0.4560
   6923SM  H14T 8990   5.636   1.542  15.408 -0.1521 -1.2022 -0.8401
   6923SM  C15S 8991   5.572   1.340  15.435 -0.4022 -0.2076  0.9512
   6923SM  H15S 8992   5.461   1.335  15.440 -0.3952 -0.4944  0.8146
   6923SM  H15T 8993   5.582   1.260  15.512 -0.4792  0.9464  2.2045
   6923SM  C16S 8994   5.613   1.296  15.293 -0.4556  0.1341 -0.5509
   6923SM  H16S 8995   5.723   1.309  15.285 -0.0900 -0.9767  1.7370
   6923SM  H16T 8996   5.561   1.361  15.220  0.0588  2.4790  1.0609
   6923SM  C17S 8997   5.571   1.155  15.266  0.2661  0.4309 -0.3772
   6923SM  H17S 8998   5.607   1.086  15.346 -3.0928 -1.4297 -0.2631
   6923SM  H17T 8999   5.619   1.117  15.174  1.2910 -1.4773  0.8677
   6923SM  C18S 9000   5.419   1.139  15.259  0.3789 -0.5681 -0.2198
   6923SM  H18S 9001   5.370   1.135  15.358  0.5696  0.7415 -0.0470
   6923SM  H18T 9002   5.402   1.043  15.206  1.4818 -1.0845  0.3337
   6923SM  H18U 9003   5.363   1.217  15.203  1.4944 -0.5383 -1.3436
   6923SM   C1F 9004   5.702   1.856  16.803 -0.9735  0.3828  0.1342
   6923SM    OF 9005   5.770   1.769  16.861 -0.4578  0.3840  0.2073
   6923SM   C2F 9006   5.745   1.992  16.772 -0.3541 -0.7188  0.1922
   6923SM   H2F 9007   5.791   2.037  16.863 -0.3425  0.1785 -0.2478
   6923SM   H2G 9008   5.657   2.054  16.747 -1.5511 -1.4735  2.2760
   6923SM   C3F 9009   5.871   1.984  16.675  0.8858 -0.2592 -0.0080
   6923SM   H3F 9010   5.951   1.922  16.720 -0.1600 -1.8195 -0.2194
   6923SM   H3G 9011   5.915   2.085  16.664  2.0379 -0.5195  1.7673
   6923SM   C4F 9012   5.847   1.940  16.529  0.2034  0.2532 -0.4951
   6923SM   H4F 9013   5.846   1.830  16.537  2.5623  0.0613 -1.9057
   6923SM   H4G 9014   5.933   1.975  16.467  1.2650  1.1366  1.3861
   6923SM   C5F 9015   5.709   1.986  16.471 -0.9555 -0.1223 -0.5263
   6923SM   H5F 9016   5.704   2.097  16.479  0.0847 -0.0348 -0.9479
   6923SM   H5G 9017   5.623   1.940  16.524 -0.1498 -0.9955  0.0845
   6923SM   C6F 9018   5.703   1.947  16.319 -0.3774 -0.0324 -0.5097
   6923SM   H6F 9019   5.735   1.841  16.311 -2.1163 -0.5030 -1.6360
   6923SM   H6G 9020   5.777   2.002  16.256 -0.0122 -0.0477 -0.1015
   6923SM   C7F 9021   5.562   1.965  16.265  0.3064  0.2731 -0.3048
   6923SM   H7F 9022   5.525   2.069  16.279 -0.7415 -0.1175 -0.0428
   6923SM   H7G 9023   5.503   1.888  16.319 -0.4488  1.0253 -0.0283
   6923SM   C8F 9024   5.543   1.945  16.117  0.7889 -0.1460 -0.0884
   6923SM   H8F 9025   5.596   1.858  16.072 -0.2197 -0.0542 -1.5113
   6923SM   H8G 9026   5.573   2.044  16.078  0.7668  1.1304  2.8694
   6923SM   C9F 9027   5.394   1.929  16.077 -0.0714 -0.7202  0.2880
   6923SM   H9F 9028   5.336   1.997  16.143  0.1022  0.2177 -0.5087
   6923SM   H9G 9029   5.373   1.823  16.102  1.2225 -1.1778 -0.4498
   6923SM  C10F 9030   5.367   1.948  15.930 -0.9952 -0.7323 -0.0820
   6923SM  H10F 9031   5.387   2.055  15.905  0.3069 -1.3578 -1.9655
   6923SM  H10G 9032   5.264   1.927  15.892 -1.3623  2.3877 -1.1535
   6923SM  C11F 9033   5.474   1.881  15.836 -0.0575 -0.4504  0.1888
   6923SM  H11F 9034   5.484   1.773  15.863  1.3940 -0.4335 -0.1690
   6923SM  H11G 9035   5.577   1.922  15.847  0.9028 -2.7880  0.5697
   6923SM  C12F 9036   5.442   1.886  15.688 -0.1231  0.3719  0.8205
   6923SM  H12F 9037   5.367   1.813  15.649  0.6876  1.0991 -2.4378
   6923SM  H12G 9038   5.540   1.855  15.646 -0.5831 -0.8607  0.6342
   6923SM  C13F 9039   5.423   2.035  15.626 -0.1371  0.0450  0.2622
   6923SM  H13F 9040   5.513   2.095  15.652  0.5420 -0.1230 -1.5944
   6923SM  H13G 9041   5.339   2.084  15.679 -0.4611 -1.5924  1.3189
   6923SM  C14F 9042   5.395   2.038  15.475  0.0622 -0.0632 -0.0367
   6923SM  H14F 9043   5.485   2.005  15.418  0.3418  2.2964 -1.0950
   6923SM  H14G 9044   5.381   2.146  15.454 -0.8229 -0.0750  0.4594
   6923SM  C15F 9045   5.274   1.955  15.427  0.3963 -0.7070 -0.6457
   6923SM  H15F 9046   5.198   1.966  15.507  0.7592  1.3022 -0.5365
   6923SM  H15G 9047   5.296   1.846  15.422  1.2889 -0.5417 -0.5163
   6923SM  C16F 9048   5.217   2.001  15.295  0.7124  0.1553  0.2990
   6923SM  H16F 9049   5.168   2.101  15.302  0.1754 -0.1163  0.5096
   6923SM  H16G 9050   5.132   1.935  15.266 -0.9094  1.7108  1.2680
   6923SM  C17F 9051   5.310   2.004  15.169 -0.6533  0.6171 -1.1732
   6923SM  H17F 9052   5.372   1.913  15.161 -1.9458 -0.3264 -0.7950
   6923SM  H17G 9053   5.376   2.088  15.198  0.5759 -0.0271 -2.0499
   6923SM  C18F 9054   5.252   2.043  15.036  0.4664  0.0356 -0.1784
   6923SM  H18F 9055   5.320   2.108  14.977  2.3176  0.4616  2.2762
   6923SM  H18G 9056   5.158   2.099  15.053  0.1924 -0.5543  0.2869
   6923SM  C19F 9057   5.214   1.931  14.939  0.3399 -0.2961  0.0955
   6923SM  H19F 9058   5.126   1.884  14.988 -0.5106  1.8711  0.8215
   6923SM  H19G 9059   5.298   1.859  14.930  1.8228  1.2328  1.0459
   6923SM  C20F 9060   5.173   1.986  14.803  0.0642 -0.9103  0.2333
   6923SM  H20F 9061   5.264   2.013  14.746 -0.2057 -0.5935 -0.0574
   6923SM  H20G 9062   5.118   2.081  14.821  1.5533  0.0740 -0.2148
   6923SM  C21F 9063   5.091   1.886  14.726  1.4047 -0.6540 -0.3372
   6923SM  H21F 9064   4.987   1.865  14.756  2.0981 -0.4715  2.4978
   6923SM  H21G 9065   5.143   1.788  14.734  0.1532 -1.2179  1.7067
   6923SM  C22F 9066   5.077   1.923  14.576 -0.2734 -0.3489 -0.2283
   6923SM  H22F 9067   5.036   1.838  14.518  1.6141 -0.4691 -1.4697
   6923SM  H22G 9068   5.185   1.929  14.550  0.5025 -2.1503  2.2290
   6923SM  C23F 9069   4.997   2.051  14.533 -0.7910 -0.1894  0.9514
   6923SM  H23F 9070   4.997   2.059  14.422 -0.9744  1.6922  1.0589
   6923SM  H23G 9071   5.038   2.140  14.586  1.2302 -0.2280 -0.4364
   6923SM  H23H 9072   4.896   2.028  14.572 -1.7806  2.5577  0.2145
   7023SM     N 9073   4.691   0.953  17.130  0.2363 -0.1310  0.2229
   7023SM   C15 9074   4.812   0.882  17.094  0.0694  0.2503 -0.0002
   7023SM  H15A 9075   4.793   0.809  17.017 -2.7781  0.0755  0.7533
   7023SM  H15B 9076   4.842   0.829  17.183  0.4109  0.0389 -0.2414
   7023SM  H15C 9077   4.893   0.946  17.064  0.7600 -0.2768  0.7195
   7023SM   C14 9078   4.579   0.860  17.155  0.2879  0.2268  0.2893
   7023SM  H14A 9079   4.595   0.794  17.240  0.2757  1.0975  0.9854
   7023SM  H14B 9080   4.561   0.804  17.065 -0.8037  0.8835  0.0848
   7023SM  H14C 9081   4.487   0.914  17.168 -1.8869 -2.9143 -0.8538
   7023SM   C13 9082   4.717   1.019  17.259  0.0892 -0.5518  0.3977
   7023SM  H13A 9083   4.733   0.948  17.338  0.5683  0.2849  1.0622
   7023SM  H13B 9084   4.624   1.062  17.292  0.6102  0.1966  0.9032
   7023SM  H13C 9085   4.799   1.088  17.255 -0.1482 -0.3064 -1.0675
   7023SM   C12 9086   4.647   1.054  17.025  0.3110  0.6819  0.2838
   7023SM  H12A 9087   4.568   1.116  17.064  1.0020  1.0868  1.0738
   7023SM  H12B 9088   4.608   1.003  16.938 -2.5498  2.1963  0.5617
   7023SM   C11 9089   4.760   1.151  16.981 -0.2452 -0.3899  0.4330
   7023SM  H11A 9090   4.711   1.205  16.898  0.2616 -2.5892 -1.3771
   7023SM  H11B 9091   4.845   1.102  16.930  0.0354 -0.8368  1.3075
   7023SM     P 9092   4.773   1.391  17.069 -0.0091 -0.2815 -0.3975
   7023SM   O13 9093   4.626   1.407  17.070 -0.5296 -0.0979 -0.6553
   7023SM   O14 9094   4.855   1.478  17.159 -0.5596  0.4111  0.6481
   7023SM   O11 9095   4.820   1.431  16.922 -0.0590  0.5228 -0.1392
   7023SM   O12 9096   4.811   1.234  17.087  0.2819 -0.6401 -0.0939
   7023SM   C1S 9097   4.950   1.408  16.874 -0.4977  0.1420 -0.7368
   7023SM   H1S 9098   4.983   1.307  16.908 -2.1614 -0.2613 -0.2395
   7023SM   H1T 9099   5.022   1.483  16.914 -0.0937 -0.3364 -0.5524
   7023SM    NF 9100   5.081   1.368  16.677 -0.5250 -0.4952  0.2982
   7023SM   HNF 9101   5.154   1.435  16.665 -0.0325 -0.9161  0.8892
   7023SM   C2S 9102   4.949   1.412  16.719  0.0813  0.3445 -0.6231
   7023SM   H2S 9103   4.879   1.335  16.681  0.6736  0.4244 -1.9096
   7023SM   C3S 9104   4.915   1.551  16.655  0.2601  0.4333  0.3968
   7023SM   H3S 9105   4.993   1.629  16.671  1.2376 -0.4468  0.0774
   7023SM    O3 9106   4.797   1.612  16.705  0.0198  0.0759  0.0749
   7023SM   HO3 9107   4.777   1.555  16.779  0.9807  0.8442  0.9555
   7023SM   C4S 9108   4.914   1.552  16.501 -0.5263 -0.0104 -0.6718
   7023SM   H4S 9109   4.840   1.493  16.445  0.5266 -2.5162  0.4155
   7023SM   C5S 9110   5.004   1.625  16.423  0.2537 -0.4798 -0.6799
   7023SM   H5S 9111   5.089   1.673  16.473  0.2126 -2.8760  1.9285
   7023SM   C6S 9112   5.001   1.631  16.273  0.6847  0.1391 -0.3262
   7023SM   H6S 9113   4.896   1.610  16.243  0.0665  1.2625  0.9829
   7023SM   H6T 9114   5.067   1.546  16.244 -0.2220 -1.8452  2.8635
   7023SM   C7S 9115   5.053   1.766  16.212  0.0157 -0.6962  0.2041
   7023SM   H7S 9116   5.155   1.785  16.250 -0.1692  1.7527 -0.3690
   7023SM   H7T 9117   4.984   1.851  16.230  1.1301  0.5941 -1.4248
   7023SM   C8S 9118   5.062   1.757  16.063  0.0335 -0.2718  0.0575
   7023SM   H8S 9119   5.111   1.663  16.028  0.9508  0.0927  0.3527
   7023SM   H8T 9120   5.123   1.844  16.031 -1.2877  0.7411  0.2338
   7023SM   C9S 9121   4.928   1.746  15.999  0.0729  0.2190 -0.1289
   7023SM   H9S 9122   4.870   1.831  16.040 -1.9926 -1.6959  1.1062
   7023SM   H9T 9123   4.890   1.647  16.033  0.0977  0.0013 -0.7086
   7023SM  C10S 9124   4.932   1.744  15.841 -0.7976  0.1360 -0.6065
   7023SM  H10S 9125   5.002   1.816  15.793 -2.1122  0.5286 -2.0054
   7023SM  H10T 9126   4.833   1.759  15.792 -1.5761  2.8057  1.5188
   7023SM  C11S 9127   4.987   1.605  15.793  0.5413  0.1280 -0.9678
   7023SM  H11S 9128   4.940   1.518  15.844 -0.4401  0.6406 -0.9661
   7023SM  H11T 9129   5.097   1.609  15.808  0.3059  1.9562  0.7761
   7023SM  C12S 9130   4.959   1.588  15.634 -0.1464 -0.2029  0.4223
   7023SM  H12S 9131   4.890   1.661  15.586  0.8390 -0.5518 -1.6284
   7023SM  H12T 9132   4.912   1.488  15.623  1.0372 -0.6935 -0.3342
   7023SM  C13S 9133   5.087   1.573  15.555 -0.1423 -0.1650 -0.0437
   7023SM  H13S 9134   5.133   1.474  15.574  2.5768  0.8000 -1.1659
   7023SM  H13T 9135   5.166   1.642  15.589  2.9004 -3.9745  1.3981
   7023SM  C14S 9136   5.081   1.590  15.400 -0.0795  0.7802 -0.1058
   7023SM  H14S 9137   5.093   1.696  15.369  0.2414  0.4395 -1.1808
   7023SM  H14T 9138   4.974   1.572  15.381  0.2071 -3.0252  1.0667
   7023SM  C15S 9139   5.159   1.484  15.326 -0.7822 -0.0708 -0.6122
   7023SM  H15S 9140   5.118   1.483  15.223 -2.3061  0.4453 -0.0384
   7023SM  H15T 9141   5.139   1.387  15.376  2.5286 -0.0578  1.0221
   7023SM  C16S 9142   5.312   1.518  15.324  1.2951 -0.2250  0.0640
   7023SM  H16S 9143   5.361   1.425  15.290 -1.1496 -0.9862 -1.6723
   7023SM  H16T 9144   5.355   1.546  15.423  0.1231 -0.7556  0.7400
   7023SM  C17S 9145   5.340   1.630  15.221 -0.1454 -0.5623 -0.2605
   7023SM  H17S 9146   5.281   1.721  15.244 -0.5862 -0.9052 -0.0368
   7023SM  H17T 9147   5.307   1.589  15.123  1.3610  2.2664 -2.0933
   7023SM  C18S 9148   5.489   1.669  15.228  0.3316 -1.0552  0.0236
   7023SM  H18S 9149   5.540   1.573  15.204  1.0659 -0.8957  0.8728
   7023SM  H18T 9150   5.523   1.719  15.321 -0.4576 -0.1242 -0.1780
   7023SM  H18U 9151   5.524   1.730  15.143  0.1673  0.7961  1.2342
   7023SM   C1F 9152   5.104   1.240  16.658 -0.6076 -0.0310  0.3013
   7023SM    OF 9153   5.019   1.156  16.685  0.6637  0.1626 -0.4175
   7023SM   C2F 9154   5.249   1.204  16.614 -0.1638 -0.5779  0.4961
   7023SM   H2F 9155   5.305   1.152  16.694  1.2753 -0.9066 -0.6903
   7023SM   H2G 9156   5.302   1.301  16.600 -1.7054  0.1375 -0.7602
   7023SM   C3F 9157   5.258   1.106  16.489 -0.7312 -0.3011 -0.3504
   7023SM   H3F 9158   5.236   1.002  16.518 -1.0625 -0.3784 -0.8690
   7023SM   H3G 9159   5.362   1.105  16.448 -0.5936 -0.1663 -0.0066
   7023SM   C4F 9160   5.175   1.149  16.372  0.3594 -0.2435 -0.1213
   7023SM   H4F 9161   5.165   1.259  16.360 -1.4638 -0.2385  1.0054
   7023SM   H4G 9162   5.067   1.132  16.395  0.3386 -0.4854 -0.3904
   7023SM   C5F 9163   5.195   1.061  16.247  0.1569  0.8408  0.9348
   7023SM   H5F 9164   5.178   0.957  16.282 -0.5975  0.5458 -0.2497
   7023SM   H5G 9165   5.300   1.057  16.211 -0.2036 -1.6086 -0.0081
   7023SM   C6F 9166   5.097   1.094  16.125  0.5186 -0.0906 -0.0974
   7023SM   H6F 9167   5.097   1.204  16.110 -1.8016  0.0704  0.8128
   7023SM   H6G 9168   4.994   1.060  16.147 -0.2398  1.6202 -0.8300
   7023SM   C7F 9169   5.146   1.031  15.992  0.1076 -0.4029 -0.1863
   7023SM   H7F 9170   5.155   0.924  16.020  2.4378 -0.4065 -0.6587
   7023SM   H7G 9171   5.250   1.066  15.970  1.0207 -0.6223  3.2169
   7023SM   C8F 9172   5.041   1.044  15.876 -0.8377  0.2974  0.0100
   7023SM   H8F 9173   4.940   1.064  15.919 -1.4642 -2.0337 -0.2418
   7023SM   H8G 9174   5.040   0.947  15.821  1.7977  0.8043 -1.1003
   7023SM   C9F 9175   5.065   1.153  15.769  0.3092 -0.3480 -0.0512
   7023SM   H9F 9176   5.170   1.163  15.734  0.0224  3.8874 -0.2422
   7023SM   H9G 9177   5.027   1.251  15.805 -0.5619 -1.4898  2.4215
   7023SM  C10F 9178   4.992   1.127  15.631  0.3940  0.3290  0.2962
   7023SM  H10F 9179   4.949   1.224  15.597  1.8241  0.6910 -0.5480
   7023SM  H10G 9180   4.909   1.057  15.653 -1.7682  2.6557  0.0374
   7023SM  C11F 9181   5.075   1.072  15.516 -0.4194  0.6305  0.8436
   7023SM  H11F 9182   5.153   1.002  15.555 -1.2443  0.0967  1.5741
   7023SM  H11G 9183   5.135   1.152  15.467  1.8582 -1.9776 -0.9741
   7023SM  C12F 9184   4.989   0.994  15.405 -0.6310  0.1718  0.2443
   7023SM  H12F 9185   4.960   1.078  15.339  1.8561  1.0582  0.1737
   7023SM  H12G 9186   4.906   0.937  15.454  0.3254 -1.0945  0.4512
   7023SM  C13F 9187   5.067   0.889  15.314  0.8918 -0.5041  0.5168
   7023SM  H13F 9188   5.079   0.798  15.376 -0.1028 -0.1190  1.2826
   7023SM  H13G 9189   5.167   0.929  15.284  1.5275 -2.2739  0.1337
   7023SM  C14F 9190   4.989   0.851  15.188  0.1580 -0.4781  0.1076
   7023SM  H14F 9191   4.975   0.935  15.117 -0.0669 -1.7115 -1.3585
   7023SM  H14G 9192   4.886   0.813  15.205  0.1958 -0.7944 -0.3674
   7023SM  C15F 9193   5.054   0.735  15.104  0.1060  0.2569 -0.4657
   7023SM  H15F 9194   4.993   0.698  15.019 -0.6352 -1.4518  0.7482
   7023SM  H15G 9195   5.055   0.645  15.169  0.0113  1.0782  0.7030
   7023SM  C16F 9196   5.204   0.763  15.065  0.4451 -0.2374 -0.6494
   7023SM  H16F 9197   5.246   0.672  15.017  0.8547 -0.6929  0.5240
   7023SM  H16G 9198   5.266   0.783  15.155 -0.0077  3.0570 -0.9652
   7023SM  C17F 9199   5.217   0.883  14.978 -0.4989 -0.7220 -0.5731
   7023SM  H17F 9200   5.325   0.907  14.962 -0.5091 -1.4243 -1.8416
   7023SM  H17G 9201   5.195   0.972  15.040  0.5262  1.0461 -2.6105
   7023SM  C18F 9202   5.140   0.886  14.847 -0.2576  0.2369  0.3171
   7023SM  H18F 9203   5.119   0.989  14.814  2.2220  0.4328 -0.8469
   7023SM  H18G 9204   5.050   0.820  14.858  0.1605 -0.1228  1.8175
   7023SM  C19F 9205   5.221   0.810  14.742 -0.2764  0.3289  0.5732
   7023SM  H19F 9206   5.225   0.705  14.780  1.7115 -0.0818 -0.6344
   7023SM  H19G 9207   5.324   0.852  14.737  0.3823 -1.2087  0.6639
   7023SM  C20F 9208   5.160   0.815  14.605 -0.3031  0.1211  0.1989
   7023SM  H20F 9209   5.053   0.785  14.616  0.0220 -0.7142  1.2772
   7023SM  H20G 9210   5.199   0.733  14.541  0.0350  0.0119  0.5411
   7023SM  C21F 9211   5.184   0.949  14.525  0.6051  0.1316 -0.1203
   7023SM  H21F 9212   5.291   0.977  14.538  0.7168 -0.2436 -0.2213
   7023SM  H21G 9213   5.116   1.024  14.570 -0.0041 -0.7743  0.5060
   7023SM  C22F 9214   5.165   0.933  14.378 -0.0467  0.0671 -0.0378
   7023SM  H22F 9215   5.253   0.880  14.335 -0.1599  0.3144 -0.5884
   7023SM  H22G 9216   5.168   1.036  14.337  2.4577 -0.1340 -0.5152
   7023SM  C23F 9217   5.032   0.873  14.341  0.3820  0.3823  0.6901
   7023SM  H23F 9218   5.034   0.764  14.364 -0.8455  0.5709  1.8281
   7023SM  H23G 9219   5.011   0.892  14.234  1.7482 -0.8491  0.1638
   7023SM  H23H 9220   4.950   0.907  14.408  0.5539  0.4423  0.8733
   7123SM     N 9221   5.852   6.417  17.311  0.1073  0.3069 -0.1516
   7123SM   C15 9222   5.764   6.356  17.203 -0.6883 -0.0380  0.6394
   7123SM  H15A 9223   5.797   6.370  17.102  1.0608 -2.6786  0.7501
   7123SM  H15B 9224   5.665   6.398  17.210  0.3140  2.8773 -0.8819
   7123SM  H15C 9225   5.758   6.250  17.221  1.4769  0.0570  2.5002
   7123SM   C14 9226   5.788   6.396  17.447 -0.3016  0.2118  0.7261
   7123SM  H14A 9227   5.770   6.291  17.464  2.3094 -0.0082  2.6877
   7123SM  H14B 9228   5.702   6.456  17.471 -1.9646 -1.1501 -1.4812
   7123SM  H14C 9229   5.862   6.418  17.522 -1.6115  0.1630  2.0739
   7123SM   C13 9230   5.985   6.347  17.299 -0.1115 -0.4107  0.0994
   7123SM  H13A 9231   5.992   6.241  17.319  2.0707 -0.6606 -1.6248
   7123SM  H13B 9232   6.053   6.400  17.363 -2.5265 -0.4322  2.8888
   7123SM  H13C 9233   6.018   6.347  17.196 -0.4210 -2.1867 -0.0354
   7123SM   C12 9234   5.888   6.562  17.282 -0.1931  0.4060 -0.6956
   7123SM  H12A 9235   5.952   6.602  17.359 -0.7920  0.5437 -0.2617
   7123SM  H12B 9236   5.794   6.616  17.290  0.1894  1.2399 -1.5613
   7123SM   C11 9237   5.944   6.604  17.143 -0.0273  0.4073  0.1898
   7123SM  H11A 9238   6.029   6.540  17.112 -1.4034 -0.2075 -2.6527
   7123SM  H11B 9239   5.987   6.706  17.139 -0.8934  0.7492 -1.0546
   7123SM     P 9240   5.719   6.695  17.031  0.4083  0.0917  0.1599
   7123SM   O13 9241   5.618   6.640  17.124  0.2231 -1.1445  0.2615
   7123SM   O14 9242   5.763   6.839  17.039  0.1849  0.2715 -0.0341
   7123SM   O11 9243   5.677   6.658  16.887 -0.0939  0.1365 -0.1554
   7123SM   O12 9244   5.840   6.595  17.040  0.0129  0.6111 -0.1251
   7123SM   C1S 9245   5.537   6.657  16.847  0.2306 -0.0562  0.5019
   7123SM   H1S 9246   5.472   6.739  16.883  0.6768  0.4110  0.2607
   7123SM   H1T 9247   5.486   6.565  16.881  0.3578 -0.6165 -0.7765
   7123SM    NF 9248   5.421   6.725  16.645  0.3018 -0.4226 -1.0235
   7123SM   HNF 9249   5.354   6.658  16.613  3.5783 -3.3620 -2.5312
   7123SM   C2S 9250   5.538   6.660  16.696 -0.3832  0.4938 -0.4058
   7123SM   H2S 9251   5.626   6.723  16.670  2.5626 -3.0536  0.1132
   7123SM   C3S 9252   5.564   6.518  16.641 -0.1379 -0.4314  0.6900
   7123SM   H3S 9253   5.476   6.461  16.678 -0.2711 -0.5797  0.1458
   7123SM    O3 9254   5.682   6.457  16.696 -0.8117  0.8056  0.2449
   7123SM   HO3 9255   5.699   6.515  16.770  0.0458  0.2333  0.5021
   7123SM   C4S 9256   5.549   6.519  16.494 -0.0299 -0.0293 -0.5905
   7123SM   H4S 9257   5.450   6.491  16.455 -0.9856  0.9261  1.0354
   7123SM   C5S 9258   5.645   6.576  16.410 -0.3661 -0.4787  0.5740
   7123SM   H5S 9259   5.740   6.606  16.456  0.8370 -0.5860 -1.6964
   7123SM   C6S 9260   5.617   6.618  16.266 -0.2235 -0.6397 -0.0626
   7123SM   H6S 9261   5.572   6.719  16.266 -2.4301 -1.5731  0.0540
   7123SM   H6T 9262   5.545   6.550  16.217  0.4053 -0.9094 -0.6332
   7123SM   C7S 9263   5.746   6.613  16.184  0.5661  0.4693 -0.6854
   7123SM   H7S 9264   5.774   6.506  16.180 -1.0144  0.0530 -1.9685
   7123SM   H7T 9265   5.822   6.669  16.242 -0.5318 -1.9329  3.5394
   7123SM   C8S 9266   5.724   6.658  16.042  0.1862  0.2422 -0.7582
   7123SM   H8S 9267   5.680   6.760  16.043 -1.8858 -0.6129  0.4971
   7123SM   H8T 9268   5.649   6.592  15.994  0.3700 -0.0581 -0.6323
   7123SM   C9S 9269   5.854   6.657  15.955 -0.1298  0.1056 -0.6056
   7123SM   H9S 9270   5.919   6.568  15.971 -0.5599 -0.0486  0.3317
   7123SM   H9T 9271   5.906   6.752  15.980  0.8030 -0.9614  1.7860
   7123SM  C10S 9272   5.816   6.654  15.812 -0.3875 -0.0863  0.7344
   7123SM  H10S 9273   5.727   6.717  15.789  0.5690  1.5481  1.3027
   7123SM  H10T 9274   5.787   6.553  15.775 -0.2316  0.6327 -1.4884
   7123SM  C11S 9275   5.940   6.699  15.731 -0.1468  0.5542  0.0724
   7123SM  H11S 9276   6.012   6.616  15.742 -0.1911  0.6221  0.9676
   7123SM  H11T 9277   5.971   6.792  15.784  1.5683 -0.7338  1.4137
   7123SM  C12S 9278   5.919   6.733  15.580 -0.4958 -0.2735 -0.7573
   7123SM  H12S 9279   6.020   6.735  15.535 -1.3721  1.7367 -2.8025
   7123SM  H12T 9280   5.863   6.826  15.555  0.2491  0.1181 -0.9799
   7123SM  C13S 9281   5.840   6.618  15.512  0.1647  0.4757  0.1097
   7123SM  H13S 9282   5.738   6.608  15.555  0.8539 -2.1258  1.3587
   7123SM  H13T 9283   5.895   6.522  15.524 -1.0849 -0.4649 -1.2518
   7123SM  C14S 9284   5.817   6.642  15.367  0.3501 -0.2186  0.6194
   7123SM  H14S 9285   5.917   6.645  15.319 -0.4872  0.2260 -1.1894
   7123SM  H14T 9286   5.763   6.737  15.346  0.8278  0.2804  1.5529
   7123SM  C15S 9287   5.740   6.531  15.301  0.3856  0.0492 -0.8210
   7123SM  H15S 9288   5.710   6.555  15.197 -0.4506 -2.0479 -1.1230
   7123SM  H15T 9289   5.644   6.510  15.354 -1.4897  4.3326 -2.0870
   7123SM  C16S 9290   5.811   6.393  15.293 -0.3032  0.3954  0.1500
   7123SM  H16S 9291   5.750   6.302  15.278  1.9565 -1.9002  3.5973
   7123SM  H16T 9292   5.838   6.371  15.399 -1.2727 -2.6084 -0.1477
   7123SM  C17S 9293   5.933   6.389  15.195  0.2176 -0.0407  0.0190
   7123SM  H17S 9294   5.984   6.293  15.218  0.5852  0.3890  1.0551
   7123SM  H17T 9295   5.998   6.478  15.210 -0.4924  0.7440 -1.3820
   7123SM  C18S 9296   5.893   6.393  15.048 -1.3005  0.8528  0.0499
   7123SM  H18S 9297   5.849   6.491  15.018  0.7536  1.6943 -0.3312
   7123SM  H18T 9298   5.823   6.312  15.018 -2.3086  1.1544  1.4885
   7123SM  H18U 9299   5.983   6.373  14.987  0.5439  1.8266  2.3131
   7123SM   C1F 9300   5.387   6.852  16.637  0.2027  0.2077  0.8594
   7123SM    OF 9301   5.448   6.936  16.696  0.1786 -0.0946  0.2430
   7123SM   C2F 9302   5.260   6.877  16.569 -0.3215 -0.4800 -0.3089
   7123SM   H2F 9303   5.188   6.913  16.646 -0.5177  0.6209 -0.9794
   7123SM   H2G 9304   5.214   6.790  16.520 -1.6052  1.1584 -2.1601
   7123SM   C3F 9305   5.277   6.993  16.466  0.1419 -0.2914  0.5573
   7123SM   H3F 9306   5.325   7.086  16.506 -2.5086  1.6647 -0.5062
   7123SM   H3G 9307   5.175   7.017  16.428 -0.4225 -1.6951  1.1336
   7123SM   C4F 9308   5.360   6.949  16.350  0.2930 -0.4092 -0.6759
   7123SM   H4F 9309   5.460   6.917  16.384 -0.1162  0.6506  1.7685
   7123SM   H4G 9310   5.375   7.044  16.293  3.4980  1.1570  2.4267
   7123SM   C5F 9311   5.298   6.824  16.277  0.2484 -0.2761  0.0172
   7123SM   H5F 9312   5.188   6.842  16.273  0.7567  3.4120 -1.2638
   7123SM   H5G 9313   5.328   6.731  16.330  1.6761  0.8733  1.2849
   7123SM   C6F 9314   5.346   6.830  16.135 -0.3441 -0.2048  0.6579
   7123SM   H6F 9315   5.454   6.854  16.135 -0.3681 -0.0919  0.0451
   7123SM   H6G 9316   5.308   6.926  16.095  1.5977  0.8421  1.1916
   7123SM   C7F 9317   5.302   6.707  16.055 -0.0461  0.2267 -0.7380
   7123SM   H7F 9318   5.199   6.682  16.087  0.5859  0.1593  1.4869
   7123SM   H7G 9319   5.360   6.622  16.099 -1.4993 -0.2908  0.2657
   7123SM   C8F 9320   5.306   6.722  15.909 -0.0403  0.2227 -0.2642
   7123SM   H8F 9321   5.411   6.727  15.873 -0.5469  0.1049 -1.8787
   7123SM   H8G 9322   5.257   6.816  15.875 -2.4516 -0.9259 -0.1378
   7123SM   C9F 9323   5.232   6.616  15.832  0.4948  1.0130  0.2910
   7123SM   H9F 9324   5.130   6.616  15.875  0.5078  0.0367  0.3486
   7123SM   H9G 9325   5.267   6.513  15.857  1.6890  1.2582 -0.2688
   7123SM  C10F 9326   5.219   6.621  15.674  0.3083 -0.1675 -0.0924
   7123SM  H10F 9327   5.317   6.591  15.631  0.3983  3.2404 -2.6473
   7123SM  H10G 9328   5.206   6.727  15.643  0.9072 -0.6483 -2.1235
   7123SM  C11F 9329   5.106   6.539  15.606  0.0677 -0.3323 -0.2546
   7123SM  H11F 9330   5.011   6.571  15.653 -0.1289 -2.5988  1.0513
   7123SM  H11G 9331   5.111   6.428  15.611  1.1416 -0.2535  1.8863
   7123SM  C12F 9332   5.105   6.574  15.455  0.9475  0.1683  0.7737
   7123SM  H12F 9333   5.198   6.547  15.402 -0.1067  1.1036 -1.6856
   7123SM  H12G 9334   5.116   6.684  15.448 -0.5213  0.2989  0.0438
   7123SM  C13F 9335   4.974   6.537  15.374 -0.0371  0.0738 -0.6934
   7123SM  H13F 9336   4.985   6.569  15.269  2.4955  0.4280 -0.3786
   7123SM  H13G 9337   4.875   6.574  15.411 -0.8237 -2.7997  0.3887
   7123SM  C14F 9338   4.962   6.384  15.374 -0.6659 -0.5486 -0.2767
   7123SM  H14F 9339   4.947   6.340  15.475 -2.0477  1.0124  0.2415
   7123SM  H14G 9340   5.051   6.351  15.316 -0.6915  1.7089 -1.7140
   7123SM  C15F 9341   4.846   6.326  15.290  0.3726 -0.1712  0.5108
   7123SM  H15F 9342   4.745   6.348  15.331 -1.2549 -2.7601 -1.7651
   7123SM  H15G 9343   4.872   6.219  15.275  1.9694  0.6219 -3.6942
   7123SM  C16F 9344   4.837   6.378  15.145  0.1513  0.5033 -0.3504
   7123SM  H16F 9345   4.935   6.361  15.098 -1.0509 -2.9255 -1.9157
   7123SM  H16G 9346   4.819   6.488  15.144 -2.2181  0.1825  0.5619
   7123SM  C17F 9347   4.728   6.313  15.064  0.0714  0.4055 -0.1856
   7123SM  H17F 9348   4.644   6.288  15.131  0.3802 -1.2704 -0.3888
   7123SM  H17G 9349   4.751   6.213  15.020  0.3326  0.9037 -1.2290
   7123SM  C18F 9350   4.691   6.397  14.935 -0.3526 -0.3613 -0.1551
   7123SM  H18F 9351   4.778   6.390  14.866  1.1138  1.6529  1.3529
   7123SM  H18G 9352   4.685   6.502  14.972 -0.1899  0.3754 -2.0886
   7123SM  C19F 9353   4.567   6.337  14.854  0.6154 -0.1612 -0.2887
   7123SM  H19F 9354   4.552   6.227  14.863 -0.2196  0.0055  0.4866
   7123SM  H19G 9355   4.585   6.365  14.748  0.2452  0.3846 -0.2107
   7123SM  C20F 9356   4.436   6.408  14.886  0.3748 -0.3298 -0.6571
   7123SM  H20F 9357   4.414   6.389  14.994  1.4274 -0.2658 -0.4200
   7123SM  H20G 9358   4.350   6.362  14.834  0.5261  0.4294 -1.6054
   7123SM  C21F 9359   4.426   6.557  14.846  0.3139 -0.2189 -0.6361
   7123SM  H21F 9360   4.481   6.561  14.750  0.8768  0.2324 -0.3036
   7123SM  H21G 9361   4.479   6.628  14.913 -3.2218  1.4703  0.6255
   7123SM  C22F 9362   4.290   6.617  14.816 -0.6246 -0.1418  0.1661
   7123SM  H22F 9363   4.301   6.720  14.776 -0.5111 -0.7699 -1.5081
   7123SM  H22G 9364   4.237   6.622  14.914  1.4547  1.0263  1.2899
   7123SM  C23F 9365   4.193   6.554  14.709 -0.7444  0.4152  0.6108
   7123SM  H23F 9366   4.092   6.600  14.709 -0.6350  0.6685 -0.0218
   7123SM  H23G 9367   4.182   6.448  14.742  2.4255 -0.8674 -1.8770
   7123SM  H23H 9368   4.227   6.549  14.603  1.9690  1.3015  1.3639
   7223SM     N 9369   6.634   1.571  17.279 -0.4279 -0.7965  0.2737
   7223SM   C15 9370   6.693   1.440  17.312  0.1703  0.5372 -0.1904
   7223SM  H15A 9371   6.778   1.450  17.378 -0.0068 -1.5650  0.4278
   7223SM  H15B 9372   6.722   1.376  17.230  1.0592  0.0903  0.4581
   7223SM  H15C 9373   6.623   1.392  17.379  3.9121 -0.8124  3.1215
   7223SM   C14 9374   6.530   1.538  17.176 -0.7786  0.4015 -0.4197
   7223SM  H14A 9375   6.508   1.630  17.124  1.7504  1.5376  0.3822
   7223SM  H14B 9376   6.436   1.512  17.223  0.4220 -1.0049  1.3585
   7223SM  H14C 9377   6.554   1.459  17.108 -2.0457  0.5311 -1.0422
   7223SM   C13 9378   6.589   1.649  17.398  0.0595  0.6611 -0.1922
   7223SM  H13A 9379   6.676   1.663  17.460  1.0212  0.6143 -1.5018
   7223SM  H13B 9380   6.515   1.599  17.459  1.2086 -0.0444  0.6621
   7223SM  H13C 9381   6.554   1.749  17.377  0.9727  1.1933  0.7549
   7223SM   C12 9382   6.739   1.653  17.203 -0.2366  0.4187  0.1552
   7223SM  H12A 9383   6.709   1.753  17.176  0.3703  0.6673  0.3576
   7223SM  H12B 9384   6.761   1.596  17.114  0.2140  0.4896  0.2173
   7223SM   C11 9385   6.875   1.672  17.277  0.3375  0.1735 -0.3956
   7223SM  H11A 9386   6.922   1.572  17.290  0.8586  0.4714  0.0278
   7223SM  H11B 9387   6.872   1.731  17.372 -2.7877 -0.7151  0.1886
   7223SM     P 9388   6.946   1.891  17.161  0.1691 -0.0543 -0.3088
   7223SM   O13 9389   6.802   1.932  17.170 -0.3194 -0.1402 -0.2246
   7223SM   O14 9390   7.048   1.951  17.253 -1.0337 -0.0058 -0.6294
   7223SM   O11 9391   6.992   1.915  17.018  0.0156 -0.1440 -0.5144
   7223SM   O12 9392   6.961   1.741  17.183  0.6816 -0.3053  0.3568
   7223SM   C1S 9393   7.069   1.827  16.936 -0.6523  0.5868 -0.0332
   7223SM   H1S 9394   7.037   1.721  16.927  1.2039  0.1268 -2.1017
   7223SM   H1T 9395   7.177   1.819  16.958 -0.4051 -0.2902 -1.4381
   7223SM    NF 9396   7.113   1.759  16.699 -0.1248  0.7909 -0.0879
   7223SM   HNF 9397   7.208   1.771  16.673  0.2746 -0.0232  0.8825
   7223SM   C2S 9398   7.051   1.866  16.784  0.5614 -0.3143 -0.2383
   7223SM   H2S 9399   6.942   1.875  16.764  0.3667  0.7259  1.1245
   7223SM   C3S 9400   7.109   2.007  16.752 -0.4377 -0.0201  0.4825
   7223SM   H3S 9401   7.217   1.982  16.744 -0.0715  1.9155 -1.4985
   7223SM    O3 9402   7.098   2.100  16.860  0.5326  0.6431 -0.3169
   7223SM   HO3 9403   7.035   2.056  16.919  0.7333  1.4806  0.5559
   7223SM   C4S 9404   7.069   2.064  16.614 -0.0041 -0.1302  0.2151
   7223SM   H4S 9405   6.961   2.087  16.611  0.0469  0.5738  2.0613
   7223SM   C5S 9406   7.145   2.087  16.503  0.4293 -0.2720  0.4029
   7223SM   H5S 9407   7.254   2.078  16.505  0.5161  0.8336  1.2270
   7223SM   C6S 9408   7.084   2.146  16.380 -0.6864  0.8890  0.4851
   7223SM   H6S 9409   7.111   2.253  16.364 -1.8971  1.1798  0.3424
   7223SM   H6T 9410   6.974   2.149  16.391 -0.5743  0.9533  1.7317
   7223SM   C7S 9411   7.121   2.065  16.251  0.3009  0.3310 -0.1527
   7223SM   H7S 9412   7.077   1.964  16.256  1.4050 -0.1522  0.1183
   7223SM   H7T 9413   7.232   2.056  16.242  0.3015 -1.2489  0.9933
   7223SM   C8S 9414   7.064   2.123  16.121  0.4406 -0.1977  1.3888
   7223SM   H8S 9415   7.108   2.223  16.098  1.5372 -0.9615 -0.0214
   7223SM   H8T 9416   6.954   2.131  16.136 -0.2321  4.2069 -3.1114
   7223SM   C9S 9417   7.087   2.036  15.999 -0.0434 -0.2650 -0.5293
   7223SM   H9S 9418   7.062   1.929  16.018 -0.2049  0.1503  1.9056
   7223SM   H9T 9419   7.196   2.045  15.983 -0.2874  2.7106 -0.9248
   7223SM  C10S 9420   7.022   2.081  15.870 -0.0218 -0.3166 -0.6898
   7223SM  H10S 9421   7.073   2.172  15.834 -1.8446  0.6232 -1.0238
   7223SM  H10T 9422   6.914   2.097  15.892 -0.3034 -1.4023 -1.2192
   7223SM  C11S 9423   7.032   1.974  15.768 -0.1284 -0.1126  0.1391
   7223SM  H11S 9424   6.982   1.879  15.795 -0.9307 -0.4123 -2.1898
   7223SM  H11T 9425   7.139   1.948  15.759 -0.0527  0.1414  0.2764
   7223SM  C12S 9426   6.981   2.017  15.626 -0.5413  0.4222 -0.7179
   7223SM  H12S 9427   7.056   2.086  15.583  1.2046 -1.0416 -0.1814
   7223SM  H12T 9428   6.882   2.067  15.635 -1.4587 -0.8021 -3.1518
   7223SM  C13S 9429   6.978   1.890  15.542  0.1266 -0.0627  0.0865
   7223SM  H13S 9430   6.920   1.911  15.450  0.6586  0.9517 -0.0311
   7223SM  H13T 9431   6.913   1.815  15.592 -0.7661  1.2712  1.0178
   7223SM  C14S 9432   7.115   1.828  15.494 -0.0179 -0.0712  0.2574
   7223SM  H14S 9433   7.185   1.808  15.578  0.7876  1.1602 -0.1132
   7223SM  H14T 9434   7.157   1.906  15.428  0.1120 -0.5982 -0.2995
   7223SM  C15S 9435   7.098   1.699  15.409 -0.6869  0.0126  0.1656
   7223SM  H15S 9436   7.021   1.718  15.331 -0.8357  1.2867  0.5977
   7223SM  H15T 9437   7.057   1.614  15.468 -2.3869  1.0902  0.5987
   7223SM  C16S 9438   7.226   1.654  15.340  0.0871 -0.1041  0.2472
   7223SM  H16S 9439   7.291   1.598  15.412  0.4880 -0.2706 -0.2371
   7223SM  H16T 9440   7.284   1.738  15.297  1.2284 -0.9969 -0.0233
   7223SM  C17S 9441   7.198   1.547  15.232 -0.5491  0.6018 -0.0342
   7223SM  H17S 9442   7.129   1.578  15.151 -0.9485 -2.7195 -1.1036
   7223SM  H17T 9443   7.139   1.466  15.280  0.8986 -0.0013  0.8011
   7223SM  C18S 9444   7.329   1.484  15.172  0.1320  0.1354  0.4410
   7223SM  H18S 9445   7.407   1.444  15.240  1.7108  0.8378 -0.8892
   7223SM  H18T 9446   7.369   1.556  15.097  0.6946  0.0096  0.6161
   7223SM  H18U 9447   7.299   1.395  15.113  0.3882  0.8598 -0.8222
   7223SM   C1F 9448   7.046   1.651  16.662  0.2083  0.6701  0.2742
   7223SM    OF 9449   6.928   1.643  16.696  0.0853  0.6266  0.7035
   7223SM   C2F 9450   7.123   1.537  16.588  0.1906  0.7446  0.1725
   7223SM   H2F 9451   7.134   1.449  16.654  2.6815  0.4059 -0.5947
   7223SM   H2G 9452   7.230   1.562  16.575  0.5536 -0.4255  0.8246
   7223SM   C3F 9453   7.051   1.500  16.450  0.1233 -0.5623  0.0473
   7223SM   H3F 9454   6.957   1.458  16.490  0.5043 -0.8960  0.6145
   7223SM   H3G 9455   7.116   1.421  16.407  0.8131  0.2263 -0.3955
   7223SM   C4F 9456   7.052   1.619  16.353 -0.3987  0.6222 -0.1547
   7223SM   H4F 9457   7.159   1.637  16.328  0.0397 -1.6993 -0.1691
   7223SM   H4G 9458   7.002   1.708  16.396  0.7371  1.4861 -0.5745
   7223SM   C5F 9459   6.985   1.572  16.225  0.0262  0.2723 -0.6887
   7223SM   H5F 9460   6.885   1.530  16.246  1.1105 -2.4913 -0.6061
   7223SM   H5G 9461   7.040   1.479  16.196 -2.1416 -1.0979 -0.5873
   7223SM   C6F 9462   6.974   1.690  16.131 -0.0868 -0.0054  0.0900
   7223SM   H6F 9463   7.069   1.720  16.083 -1.8055  2.1780 -2.2030
   7223SM   H6G 9464   6.948   1.774  16.200 -0.5268 -0.9448  1.0995
   7223SM   C7F 9465   6.864   1.683  16.027  0.2686 -0.3791  0.3255
   7223SM   H7F 9466   6.872   1.776  15.967  1.2021 -0.1324  0.8112
   7223SM   H7G 9467   6.766   1.668  16.076  0.0067  1.7502  0.5474
   7223SM   C8F 9468   6.878   1.561  15.934 -0.4311 -0.5032  0.3904
   7223SM   H8F 9469   6.876   1.468  15.995  0.2930  1.0377  2.9300
   7223SM   H8G 9470   6.972   1.567  15.876 -2.0265  2.0368 -2.1956
   7223SM   C9F 9471   6.777   1.559  15.815 -0.3490  0.4844  0.1426
   7223SM   H9F 9472   6.758   1.659  15.769  2.3544  0.6710 -0.7259
   7223SM   H9G 9473   6.692   1.507  15.863  0.5824 -0.4685  0.7918
   7223SM  C10F 9474   6.827   1.466  15.695 -0.0557  0.7802 -0.1840
   7223SM  H10F 9475   6.878   1.377  15.737  2.0375  2.1463  0.2946
   7223SM  H10G 9476   6.896   1.513  15.622 -0.0551  0.3626 -0.4563
   7223SM  C11F 9477   6.699   1.437  15.604  0.0397 -0.1796 -0.3058
   7223SM  H11F 9478   6.623   1.410  15.681 -1.1077  2.6258 -0.3143
   7223SM  H11G 9479   6.713   1.359  15.527 -0.8429 -0.2525 -0.4062
   7223SM  C12F 9480   6.649   1.563  15.535  0.6275  0.0842 -0.8000
   7223SM  H12F 9481   6.628   1.647  15.604  1.7196  0.1887 -0.5851
   7223SM  H12G 9482   6.553   1.532  15.488  0.6077 -0.4650 -0.4107
   7223SM  C13F 9483   6.742   1.603  15.418  0.3494 -0.2496  0.0769
   7223SM  H13F 9484   6.837   1.636  15.467  0.9635 -2.5736  0.6194
   7223SM  H13G 9485   6.694   1.691  15.370  0.7112  0.5323  1.1088
   7223SM  C14F 9486   6.761   1.493  15.310  0.1473  0.1167  0.6897
   7223SM  H14F 9487   6.660   1.463  15.276  1.0091 -2.1689  0.0073
   7223SM  H14G 9488   6.827   1.417  15.356  1.2080  0.6242  0.0689
   7223SM  C15F 9489   6.838   1.539  15.181  0.2359  0.0142 -0.2248
   7223SM  H15F 9490   6.946   1.521  15.205  0.0578 -1.1094 -0.1979
   7223SM  H15G 9491   6.822   1.649  15.178 -0.7729 -0.0706  1.1500
   7223SM  C16F 9492   6.808   1.478  15.042 -0.8027  0.0337 -0.2110
   7223SM  H16F 9493   6.832   1.557  14.968 -1.0335  2.7765  2.4125
   7223SM  H16G 9494   6.702   1.444  15.043 -0.0425 -2.6019  1.4614
   7223SM  C17F 9495   6.889   1.351  15.027  0.3669 -0.0217  0.2378
   7223SM  H17F 9496   6.878   1.285  15.116  2.2491  1.1324  1.4124
   7223SM  H17G 9497   6.994   1.384  15.046  0.1966 -0.9337  3.2507
   7223SM  C18F 9498   6.869   1.284  14.894  0.4893  0.1179 -0.2979
   7223SM  H18F 9499   6.951   1.218  14.858  0.3371  1.0364 -2.5573
   7223SM  H18G 9500   6.867   1.366  14.818 -0.4448  1.0847  0.7365
   7223SM  C19F 9501   6.737   1.222  14.885  0.7646 -0.2974  0.4033
   7223SM  H19F 9502   6.660   1.301  14.871  0.0399 -1.2438 -1.3440
   7223SM  H19G 9503   6.719   1.167  14.980  0.5722 -0.9388  0.0079
   7223SM  C20F 9504   6.716   1.116  14.775 -0.1869  0.1588 -0.5024
   7223SM  H20F 9505   6.767   1.027  14.820 -2.6853 -0.7213  0.7646
   7223SM  H20G 9506   6.770   1.130  14.679  0.4260 -2.0494 -0.5452
   7223SM  C21F 9507   6.574   1.080  14.758  0.3320  1.0164  0.3395
   7223SM  H21F 9508   6.517   1.172  14.735  0.8395  1.2484 -0.0189
   7223SM  H21G 9509   6.534   1.049  14.856  1.2880 -1.2102  0.0979
   7223SM  C22F 9510   6.550   0.974  14.646  0.3383 -0.6862 -0.0776
   7223SM  H22F 9511   6.558   1.028  14.550  0.2040 -2.3815 -1.0833
   7223SM  H22G 9512   6.442   0.949  14.647  0.3449 -0.7557  1.1383
   7223SM  C23F 9513   6.646   0.855  14.646  0.1979  0.2676 -0.3000
   7223SM  H23F 9514   6.751   0.886  14.663  0.7392 -0.6784 -1.6852
   7223SM  H23G 9515   6.646   0.798  14.550  0.5222 -0.7966  0.3144
   7223SM  H23H 9516   6.617   0.789  14.731 -1.1275 -0.1746 -1.0742
   7323SM     N 9517   5.892   1.109  17.192 -0.6587 -0.6578 -0.3220
   7323SM   C15 9518   6.013   1.129  17.103 -0.4782 -0.7232 -0.5703
   7323SM  H15A 9519   6.016   1.222  17.048  2.2320 -1.5842 -2.0461
   7323SM  H15B 9520   6.011   1.049  17.030  1.0638 -0.7710 -0.5776
   7323SM  H15C 9521   6.109   1.124  17.150  0.7008 -1.1726 -2.8759
   7323SM   C14 9522   5.909   0.986  17.275  0.0194 -0.5464  0.0133
   7323SM  H14A 9523   5.906   0.894  17.218 -2.3205  0.8649 -2.3837
   7323SM  H14B 9524   5.822   0.974  17.338 -0.4262  0.8138 -0.3114
   7323SM  H14C 9525   5.998   0.991  17.336  0.3084 -3.7685  0.0329
   7323SM   C13 9526   5.894   1.227  17.295 -0.0495  0.1369  0.0860
   7323SM  H13A 9527   5.895   1.328  17.258  0.5781  0.3979  0.7978
   7323SM  H13B 9528   5.975   1.209  17.364  1.8120 -2.0343 -2.4498
   7323SM  H13C 9529   5.797   1.215  17.340  0.3676 -1.8635  0.5451
   7323SM   C12 9530   5.764   1.108  17.112  0.1722  0.4912  0.8982
   7323SM  H12A 9531   5.763   1.025  17.043 -0.6541  0.5236  0.8650
   7323SM  H12B 9532   5.754   1.194  17.048 -1.6701 -1.5621 -1.7556
   7323SM   C11 9533   5.624   1.088  17.188 -0.7687 -0.9249 -0.4039
   7323SM  H11A 9534   5.543   1.104  17.113 -2.8337  1.0423  2.0507
   7323SM  H11B 9535   5.618   1.181  17.248  0.7449  0.5841 -2.4412
   7323SM     P 9536   5.553   0.839  17.173  0.0313  0.1330 -0.2418
   7323SM   O13 9537   5.613   0.711  17.221  0.2578  0.1257 -0.4773
   7323SM   O14 9538   5.406   0.842  17.167 -0.2413 -0.2041 -0.2954
   7323SM   O11 9539   5.608   0.864  17.030  0.0901 -0.3923  0.5779
   7323SM   O12 9540   5.606   0.961  17.260 -0.9259  0.1471 -0.2634
   7323SM   C1S 9541   5.638   0.763  16.936 -0.4758 -0.2525 -0.4440
   7323SM   H1S 9542   5.564   0.682  16.955 -0.2676  0.1888  2.8467
   7323SM   H1T 9543   5.742   0.728  16.954  0.7193  2.9093 -0.7193
   7323SM    NF 9544   5.646   0.689  16.706  0.2486  0.6461  0.1407
   7323SM   HNF 9545   5.742   0.664  16.692 -0.6507 -4.0394  0.6640
   7323SM   C2S 9546   5.639   0.808  16.789  0.5370 -0.1311 -0.3103
   7323SM   H2S 9547   5.543   0.863  16.779  0.7707  0.5898  1.1577
   7323SM   C3S 9548   5.748   0.915  16.756  0.3379  0.1549  0.8588
   7323SM   H3S 9549   5.843   0.862  16.778  0.0388  0.6395  3.7181
   7323SM    O3 9550   5.752   1.032  16.842  0.1802 -0.3336 -0.0125
   7323SM   HO3 9551   5.672   1.031  16.895 -0.1050 -0.0031 -0.4303
   7323SM   C4S 9552   5.746   0.954  16.608  0.2724  0.6462 -0.6227
   7323SM   H4S 9553   5.816   0.911  16.535  2.1911  2.8600 -0.2110
   7323SM   C5S 9554   5.659   1.053  16.557 -0.8403  0.1773 -0.2305
   7323SM   H5S 9555   5.575   1.087  16.620 -0.9471  0.9258 -0.7653
   7323SM   C6S 9556   5.645   1.105  16.422  0.0744 -0.0218 -0.1397
   7323SM   H6S 9557   5.736   1.164  16.399  0.0597 -0.8370 -2.5904
   7323SM   H6T 9558   5.565   1.183  16.424  1.0587  0.9985  0.6027
   7323SM   C7S 9559   5.605   0.996  16.319 -0.2305 -0.7699 -0.3120
   7323SM   H7S 9560   5.496   0.977  16.318 -0.2744 -0.5296 -0.0619
   7323SM   H7T 9561   5.665   0.903  16.329 -0.2088 -0.7010  0.2010
   7323SM   C8S 9562   5.638   1.039  16.170 -0.2880 -0.2580  0.0369
   7323SM   H8S 9563   5.744   1.071  16.166  0.0405 -1.4647 -2.0437
   7323SM   H8T 9564   5.589   1.137  16.148  0.1943  0.2040  0.9324
   7323SM   C9S 9565   5.613   0.934  16.064  0.1620 -0.5672  0.3020
   7323SM   H9S 9566   5.534   0.857  16.080 -1.8982  0.9816 -1.8476
   7323SM   H9T 9567   5.711   0.888  16.038  0.0314  0.0420 -1.3684
   7323SM  C10S 9568   5.573   1.002  15.932 -0.6068 -0.0600  0.1978
   7323SM  H10S 9569   5.641   1.077  15.885 -1.4551 -0.3508 -1.6042
   7323SM  H10T 9570   5.475   1.049  15.957  0.2278  1.3915  0.8713
   7323SM  C11S 9571   5.551   0.899  15.821 -0.5951 -0.6689 -0.2423
   7323SM  H11S 9572   5.493   0.808  15.849  1.4070 -1.8495  0.2262
   7323SM  H11T 9573   5.651   0.864  15.789 -1.2742 -1.3843 -1.6807
   7323SM  C12S 9574   5.479   0.969  15.707 -0.4632 -0.2997  0.3303
   7323SM  H12S 9575   5.536   1.062  15.686 -1.1349 -0.0845 -0.5689
   7323SM  H12T 9576   5.370   0.985  15.720 -0.3189  0.9747  0.0606
   7323SM  C13S 9577   5.486   0.887  15.577 -0.7778 -0.1444 -0.1282
   7323SM  H13S 9578   5.588   0.856  15.549  0.2521  1.3624  1.6628
   7323SM  H13T 9579   5.442   0.945  15.493  2.8288  1.0285 -1.3901
   7323SM  C14S 9580   5.414   0.751  15.583 -0.5671 -0.3908  0.4190
   7323SM  H14S 9581   5.315   0.765  15.632 -0.2165 -0.3500  1.1289
   7323SM  H14T 9582   5.481   0.684  15.643  1.1279  0.8751  0.0123
   7323SM  C15S 9583   5.385   0.683  15.456  0.2607 -0.6054 -0.4399
   7323SM  H15S 9584   5.469   0.676  15.383 -2.1387 -0.2943 -3.4290
   7323SM  H15T 9585   5.301   0.743  15.416 -2.1531 -2.8120  1.0534
   7323SM  C16S 9586   5.333   0.543  15.474  0.2952 -0.8345  0.0624
   7323SM  H16S 9587   5.236   0.555  15.526  0.8304  2.4237  0.5290
   7323SM  H16T 9588   5.402   0.480  15.535 -0.5786 -1.0680  0.8256
   7323SM  C17S 9589   5.301   0.476  15.338 -0.2424 -0.4038 -0.1275
   7323SM  H17S 9590   5.248   0.558  15.285 -0.3945  0.8847  1.8819
   7323SM  H17T 9591   5.227   0.393  15.337 -1.5024  0.6590 -2.1390
   7323SM  C18S 9592   5.427   0.440  15.259 -0.2090  0.2138  0.1702
   7323SM  H18S 9593   5.486   0.529  15.230  0.2627 -0.2866 -0.4355
   7323SM  H18T 9594   5.394   0.390  15.166 -0.2186 -0.1772  0.3796
   7323SM  H18U 9595   5.474   0.370  15.332  0.3713 -0.9537 -1.2742
   7323SM   C1F 9596   5.541   0.610  16.686  0.9690 -0.3181 -0.8907
   7323SM    OF 9597   5.439   0.628  16.756  0.9586  0.1200 -0.5816
   7323SM   C2F 9598   5.560   0.504  16.586 -0.3319  0.5926 -0.0378
   7323SM   H2F 9599   5.568   0.406  16.638 -0.3903  0.5065 -0.1888
   7323SM   H2G 9600   5.657   0.506  16.532 -1.3377  0.1719 -1.9420
   7323SM   C3F 9601   5.451   0.487  16.474  0.4060  0.7091 -0.0164
   7323SM   H3F 9602   5.353   0.457  16.516  1.4515 -1.4616  1.0352
   7323SM   H3G 9603   5.476   0.414  16.395  0.3828  0.9986 -0.2938
   7323SM   C4F 9604   5.434   0.618  16.391 -0.3831  0.0540 -0.7347
   7323SM   H4F 9605   5.512   0.643  16.316 -1.7483  3.0983 -1.3300
   7323SM   H4G 9606   5.429   0.704  16.462  1.0475 -0.7672  0.3897
   7323SM   C5F 9607   5.303   0.632  16.314  0.5013  0.8364 -0.2817
   7323SM   H5F 9608   5.266   0.737  16.310 -2.1714 -0.0253 -0.2441
   7323SM   H5G 9609   5.224   0.574  16.367  0.3907 -2.8427 -3.9590
   7323SM   C6F 9610   5.319   0.600  16.170 -0.8015  0.3342 -0.1025
   7323SM   H6F 9611   5.325   0.490  16.157 -2.6259  0.0264  1.1954
   7323SM   H6G 9612   5.402   0.658  16.124 -2.0065  2.2444  0.0267
   7323SM   C7F 9613   5.190   0.638  16.091 -0.5485 -0.7943 -0.0863
   7323SM   H7F 9614   5.164   0.745  16.105  3.3723  0.1714  1.0717
   7323SM   H7G 9615   5.099   0.582  16.119 -0.0229 -1.3541  0.5558
   7323SM   C8F 9616   5.212   0.613  15.934 -0.3881  0.2246 -0.0524
   7323SM   H8F 9617   5.242   0.507  15.915  2.0104  0.9303 -0.5031
   7323SM   H8G 9618   5.293   0.678  15.895 -1.2316  1.7139  0.6084
   7323SM   C9F 9619   5.087   0.639  15.847  0.0890 -0.1124  0.5321
   7323SM   H9F 9620   5.118   0.663  15.743 -1.4047  0.4092  0.1822
   7323SM   H9G 9621   5.030   0.731  15.872 -0.0760 -0.0400 -0.0766
   7323SM  C10F 9622   4.983   0.534  15.833 -0.3069 -0.0820  0.7821
   7323SM  H10F 9623   4.916   0.539  15.922 -1.2041  1.8542  0.0560
   7323SM  H10G 9624   5.029   0.434  15.821  0.2759  0.2001  0.6489
   7323SM  C11F 9625   4.880   0.556  15.720 -0.1952  0.6426 -0.0729
   7323SM  H11F 9626   4.839   0.658  15.733 -0.7709  0.2739  1.1491
   7323SM  H11G 9627   4.799   0.482  15.737  0.0056  0.8051  1.7440
   7323SM  C12F 9628   4.941   0.532  15.581  0.1861 -0.4200 -0.6245
   7323SM  H12F 9629   4.989   0.432  15.582  1.3149  0.0980  0.1297
   7323SM  H12G 9630   5.023   0.605  15.561  0.7851 -0.9105 -0.0115
   7323SM  C13F 9631   4.842   0.557  15.466 -0.7425  0.8303 -0.5034
   7323SM  H13F 9632   4.812   0.664  15.461 -0.0760  1.0270 -0.3546
   7323SM  H13G 9633   4.754   0.492  15.488 -0.7522  0.7907 -0.6583
   7323SM  C14F 9634   4.893   0.480  15.338  0.0048  0.2825 -0.2096
   7323SM  H14F 9635   4.997   0.514  15.322 -0.4200  1.1101 -1.3306
   7323SM  H14G 9636   4.831   0.520  15.255  0.5941  0.0067 -0.7954
   7323SM  C15F 9637   4.903   0.328  15.342  0.3221  0.1596 -0.1695
   7323SM  H15F 9638   4.826   0.278  15.405  0.2582  0.7667  0.2455
   7323SM  H15G 9639   4.999   0.297  15.387  0.3992  0.1858 -0.3147
   7323SM  C16F 9640   4.895   0.260  15.210 -0.6408 -0.3828  0.0577
   7323SM  H16F 9641   4.794   0.273  15.166  0.0329 -1.6158 -2.0157
   7323SM  H16G 9642   4.879   0.151  15.220 -2.6905 -0.0430  1.1140
   7323SM  C17F 9643   5.001   0.293  15.098  0.3536 -0.7988  0.4444
   7323SM  H17F 9644   5.103   0.270  15.134  2.0890  1.4330 -2.5582
   7323SM  H17G 9645   4.995   0.403  15.080  0.0352 -0.6958  1.1644
   7323SM  C18F 9646   4.967   0.240  14.963  0.3803  0.4331 -0.2569
   7323SM  H18F 9647   5.001   0.317  14.891  0.7694  0.4592 -0.0518
   7323SM  H18G 9648   4.858   0.222  14.960  0.5737 -0.9863  0.3225
   7323SM  C19F 9649   5.038   0.107  14.932 -0.9787 -0.2798  0.0545
   7323SM  H19F 9650   4.997   0.064  14.839  1.5140  1.7767 -2.1342
   7323SM  H19G 9651   5.030   0.039  15.020 -0.6925 -0.4923 -0.0810
   7323SM  C20F 9652   5.189   0.137  14.892 -0.0445 -0.0513  0.1741
   7323SM  H20F 9653   5.255   0.070  14.951 -1.1851 -2.1724 -0.8707
   7323SM  H20G 9654   5.214   0.239  14.930  1.3769 -1.2720  2.7918
   7323SM  C21F 9655   5.216   0.118  14.737  0.2103  0.2345  0.0474
   7323SM  H21F 9656   5.162   0.030  14.697 -0.7490  0.1596  1.4157
   7323SM  H21G 9657   5.322   0.092  14.716  0.6902  1.5045  0.7659
   7323SM  C22F 9658   5.175   0.245  14.667  0.5565 -0.7551 -0.1943
   7323SM  H22F 9659   5.069   0.273  14.682  0.5885  0.5891 -2.2162
   7323SM  H22G 9660   5.169   0.218  14.560  1.9952 -0.3653 -0.3957
   7323SM  C23F 9661   5.269   0.366  14.681  0.1597 -0.4232 -0.5213
   7323SM  H23F 9662   5.340   0.363  14.596  0.0092  3.8581 -1.0449
   7323SM  H23G 9663   5.307   0.390  14.782 -0.3210  0.4771 -0.5365
   7323SM  H23H 9664   5.203   0.452  14.655 -1.6328 -2.2173 -2.3549
   7423SM     N 9665   0.183   3.788  16.839 -0.2466 -0.1411 -0.5377
   7423SM   C15 9666   0.310   3.836  16.910  0.2690 -0.7199  0.7962
   7423SM  H15A 9667   0.278   3.920  16.970  0.3911 -0.5089  0.5654
   7423SM  H15B 9668   0.390   3.869  16.847 -0.4476 -0.8566 -0.2038
   7423SM  H15C 9669   0.348   3.759  16.976 -1.6521 -0.2220  2.5858
   7423SM   C14 9670   0.218   3.664  16.767 -0.0070  0.0022 -0.1411
   7423SM  H14A 9671   0.132   3.632  16.710  0.1276  1.4209 -1.1960
   7423SM  H14B 9672   0.263   3.588  16.828 -2.2414 -2.8946 -1.8339
   7423SM  H14C 9673   0.290   3.689  16.690  1.0464 -2.0838  0.0949
   7423SM   C13 9674   0.077   3.763  16.945 -0.0828  0.6321  0.0923
   7423SM  H13A 9675  -0.001   3.700  16.905  1.3344 -1.1452 -0.0281
   7423SM  H13B 9676   0.038   3.860  16.972  1.5493  1.5313 -0.6179
   7423SM  H13C 9677   0.122   3.716  17.031  0.6883 -0.1571 -0.7258
   7423SM   C12 9678   0.133   3.890  16.733  0.0641  0.2754  0.3136
   7423SM  H12A 9679   0.059   3.842  16.670  1.3255  0.0798 -1.1051
   7423SM  H12B 9680   0.208   3.917  16.659 -1.0835  1.3254 -0.5118
   7423SM   C11 9681   0.073   4.033  16.771  0.0584  0.5016  0.2144
   7423SM  H11A 9682  -0.004   4.028  16.851  1.9980  0.1780  2.1551
   7423SM  H11B 9683   0.022   4.069  16.679  1.4192 -0.1988 -0.8401
   7423SM     P 9684   0.299   4.153  16.721 -0.0069 -0.4300 -0.0354
   7423SM   O13 9685   0.320   4.301  16.716  0.1253  0.3707 -0.5695
   7423SM   O14 9686   0.419   4.071  16.759  0.4725  0.2223  0.1713
   7423SM   O11 9687   0.248   4.099  16.582 -0.0645  0.5622 -0.3246
   7423SM   O12 9688   0.172   4.135  16.820  0.5496  0.6657 -0.0620
   7423SM   C1S 9689   0.215   4.198  16.485  0.6104  0.0648  0.4633
   7423SM   H1S 9690   0.288   4.281  16.483  0.3491  0.2965  0.5088
   7423SM   H1T 9691   0.121   4.253  16.508 -0.0363 -0.3374 -1.0756
   7423SM    NF 9692   0.179   4.243  16.244  0.1687 -0.2478 -0.2143
   7423SM   HNF 9693   0.093   4.239  16.193 -0.2700 -2.7010  0.5962
   7423SM   C2S 9694   0.188   4.140  16.341 -0.5941  0.5038  0.5016
   7423SM   H2S 9695   0.285   4.092  16.313 -0.1377  1.8402 -0.2993
   7423SM   C3S 9696   0.068   4.034  16.349  0.3968  0.0807  0.0990
   7423SM   H3S 9697  -0.013   4.078  16.411  2.2799  2.2256  1.1813
   7423SM    O3 9698   0.103   3.913  16.418 -0.4768  0.0359 -0.0476
   7423SM   HO3 9699   0.194   3.922  16.447 -0.2847  0.4222 -0.7201
   7423SM   C4S 9700   0.022   4.006  16.208  0.5947  0.5476 -0.2047
   7423SM   H4S 9701  -0.050   4.079  16.169 -0.3016  0.2049  0.7516
   7423SM   C5S 9702   0.072   3.909  16.130 -0.5914 -0.9733  0.7815
   7423SM   H5S 9703   0.155   3.851  16.172 -0.3318 -1.5252 -0.4343
   7423SM   C6S 9704   0.042   3.890  15.985  0.3118 -0.0886 -0.1921
   7423SM   H6S 9705   0.124   3.833  15.936  0.9968  0.3670  0.3973
   7423SM   H6T 9706   0.024   3.989  15.937 -0.0156  1.4719  2.8530
   7423SM   C7S 9707  -0.074   3.801  15.970 -0.6033 -0.0585  0.1917
   7423SM   H7S 9708  -0.159   3.862  16.006 -0.5375  1.5708 -2.2091
   7423SM   H7T 9709  -0.068   3.706  16.028  1.0639 -0.4163 -0.5044
   7423SM   C8S 9710  -0.098   3.768  15.824  0.1992 -0.8813  0.0982
   7423SM   H8S 9711  -0.007   3.721  15.782 -0.2856 -1.1697 -0.6520
   7423SM   H8T 9712  -0.120   3.856  15.760  0.9552 -0.9617 -0.2789
   7423SM   C9S 9713  -0.211   3.668  15.806  0.9535  0.1841  0.8020
   7423SM   H9S 9714  -0.170   3.581  15.861 -0.1658 -1.4329 -0.7914
   7423SM   H9T 9715  -0.226   3.641  15.699  2.5589 -0.4384  0.7134
   7423SM  C10S 9716  -0.353   3.709  15.874 -0.4402  1.0335  0.1099
   7423SM  H10S 9717  -0.337   3.787  15.952 -2.0774  1.6809 -0.1556
   7423SM  H10T 9718  -0.388   3.619  15.928  2.8877  0.7236  2.0542
   7423SM  C11S 9719  -0.449   3.759  15.761 -0.0503  0.5011  0.3088
   7423SM  H11S 9720  -0.446   3.687  15.677  1.1927  0.9960 -0.0861
   7423SM  H11T 9721  -0.410   3.854  15.719  1.0752  0.0711  0.3618
   7423SM  C12S 9722  -0.584   3.769  15.835  0.4113  0.0917 -0.0351
   7423SM  H12S 9723  -0.571   3.825  15.930  1.7718  0.4217 -0.3998
   7423SM  H12T 9724  -0.623   3.669  15.863  1.5484  0.0716  1.6068
   7423SM  C13S 9725  -0.682   3.849  15.745 -0.3116  0.2749 -0.4604
   7423SM  H13S 9726  -0.632   3.937  15.700 -1.9631  0.7868 -1.3628
   7423SM  H13T 9727  -0.754   3.891  15.819  1.9888  0.0677  2.0872
   7423SM  C14S 9728  -0.760   3.777  15.641 -0.0958  0.6487  0.3827
   7423SM  H14S 9729  -0.786   3.677  15.683  1.3714  0.7155  1.5493
   7423SM  H14T 9730  -0.696   3.745  15.556 -0.0403  0.6489  0.4237
   7423SM  C15S 9731  -0.887   3.852  15.586 -0.8390  0.0916 -0.6647
   7423SM  H15S 9732  -0.915   3.921  15.668  1.2266 -2.3139  2.2990
   7423SM  H15T 9733  -0.976   3.785  15.575 -0.7289 -0.3142  0.7954
   7423SM  C16S 9734  -0.867   3.914  15.451 -0.1362  0.4937  0.7873
   7423SM  H16S 9735  -0.821   3.846  15.376  0.2496  0.8369  0.7057
   7423SM  H16T 9736  -0.785   3.986  15.474  2.4918 -2.5320  1.7948
   7423SM  C17S 9737  -0.997   3.978  15.388 -0.1106 -0.5319 -0.5220
   7423SM  H17S 9738  -1.045   4.056  15.451 -0.8469 -0.3286 -1.3264
   7423SM  H17T 9739  -1.074   3.899  15.374 -1.1645 -0.3387  3.0990
   7423SM  C18S 9740  -0.962   4.033  15.252 -1.2316 -0.3062  0.2624
   7423SM  H18S 9741  -0.898   4.124  15.253 -0.7202 -0.6583  0.9925
   7423SM  H18T 9742  -1.053   4.066  15.198  0.7208 -0.0011 -3.0906
   7423SM  H18U 9743  -0.906   3.955  15.195  0.8325 -0.9568  2.9570
   7423SM   C1F 9744   0.274   4.335  16.211  0.3788  0.4351 -0.1971
   7423SM    OF 9745   0.387   4.320  16.243 -0.1850 -0.1292 -0.1671
   7423SM   C2F 9746   0.220   4.448  16.125  0.1336 -0.2761  0.5721
   7423SM   H2F 9747   0.177   4.531  16.185 -2.3089 -0.3279 -0.9547
   7423SM   H2G 9748   0.135   4.399  16.072  0.2686 -2.6475  2.3648
   7423SM   C3F 9749   0.308   4.496  16.007 -1.1787 -1.1428  0.5164
   7423SM   H3F 9750   0.244   4.571  15.956 -0.6719 -0.3114  1.0891
   7423SM   H3G 9751   0.332   4.420  15.930  2.1188 -0.8138  1.0557
   7423SM   C4F 9752   0.431   4.577  16.045 -0.5936 -0.0622 -0.7362
   7423SM   H4F 9753   0.511   4.500  16.046  0.1042  0.5746 -2.6049
   7423SM   H4G 9754   0.417   4.620  16.146  1.3698 -0.7435 -0.1319
   7423SM   C5F 9755   0.461   4.689  15.939  0.6749  0.2523 -0.2448
   7423SM   H5F 9756   0.386   4.768  15.961 -1.8076 -1.5042 -1.7976
   7423SM   H5G 9757   0.435   4.630  15.848  0.9072 -1.7648  0.9286
   7423SM   C6F 9758   0.596   4.742  15.969 -0.1321  0.7402  0.3319
   7423SM   H6F 9759   0.620   4.724  16.076  2.2183 -2.2579 -0.5460
   7423SM   H6G 9760   0.602   4.850  15.944 -1.5900  0.9103  0.6447
   7423SM   C7F 9761   0.702   4.668  15.885  0.0331  0.4418  0.7425
   7423SM   H7F 9762   0.699   4.561  15.916  2.7828  0.3441  0.9358
   7423SM   H7G 9763   0.804   4.699  15.915  0.5795  0.8308 -1.3927
   7423SM   C8F 9764   0.672   4.686  15.733 -0.5632  0.0712  0.6720
   7423SM   H8F 9765   0.655   4.796  15.721  0.1040  0.3295  1.8829
   7423SM   H8G 9766   0.580   4.628  15.710  1.2095 -2.8867  0.5998
   7423SM   C9F 9767   0.788   4.625  15.646  0.5330 -0.3981  0.2129
   7423SM   H9F 9768   0.782   4.516  15.668 -0.7529 -0.8801 -2.1557
   7423SM   H9G 9769   0.884   4.664  15.687 -0.8141  2.0031  1.2386
   7423SM  C10F 9770   0.761   4.651  15.497 -0.0120  0.0089 -0.7231
   7423SM  H10F 9771   0.650   4.645  15.492 -0.0638 -0.5335  0.5978
   7423SM  H10G 9772   0.804   4.569  15.436 -2.3282 -0.5768 -1.6847
   7423SM  C11F 9773   0.799   4.791  15.452  0.7180  0.1154 -1.4588
   7423SM  H11F 9774   0.908   4.780  15.432  1.8263 -0.6025  3.6044
   7423SM  H11G 9775   0.798   4.872  15.528 -1.4378 -1.6357  0.5255
   7423SM  C12F 9776   0.730   4.825  15.317 -0.9369  0.4226 -0.2625
   7423SM  H12F 9777   0.740   4.932  15.288 -1.3811  0.4396 -0.3602
   7423SM  H12G 9778   0.621   4.806  15.321 -1.0367  1.0574  3.1610
   7423SM  C13F 9779   0.796   4.748  15.194  0.2888 -0.8111  0.1330
   7423SM  H13F 9780   0.779   4.639  15.206 -0.1761 -0.9626 -1.5704
   7423SM  H13G 9781   0.906   4.761  15.193  0.3226 -0.6879  2.1466
   7423SM  C14F 9782   0.730   4.792  15.057  0.0142 -0.1927 -0.7314
   7423SM  H14F 9783   0.720   4.902  15.062 -0.1102 -0.1197 -2.2468
   7423SM  H14G 9784   0.626   4.755  15.044 -0.0245 -0.8583  1.1032
   7423SM  C15F 9785   0.817   4.756  14.940 -0.1851 -0.0271 -0.1600
   7423SM  H15F 9786   0.833   4.646  14.942  1.3914  0.1861  1.7298
   7423SM  H15G 9787   0.916   4.802  14.958 -0.7486  1.7642 -1.3645
   7423SM  C16F 9788   0.754   4.802  14.807  0.0848  0.2482  0.4457
   7423SM  H16F 9789   0.764   4.912  14.793  0.5662  0.1798  0.2250
   7423SM  H16G 9790   0.647   4.774  14.799  0.0044  0.8430 -0.8145
   7423SM  C17F 9791   0.837   4.750  14.685  0.0012 -0.2331  0.3372
   7423SM  H17F 9792   0.771   4.743  14.596  0.3810  2.0822 -0.2000
   7423SM  H17G 9793   0.870   4.648  14.715  1.6163  0.2002  0.1723
   7423SM  C18F 9794   0.954   4.845  14.649 -0.6096  0.6797 -0.4996
   7423SM  H18F 9795   0.989   4.895  14.742 -0.2997  0.2045 -0.3587
   7423SM  H18G 9796   0.916   4.917  14.573 -3.2438 -2.2770 -2.2422
   7423SM  C19F 9797   1.085   4.778  14.601 -0.0428  0.3444  0.4685
   7423SM  H19F 9798   1.065   4.703  14.522  1.3008  1.3020 -0.8346
   7423SM  H19G 9799   1.123   4.722  14.689  0.3147 -2.3356 -1.2958
   7423SM  C20F 9800   1.191   4.884  14.575 -0.1908  0.3992  1.2174
   7423SM  H20F 9801   1.189   4.967  14.649 -0.3765 -0.3641  2.0808
   7423SM  H20G 9802   1.167   4.940  14.482  3.5351  1.0031  0.4548
   7423SM  C21F 9803   1.332   4.831  14.559 -0.0034 -0.6655 -0.5741
   7423SM  H21F 9804   1.323   4.754  14.479  2.6414  0.4704 -2.0806
   7423SM  H21G 9805   1.366   4.792  14.657 -0.6363  3.0647  1.3220
   7423SM  C22F 9806   1.432   4.933  14.514  0.5524  0.3757  0.2878
   7423SM  H22F 9807   1.431   5.020  14.582 -1.9513 -1.0194  2.2204
   7423SM  H22G 9808   1.399   4.952  14.409  1.1913  0.8223  0.1601
   7423SM  C23F 9809   1.567   4.866  14.511 -0.6606 -0.0749 -0.0666
   7423SM  H23F 9810   1.565   4.789  14.592  0.7138  0.5372  0.5984
   7423SM  H23G 9811   1.637   4.944  14.550 -0.4265  1.3220 -3.0352
   7423SM  H23H 9812   1.592   4.831  14.409  0.6138 -0.3211  0.3104
   7523SM     N 9813   7.074   4.143  17.171  0.2467 -0.0729  0.3186
   7523SM   C15 9814   7.224   4.123  17.173  0.8014  0.0166 -0.2142
   7523SM  H15A 9815   7.241   4.027  17.126 -2.5575 -0.4414 -0.7922
   7523SM  H15B 9816   7.267   4.124  17.272  0.8121 -1.1162 -0.1962
   7523SM  H15C 9817   7.283   4.192  17.115 -0.6572  2.6534  1.2096
   7523SM   C14 9818   7.020   4.016  17.226  0.3553  0.1305  0.1404
   7523SM  H14A 9819   7.010   4.038  17.331  0.4882  0.7157  0.0340
   7523SM  H14B 9820   7.094   3.937  17.217 -0.4643 -0.6464  0.1214
   7523SM  H14C 9821   6.922   3.988  17.190 -0.1315  0.1652  1.3904
   7523SM   C13 9822   7.036   4.261  17.254 -0.4796 -0.5815  0.1645
   7523SM  H13A 9823   7.099   4.347  17.234 -2.9909  1.8542  1.9369
   7523SM  H13B 9824   7.039   4.228  17.357 -1.6550 -2.3820 -0.3200
   7523SM  H13C 9825   6.936   4.292  17.228  0.5362  1.9354 -1.0645
   7523SM   C12 9826   7.027   4.163  17.031  0.2951  0.3249 -0.3157
   7523SM  H12A 9827   7.090   4.239  16.986 -0.1417 -0.7200 -2.8705
   7523SM  H12B 9828   6.926   4.198  17.041  0.1370 -0.1362 -0.3000
   7523SM   C11 9829   7.023   4.040  16.934  0.1442 -0.9012 -0.3123
   7523SM  H11A 9830   7.124   3.993  16.943 -0.3816 -1.7835  1.7468
   7523SM  H11B 9831   7.005   4.078  16.831 -2.2159 -0.3930  0.2172
   7523SM     P 9832   6.775   3.953  16.923 -0.0916 -0.0105 -0.1600
   7523SM   O13 9833   6.720   3.815  16.923 -0.2375  0.6123  0.1366
   7523SM   O14 9834   6.704   4.050  17.013  0.0139 -0.0020 -0.1025
   7523SM   O11 9835   6.780   4.003  16.773  0.0495  0.3927 -0.5771
   7523SM   O12 9836   6.931   3.943  16.971 -0.4840  0.1705 -0.3382
   7523SM   C1S 9837   6.827   3.914  16.671 -1.2264 -0.8381 -0.4443
   7523SM   H1S 9838   6.784   3.812  16.680  0.1926 -1.3846  0.3818
   7523SM   H1T 9839   6.935   3.891  16.678 -0.6966  1.6475  0.4542
   7523SM    NF 9840   6.851   3.873  16.432 -0.3486  0.2582 -0.2319
   7523SM   HNF 9841   6.938   3.905  16.396 -0.5663  1.0093 -0.0970
   7523SM   C2S 9842   6.790   3.964  16.532  0.2718 -0.0595 -0.1315
   7523SM   H2S 9843   6.682   3.941  16.517  0.2868 -0.7205  0.6932
   7523SM   C3S 9844   6.810   4.114  16.510 -0.1129  0.6327  0.5028
   7523SM   H3S 9845   6.916   4.133  16.535 -0.2488  0.4352  1.2475
   7523SM    O3 9846   6.741   4.210  16.593 -0.0495  0.4678  0.1290
   7523SM   HO3 9847   6.713   4.159  16.670 -0.1722  0.7237  0.2553
   7523SM   C4S 9848   6.796   4.159  16.364 -0.3116 -0.2944  0.1272
   7523SM   H4S 9849   6.709   4.111  16.317 -1.1989 -0.2637  1.6622
   7523SM   C5S 9850   6.889   4.229  16.305 -0.7684 -0.2364 -0.0315
   7523SM   H5S 9851   6.978   4.260  16.361 -1.0606 -2.0042  1.4938
   7523SM   C6S 9852   6.895   4.277  16.160 -0.4297 -0.7779 -0.3295
   7523SM   H6S 9853   6.991   4.244  16.114 -1.3689 -0.0261 -3.0130
   7523SM   H6T 9854   6.910   4.387  16.162 -0.1304 -0.8256  0.4404
   7523SM   C7S 9855   6.784   4.244  16.061 -0.0868 -0.5634  0.3013
   7523SM   H7S 9856   6.687   4.274  16.107 -0.9805 -0.2093 -1.7102
   7523SM   H7T 9857   6.790   4.134  16.046  0.4427 -0.1666 -3.2527
   7523SM   C8S 9858   6.816   4.319  15.928 -0.5369 -0.0241 -0.1561
   7523SM   H8S 9859   6.923   4.301  15.905 -0.0598  2.4918 -0.2235
   7523SM   H8T 9860   6.802   4.427  15.949 -0.4087 -0.3677  1.9971
   7523SM   C9S 9861   6.732   4.277  15.804 -0.0771  0.6435 -0.6957
   7523SM   H9S 9862   6.771   4.179  15.769 -0.5999  0.8194 -1.8193
   7523SM   H9T 9863   6.746   4.348  15.720 -0.4019  2.1560  0.4876
   7523SM  C10S 9864   6.577   4.258  15.826 -0.1592  0.0409 -0.6297
   7523SM  H10S 9865   6.547   4.340  15.895  4.7336  0.4189  1.4161
   7523SM  H10T 9866   6.561   4.163  15.880  0.2448  0.1774 -0.2646
   7523SM  C11S 9867   6.498   4.261  15.694  0.1004  0.6553 -0.0609
   7523SM  H11S 9868   6.421   4.184  15.717  0.0527  0.7595  0.1253
   7523SM  H11T 9869   6.567   4.236  15.609 -1.7730 -1.5910 -1.0458
   7523SM  C12S 9870   6.417   4.377  15.665 -0.4223  0.4830 -0.2978
   7523SM  H12S 9871   6.476   4.458  15.617  1.2238 -1.0845 -1.0480
   7523SM  H12T 9872   6.375   4.414  15.760 -1.1057 -0.8817 -0.0297
   7523SM  C13S 9873   6.306   4.354  15.566  0.0555  0.0740  0.4470
   7523SM  H13S 9874   6.235   4.279  15.605  1.3015 -1.9677 -0.9931
   7523SM  H13T 9875   6.346   4.310  15.472  2.1767 -0.5170  1.5760
   7523SM  C14S 9876   6.210   4.471  15.546  0.6845 -0.5387  0.7975
   7523SM  H14S 9877   6.272   4.553  15.505 -2.3105  0.8329 -1.3773
   7523SM  H14T 9878   6.175   4.515  15.642  0.0299  0.9055 -0.0699
   7523SM  C15S 9879   6.093   4.441  15.451  0.5837  0.0823  0.0380
   7523SM  H15S 9880   6.015   4.380  15.503 -1.0696  0.9171 -1.3892
   7523SM  H15T 9881   6.123   4.384  15.361 -2.3011  0.6969 -1.4297
   7523SM  C16S 9882   6.024   4.563  15.397 -0.1899  0.7436  0.1122
   7523SM  H16S 9883   5.937   4.524  15.340 -0.2814  1.1768 -0.0525
   7523SM  H16T 9884   6.074   4.607  15.308  1.2904 -2.3552 -0.7430
   7523SM  C17S 9885   5.968   4.671  15.499 -0.1233 -0.0826  1.1417
   7523SM  H17S 9886   6.060   4.704  15.553  1.0501 -1.6067  0.1491
   7523SM  H17T 9887   5.902   4.620  15.572 -0.8256 -0.8950 -0.0431
   7523SM  C18S 9888   5.896   4.785  15.437 -0.3184 -0.7966 -0.0378
   7523SM  H18S 9889   5.876   4.759  15.331 -0.5228 -1.7972  0.2328
   7523SM  H18T 9890   5.951   4.881  15.440  1.1757 -1.5247 -2.3444
   7523SM  H18U 9891   5.802   4.794  15.497 -0.2142 -1.4679  0.2394
   7523SM   C1F 9892   6.800   3.756  16.395  0.5602  1.0658 -0.2397
   7523SM    OF 9893   6.720   3.688  16.462 -0.2225  0.0477 -0.7420
   7523SM   C2F 9894   6.842   3.712  16.255  0.5101  0.2064  0.2451
   7523SM   H2F 9895   6.950   3.689  16.272  0.6396  1.3507  1.0851
   7523SM   H2G 9896   6.825   3.793  16.181  0.7189 -1.5207 -1.7837
   7523SM   C3F 9897   6.762   3.590  16.194 -0.3563  0.5677 -0.0297
   7523SM   H3F 9898   6.658   3.623  16.175  0.0387  1.6394 -0.3956
   7523SM   H3G 9899   6.770   3.495  16.251 -1.1742  0.4446 -0.1000
   7523SM   C4F 9900   6.821   3.552  16.053  0.2606 -0.0899  1.3027
   7523SM   H4F 9901   6.932   3.561  16.048  0.0602  2.8091  0.6439
   7523SM   H4G 9902   6.783   3.626  15.980  0.9917 -0.7277  0.2369
   7523SM   C5F 9903   6.775   3.414  16.010  0.1956  0.4841  0.2652
   7523SM   H5F 9904   6.760   3.340  16.092 -1.3694 -0.9077 -1.1929
   7523SM   H5G 9905   6.852   3.373  15.942  0.4198  0.5467  0.4815
   7523SM   C6F 9906   6.635   3.414  15.943  0.0706  0.1459  0.3936
   7523SM   H6F 9907   6.617   3.494  15.869  2.3688  0.6320  0.2877
   7523SM   H6G 9908   6.562   3.436  16.024 -0.4128 -1.5402  0.4413
   7523SM   C7F 9909   6.580   3.273  15.901  0.1628 -0.0831  0.4459
   7523SM   H7F 9910   6.484   3.287  15.847 -0.6357  1.1974  2.0798
   7523SM   H7G 9911   6.572   3.224  16.001  1.5171 -0.5557  0.3443
   7523SM   C8F 9912   6.681   3.187  15.814 -0.0522 -0.2619  0.5098
   7523SM   H8F 9913   6.762   3.156  15.884  1.2398 -0.5541 -1.0741
   7523SM   H8G 9914   6.727   3.251  15.736  2.2536 -3.4585 -0.9679
   7523SM   C9F 9915   6.624   3.066  15.736 -0.6494  0.4571  0.3681
   7523SM   H9F 9916   6.526   3.097  15.696 -0.0156  0.3933 -1.3349
   7523SM   H9G 9917   6.612   2.985  15.811  1.1041 -0.1166  0.0833
   7523SM  C10F 9918   6.719   3.013  15.620 -0.7858 -0.5612 -0.0354
   7523SM  H10F 9919   6.817   2.981  15.662  0.2162  1.9902 -0.2597
   7523SM  H10G 9920   6.737   3.100  15.554 -1.9292 -0.2967 -0.0193
   7523SM  C11F 9921   6.675   2.899  15.537  0.0278  0.4160  0.8837
   7523SM  H11F 9922   6.576   2.926  15.495 -0.1498 -1.5780 -0.1152
   7523SM  H11G 9923   6.671   2.800  15.589 -1.8048 -0.5581 -0.9774
   7523SM  C12F 9924   6.769   2.883  15.407 -0.0908  0.2532 -0.6350
   7523SM  H12F 9925   6.761   2.776  15.375 -0.5127  0.2921 -0.6579
   7523SM  H12G 9926   6.873   2.892  15.446 -0.4675 -1.8695  1.0575
   7523SM  C13F 9927   6.728   2.972  15.286 -0.2669  0.1873 -0.6737
   7523SM  H13F 9928   6.736   3.079  15.315  0.0547  0.1497 -0.6182
   7523SM  H13G 9929   6.625   2.934  15.269  0.5898 -3.8803  1.8228
   7523SM  C14F 9930   6.810   2.955  15.158 -0.2129 -0.1568  0.3863
   7523SM  H14F 9931   6.822   2.847  15.133  1.2431  0.6681 -3.0146
   7523SM  H14G 9932   6.915   2.990  15.172  0.5468 -1.3266 -1.8099
   7523SM  C15F 9933   6.740   3.028  15.048 -0.6456  0.2284  0.0297
   7523SM  H15F 9934   6.752   3.138  15.056  1.2500  0.3049 -2.4794
   7523SM  H15G 9935   6.633   3.004  15.063 -0.1990 -1.0964  1.3871
   7523SM  C16F 9936   6.775   2.984  14.910  0.2023 -0.2216 -0.8806
   7523SM  H16F 9937   6.787   2.873  14.913  1.6286 -0.0833 -0.7647
   7523SM  H16G 9938   6.876   3.020  14.881  2.6590 -2.3882  3.8408
   7523SM  C17F 9939   6.679   3.028  14.799 -0.7702  0.0168 -0.4671
   7523SM  H17F 9940   6.578   3.040  14.845 -0.8912 -2.5365  0.0978
   7523SM  H17G 9941   6.683   2.954  14.717  1.7840 -0.3347 -0.1124
   7523SM  C18F 9942   6.727   3.164  14.736 -0.2367  0.1170  0.6084
   7523SM  H18F 9943   6.837   3.152  14.718 -0.5155  0.3926 -1.5156
   7523SM  H18G 9944   6.726   3.237  14.820  0.5602  1.1760 -0.2677
   7523SM  C19F 9945   6.648   3.225  14.617 -0.5464 -0.1826  0.0084
   7523SM  H19F 9946   6.677   3.332  14.608  1.4549 -0.5289  1.7834
   7523SM  H19G 9947   6.539   3.221  14.637 -0.6122  0.1869 -0.2471
   7523SM  C20F 9948   6.673   3.178  14.477 -0.0515 -0.7494  0.1679
   7523SM  H20F 9949   6.652   3.069  14.472  2.2415 -1.2428  0.2582
   7523SM  H20G 9950   6.780   3.187  14.451 -0.6650  0.9171 -2.2629
   7523SM  C21F 9951   6.595   3.260  14.374 -0.4246 -0.1306  0.2953
   7523SM  H21F 9952   6.589   3.368  14.399 -0.5432 -0.0600 -0.0316
   7523SM  H21G 9953   6.489   3.228  14.383 -0.5762  0.1155 -0.5203
   7523SM  C22F 9954   6.655   3.268  14.239 -0.2312 -0.4426  0.3988
   7523SM  H22F 9955   6.675   3.167  14.198  1.6635 -0.7019  1.8630
   7523SM  H22G 9956   6.752   3.320  14.254 -0.3522  0.1165 -0.6338
   7523SM  C23F 9957   6.566   3.355  14.148 -0.1940 -0.4634 -0.2092
   7523SM  H23F 9958   6.611   3.371  14.047  0.9820  3.2715  0.7478
   7523SM  H23G 9959   6.565   3.455  14.196  0.5531 -0.5637  0.0393
   7523SM  H23H 9960   6.466   3.308  14.144  0.5960 -2.2468 -0.3572
   7623SM     N 9961   1.308   5.403  16.714  0.3834 -0.3252 -0.6931
   7623SM   C15 9962   1.393   5.436  16.836  0.3362  0.5449 -0.2419
   7623SM  H15A 9963   1.374   5.537  16.870 -1.5176  1.1473 -2.7069
   7623SM  H15B 9964   1.499   5.440  16.818  0.6912  2.7800  1.8578
   7623SM  H15C 9965   1.366   5.376  16.921 -1.2225  0.5604 -0.6811
   7623SM   C14 9966   1.166   5.384  16.770 -0.0037  0.6426  0.5021
   7623SM  H14A 9967   1.103   5.358  16.686  0.5783  2.8024 -0.6974
   7623SM  H14B 9968   1.127   5.477  16.809 -2.9570 -0.2310 -0.1626
   7623SM  H14C 9969   1.166   5.305  16.843  2.5646 -0.5990 -0.7003
   7623SM   C13 9970   1.299   5.518  16.618  0.1200 -0.6499 -0.0515
   7623SM  H13A 9971   1.239   5.491  16.532 -1.1367 -0.8644  0.8525
   7623SM  H13B 9972   1.398   5.539  16.582  1.7882 -2.5994  2.9056
   7623SM  H13C 9973   1.244   5.604  16.653  0.4517 -0.3181 -0.3468
   7623SM   C12 9974   1.356   5.278  16.650 -0.7330  0.1098 -0.0340
   7623SM  H12A 9975   1.349   5.192  16.715  0.8176  1.1980  1.6703
   7623SM  H12B 9976   1.463   5.291  16.646 -0.6585 -0.7498 -2.4404
   7623SM   C11 9977   1.312   5.240  16.513 -0.3109  0.5134  0.4226
   7623SM  H11A 9978   1.366   5.149  16.480  0.7678  1.5556 -0.8475
   7623SM  H11B 9979   1.342   5.317  16.438 -1.0605 -0.9984 -1.5067
   7623SM     P 9980   1.085   5.094  16.550  0.4097 -0.3399 -0.1451
   7623SM   O13 9981   1.143   5.027  16.674 -0.3004  0.4499  0.8069
   7623SM   O14 9982   0.942   5.141  16.556  0.1083  0.2560 -0.4780
   7623SM   O11 9983   1.107   5.002  16.427 -0.5177  0.4978 -0.1047
   7623SM   O12 9984   1.170   5.223  16.505  0.1004  0.3631 -0.0939
   7623SM   C1S 9985   1.038   5.005  16.309 -0.1021  0.1836  0.7652
   7623SM   H1S 9986   0.929   5.024  16.324  0.1331  0.8421  1.6808
   7623SM   H1T 9987   1.035   4.908  16.254 -4.1191  0.7460 -0.3300
   7623SM    NF 9988   1.010   5.101  16.065 -0.3679  0.0795  0.1210
   7623SM   HNF 9989   1.042   5.058  15.981 -2.4303  2.4696 -2.0999
   7623SM   C2S 9990   1.096   5.095  16.190  0.9390 -0.8537  0.0971
   7623SM   H2S 9991   1.102   5.201  16.221 -0.5442  0.1303 -2.6352
   7623SM   C3S 9992   1.240   5.044  16.156  0.5875  0.0116  0.1770
   7623SM   H3S 9993   1.239   4.947  16.100  1.2889 -0.2253  0.5579
   7623SM    O3 9994   1.320   5.016  16.269 -0.4808 -0.2814 -0.1570
   7623SM   HO3 9995   1.263   5.014  16.347 -0.8277 -0.4820 -0.4170
   7623SM   C4S 9996   1.296   5.137  16.062  0.8038 -0.3031  0.6878
   7623SM   H4S 9997   1.261   5.124  15.959 -0.3965 -0.2842  1.0767
   7623SM   C5S 9998   1.379   5.237  16.088 -0.0673 -0.2927  0.0524
   7623SM   H5S 9999   1.410   5.249  16.193 -0.1216  0.2470  0.0120
   7623SM   C6S10000   1.437   5.331  15.988 -0.3272  0.2407 -0.6005
   7623SM   H6S10001   1.546   5.336  16.007 -0.2052 -1.0944 -0.8823
   7623SM   H6T10002   1.410   5.436  16.013  0.0274 -0.2253  2.0584
   7623SM   C7S10003   1.403   5.297  15.843  0.3517  0.0606 -0.4938
   7623SM   H7S10004   1.294   5.276  15.835  0.5354 -1.2186  0.1429
   7623SM   H7T10005   1.448   5.201  15.809 -0.2532  0.0936 -1.4160
   7623SM   C8S10006   1.434   5.412  15.756  0.2297  0.0448  0.5092
   7623SM   H8S10007   1.540   5.446  15.758 -0.1785  1.3355  1.4249
   7623SM   H8T10008   1.381   5.495  15.807  0.8982  0.3676  0.6826
   7623SM   C9S10009   1.373   5.417  15.613  0.3775  0.7100  0.0719
   7623SM   H9S10010   1.389   5.516  15.566  1.5444  0.2274 -0.6226
   7623SM   H9T10011   1.264   5.399  15.614  0.5363 -0.4635  2.5325
   7623SM  C10S10012   1.431   5.312  15.517  0.2510  0.1241  1.0467
   7623SM  H10S10013   1.352   5.263  15.457 -2.0563  1.9456  2.4540
   7623SM  H10T10014   1.499   5.244  15.573 -0.6718 -2.3196 -0.6382
   7623SM  C11S10015   1.518   5.377  15.403  0.3490 -0.1352 -0.0892
   7623SM  H11S10016   1.592   5.444  15.453  2.2960 -1.5603 -0.9417
   7623SM  H11T10017   1.448   5.440  15.344 -1.7256 -2.0540  0.2043
   7623SM  C12S10018   1.600   5.284  15.308  0.4670 -0.2385  1.0183
   7623SM  H12S10019   1.539   5.234  15.231 -1.2133  1.0571  1.4457
   7623SM  H12T10020   1.649   5.211  15.376  1.6516 -1.4476 -1.0553
   7623SM  C13S10021   1.713   5.353  15.229  0.4655  0.1630 -0.0341
   7623SM  H13S10022   1.745   5.284  15.148 -0.6601  2.5180 -2.6828
   7623SM  H13T10023   1.795   5.380  15.299  2.6802  0.2041 -2.4809
   7623SM  C14S10024   1.673   5.476  15.147  0.0382  0.1301 -0.0125
   7623SM  H14S10025   1.622   5.547  15.215 -2.7039 -2.8955  1.3189
   7623SM  H14T10026   1.591   5.462  15.073 -1.0746  2.1660  0.7447
   7623SM  C15S10027   1.807   5.527  15.089 -0.5272 -0.0622 -0.1367
   7623SM  H15S10028   1.868   5.440  15.056 -1.9076 -0.7563 -0.9486
   7623SM  H15T10029   1.864   5.571  15.174  0.2974 -1.1707 -0.0899
   7623SM  C16S10030   1.804   5.624  14.972  0.5848  0.4226 -0.5883
   7623SM  H16S10031   1.761   5.575  14.882 -2.2171  0.5792  0.5675
   7623SM  H16T10032   1.903   5.667  14.948  0.7811  0.7928  0.7663
   7623SM  C17S10033   1.705   5.735  15.003  0.2326  0.1579  0.1653
   7623SM  H17S10034   1.726   5.784  15.100 -2.6197  3.8774 -0.8549
   7623SM  H17T10035   1.603   5.694  15.020 -0.8297  2.1582 -0.9544
   7623SM  C18S10036   1.701   5.832  14.881 -0.5284  0.6017 -0.1788
   7623SM  H18S10037   1.605   5.887  14.889 -0.1369  1.5551 -1.5828
   7623SM  H18T10038   1.698   5.778  14.783 -0.6795 -1.8969  1.1074
   7623SM  H18U10039   1.786   5.904  14.887 -1.2089  1.2579  2.6936
   7623SM   C1F10040   0.882   5.141  16.061  0.2920 -0.1373 -0.1305
   7623SM    OF10041   0.831   5.179  16.165 -0.4052 -0.1396 -0.0783
   7623SM   C2F10042   0.814   5.136  15.931 -0.7432 -0.9677  0.4222
   7623SM   H2F10043   0.811   5.030  15.898 -1.1609 -0.6546 -0.5804
   7623SM   H2G10044   0.874   5.196  15.860 -1.2783  0.5264  1.1870
   7623SM   C3F10045   0.664   5.170  15.936  0.5591  0.1364  0.1382
   7623SM   H3F10046   0.643   5.252  16.009  0.7266 -0.4574  0.8644
   7623SM   H3G10047   0.615   5.082  15.982  1.6926 -0.0905  0.9685
   7623SM   C4F10048   0.601   5.213  15.812  0.4504  0.1236  0.6891
   7623SM   H4F10049   0.653   5.307  15.782  0.6655 -0.5424 -1.1477
   7623SM   H4G10050   0.494   5.237  15.830  0.1681 -1.3528  1.1104
   7623SM   C5F10051   0.606   5.112  15.689 -0.6732  0.5674 -0.5257
   7623SM   H5F10052   0.558   5.015  15.716 -0.5188  0.1364 -1.7708
   7623SM   H5G10053   0.715   5.097  15.674 -0.9013 -1.6382 -0.2905
   7623SM   C6F10054   0.545   5.165  15.563 -0.3115  0.1996 -0.2187
   7623SM   H6F10055   0.596   5.259  15.532  0.3559 -0.3160 -0.7007
   7623SM   H6G10056   0.437   5.191  15.562 -0.6860 -1.2817 -0.2760
   7623SM   C7F10057   0.559   5.074  15.438  0.0816 -0.4712 -0.0354
   7623SM   H7F10058   0.516   4.975  15.464  0.1379 -0.8405 -1.2731
   7623SM   H7G10059   0.666   5.061  15.411  0.1730  1.8183 -1.0143
   7623SM   C8F10060   0.476   5.137  15.325 -0.2389 -0.8659  0.4545
   7623SM   H8F10061   0.504   5.240  15.296  2.1866 -1.4375  0.5949
   7623SM   H8G10062   0.371   5.152  15.359  0.0534  0.3054  0.8752
   7623SM   C9F10063   0.472   5.047  15.202  0.3647 -0.2901  0.5081
   7623SM   H9F10064   0.424   4.956  15.243 -2.3418  1.6502  1.9131
   7623SM   H9G10065   0.578   5.026  15.173  0.7057  2.3000 -0.4685
   7623SM  C10F10066   0.396   5.105  15.084  0.2682 -0.2845 -0.1679
   7623SM  H10F10067   0.450   5.194  15.045 -0.6368  0.0459 -0.6796
   7623SM  H10G10068   0.298   5.141  15.121 -0.0248 -0.4518 -0.7597
   7623SM  C11F10069   0.366   4.992  14.984  0.2408 -0.1159  0.2324
   7623SM  H11F10070   0.301   4.911  15.024 -0.5109 -0.1157 -0.9574
   7623SM  H11G10071   0.467   4.945  14.977  0.1766  0.0060 -2.6710
   7623SM  C12F10072   0.311   5.029  14.852 -0.0304 -0.4322 -0.1342
   7623SM  H12F10073   0.373   5.110  14.808  0.4878 -0.5885  0.2978
   7623SM  H12G10074   0.212   5.078  14.864  0.5521  0.7860 -0.1223
   7623SM  C13F10075   0.307   4.906  14.755  0.1239  0.0639 -0.7476
   7623SM  H13F10076   0.254   4.827  14.811  0.6907 -1.5932 -2.4305
   7623SM  H13G10077   0.407   4.865  14.729 -0.8178 -1.7308 -1.7626
   7623SM  C14F10078   0.229   4.917  14.625  0.3538  0.6937  0.6303
   7623SM  H14F10079   0.124   4.947  14.644  0.2652  0.6103  0.2665
   7623SM  H14G10080   0.234   4.823  14.567  0.3759  1.4495 -0.6209
   7623SM  C15F10081   0.284   5.030  14.533  0.6206 -0.2715 -0.3059
   7623SM  H15F10082   0.325   5.113  14.594  0.9385 -1.1803  0.7688
   7623SM  H15G10083   0.197   5.070  14.477 -0.9935 -2.3730  0.5621
   7623SM  C16F10084   0.389   4.983  14.430 -0.4049  0.9557 -0.4828
   7623SM  H16F10085   0.366   5.042  14.339  0.2626  1.8799 -0.0642
   7623SM  H16G10086   0.384   4.877  14.398  0.7130  0.2268  1.5482
   7623SM  C17F10087   0.527   5.004  14.486  0.8675  0.4747 -0.1410
   7623SM  H17F10088   0.534   4.941  14.577 -0.1523 -0.1144 -0.4523
   7623SM  H17G10089   0.523   5.112  14.514 -0.2512  0.1087  1.2348
   7623SM  C18F10090   0.649   4.984  14.396 -0.3127  0.5809  0.4131
   7623SM  H18F10091   0.745   4.993  14.451  0.1595  0.6663 -0.4255
   7623SM  H18G10092   0.647   5.057  14.313  1.6833 -0.3135 -0.4846
   7623SM  C19F10093   0.655   4.850  14.329  0.4675 -0.2892  0.2913
   7623SM  H19F10094   0.568   4.835  14.261  1.4371 -0.4993 -0.9453
   7623SM  H19G10095   0.661   4.773  14.409 -2.3811  1.2146  2.1082
   7623SM  C20F10096   0.770   4.842  14.227  0.1676  0.6433 -0.0837
   7623SM  H20F10097   0.854   4.853  14.298 -0.2741 -1.8007  0.9178
   7623SM  H20G10098   0.771   4.927  14.155  0.8877  2.4320  1.9094
   7623SM  C21F10099   0.791   4.704  14.160  0.0135 -0.4415  0.2109
   7623SM  H21F10100   0.693   4.663  14.128  1.6539 -2.3101 -2.8898
   7623SM  H21G10101   0.841   4.633  14.230 -0.0545 -0.6448  0.0542
   7623SM  C22F10102   0.902   4.712  14.052  0.0918 -0.1413 -0.3972
   7623SM  H22F10103   0.994   4.740  14.108 -0.6085 -1.3406  1.4376
   7623SM  H22G10104   0.885   4.786  13.971  3.6914 -0.7899 -1.9387
   7623SM  C23F10105   0.898   4.570  13.996 -0.3356 -0.1508  0.2585
   7623SM  H23F10106   0.902   4.488  14.071 -3.8732  0.7182  1.6218
   7623SM  H23G10107   0.980   4.559  13.922  0.2071 -2.9023  1.1403
   7623SM  H23H10108   0.799   4.553  13.947  0.2070 -1.2173 -0.5214
   7723SM     N10109   1.287   0.477  17.024 -0.3219 -0.5372 -0.5086
   7723SM   C1510110   1.203   0.355  17.003  0.1649  0.3457 -0.1707
   7723SM  H15A10111   1.106   0.383  16.963  0.1582 -0.2952 -0.6312
   7723SM  H15B10112   1.181   0.301  17.094  0.6420  2.1861  1.0888
   7723SM  H15C10113   1.254   0.286  16.938  2.6881  0.9898  1.0374
   7723SM   C1410114   1.257   0.553  17.150 -0.1316 -0.5993  0.1413
   7723SM  H14A10115   1.330   0.631  17.162 -0.8193  0.3326 -1.3885
   7723SM  H14B10116   1.260   0.490  17.237  1.8816 -1.2500 -0.3404
   7723SM  H14C10117   1.157   0.594  17.145  0.1628  0.2400  1.0028
   7723SM   C1310118   1.430   0.433  17.020  0.1734 -0.4131 -0.4167
   7723SM  H13A10119   1.451   0.392  16.922  0.8487  1.9516 -1.3051
   7723SM  H13B10120   1.453   0.355  17.092  0.5138  0.4080  0.3775
   7723SM  H13C10121   1.497   0.515  17.040 -0.9975  0.3768  0.3889
   7723SM   C1210122   1.270   0.576  16.912  0.2120 -0.2010 -0.0807
   7723SM  H12A10123   1.290   0.528  16.818  2.2422 -0.5150  0.4767
   7723SM  H12B10124   1.333   0.663  16.917 -0.9067  0.5580  1.7350
   7723SM   C1110125   1.126   0.643  16.891  0.6958  0.4777 -0.4775
   7723SM  H11A10126   1.053   0.565  16.862  0.1266  1.1546 -0.8958
   7723SM  H11B10127   1.138   0.702  16.798 -0.2162  0.3732 -0.6684
   7723SM     P10128   1.066   0.856  17.032  0.5342 -0.5183  0.2413
   7723SM   O1310129   0.950   0.870  17.119  0.0980 -0.7073  0.2296
   7723SM   O1410130   1.195   0.898  17.085  0.0461  0.0597  0.5068
   7723SM   O1110131   1.046   0.918  16.892  0.1399 -0.3798  0.4698
   7723SM   O1210132   1.069   0.705  17.004  0.0111  0.2009  0.3536
   7723SM   C1S10133   0.914   0.905  16.835  0.2458 -0.1927  0.0283
   7723SM   H1S10134   0.833   0.950  16.896  0.4661 -0.1802  0.3148
   7723SM   H1T10135   0.889   0.799  16.816  1.9599 -0.6206 -0.0721
   7723SM    NF10136   0.763   0.999  16.648 -0.2015  0.0852 -0.4721
   7723SM   HNF10137   0.760   0.939  16.569  3.5051 -1.1610  0.1069
   7723SM   C2S10138   0.904   0.995  16.704 -0.3493  0.3455 -0.1205
   7723SM   H2S10139   0.934   1.098  16.734  1.0393  0.4493 -1.7195
   7723SM   C3S10140   1.015   0.950  16.607  0.0931  0.2316  0.1464
   7723SM   H3S10141   0.993   0.843  16.588  0.2998  0.0201  1.0539
   7723SM    O310142   1.144   0.954  16.662 -0.2540 -0.3088  0.8084
   7723SM   HO310143   1.124   0.981  16.752 -1.0737 -1.8619  1.1422
   7723SM   C4S10144   1.009   1.038  16.483  0.5438  0.1135  0.2735
   7723SM   H4S10145   1.037   1.143  16.502  1.5199  0.5999 -3.1295
   7723SM   C5S10146   0.983   0.995  16.359  0.4026 -0.0437  0.1538
   7723SM   H5S10147   0.966   0.889  16.336  1.3593  0.0650 -1.1271
   7723SM   C6S10148   0.984   1.091  16.245  0.2559  0.1407  0.2716
   7723SM   H6S10149   1.030   1.048  16.154 -0.0036  0.9298 -0.2378
   7723SM   H6T10150   1.043   1.182  16.272 -0.1478  0.7748 -0.9334
   7723SM   C7S10151   0.849   1.160  16.209 -0.7730 -0.3894  0.2018
   7723SM   H7S10152   0.870   1.260  16.163 -2.2590 -0.1809 -0.0541
   7723SM   H7T10153   0.786   1.178  16.298  0.6484  3.1536  0.6648
   7723SM   C8S10154   0.774   1.085  16.097  0.0205 -0.4404  0.3005
   7723SM   H8S10155   0.666   1.108  16.112 -0.4117 -0.4275 -2.2488
   7723SM   H8T10156   0.775   0.977  16.125  1.5211 -0.3815  0.5340
   7723SM   C9S10157   0.818   1.137  15.959  0.0821 -0.1061 -0.0226
   7723SM   H9S10158   0.913   1.093  15.923 -0.7315  0.2302 -2.7990
   7723SM   H9T10159   0.836   1.246  15.959 -1.1756  0.1180 -0.5187
   7723SM  C10S10160   0.710   1.102  15.853 -0.1571 -0.4614 -1.1041
   7723SM  H10S10161   0.611   1.150  15.864 -0.7503 -1.1935 -2.7919
   7723SM  H10T10162   0.682   0.995  15.866 -0.0310 -0.3528  0.2343
   7723SM  C11S10163   0.774   1.121  15.711 -0.1266 -0.1259  0.3567
   7723SM  H11S10164   0.709   1.077  15.632  0.4908  0.5961 -0.5631
   7723SM  H11T10165   0.859   1.052  15.702 -0.7758 -0.8050 -0.7287
   7723SM  C12S10166   0.807   1.264  15.671 -0.0708  0.0136 -0.0962
   7723SM  H12S10167   0.878   1.309  15.743 -0.4334  0.8752 -0.2628
   7723SM  H12T10168   0.712   1.321  15.673 -0.5932 -0.7479 -1.5971
   7723SM  C13S10169   0.877   1.279  15.535  0.4868  0.4830  0.3900
   7723SM  H13S10170   0.832   1.198  15.475 -0.5049  2.5793 -1.8719
   7723SM  H13T10171   0.985   1.257  15.553 -0.0025 -0.8000  2.0115
   7723SM  C14S10172   0.872   1.412  15.463 -0.6091 -0.3514  0.3990
   7723SM  H14S10173   0.938   1.477  15.525 -0.5026 -0.5631  0.5099
   7723SM  H14T10174   0.768   1.449  15.450 -0.8688 -1.4342 -0.8311
   7723SM  C15S10175   0.938   1.375  15.325 -0.3274  0.3941 -0.4770
   7723SM  H15S10176   0.867   1.311  15.269 -0.4913  0.9665 -0.9319
   7723SM  H15T10177   1.035   1.325  15.346 -0.3805  0.4222 -0.1482
   7723SM  C16S10178   0.973   1.505  15.258 -0.3772 -0.3178  0.4396
   7723SM  H16S10179   1.067   1.541  15.306  0.7492 -2.4414 -0.0766
   7723SM  H16T10180   0.895   1.582  15.278  1.2866  0.9507  2.5136
   7723SM  C17S10181   1.003   1.506  15.102  0.8378  0.8899  0.1989
   7723SM  H17S10182   1.084   1.432  15.086  2.4288  2.4515  0.7308
   7723SM  H17T10183   1.055   1.602  15.088  1.8872  0.2770 -0.1692
   7723SM  C18S10184   0.894   1.486  14.993  0.2945  0.5525 -0.0253
   7723SM  H18S10185   0.860   1.381  15.007 -0.3155  0.8263  0.5718
   7723SM  H18T10186   0.933   1.503  14.890  0.5333  2.3298  0.3312
   7723SM  H18U10187   0.811   1.559  14.998  1.1396  1.7770 -2.3777
   7723SM   C1F10188   0.666   1.066  16.708  0.0611  0.5055 -0.3015
   7723SM    OF10189   0.692   1.143  16.794 -0.0968 -0.5027  0.2083
   7723SM   C2F10190   0.520   1.044  16.669  0.1986  0.0590 -0.1270
   7723SM   H2F10191   0.460   1.133  16.698  1.1584  1.0078 -0.9906
   7723SM   H2G10192   0.475   0.958  16.724 -0.1175 -0.5502 -1.2984
   7723SM   C3F10193   0.490   1.021  16.515  0.2161 -0.1563 -0.0182
   7723SM   H3F10194   0.539   0.931  16.472  0.9869  0.0452  0.4124
   7723SM   H3G10195   0.532   1.108  16.460  0.4464  0.3432  0.9293
   7723SM   C4F10196   0.340   1.026  16.487  0.5968 -0.1448  0.0548
   7723SM   H4F10197   0.307   1.124  16.525 -2.9790 -1.4729  0.7074
   7723SM   H4G10198   0.279   0.949  16.539  0.9300 -0.6716 -0.3094
   7723SM   C5F10199   0.312   1.014  16.335 -0.5555 -0.5004  0.0935
   7723SM   H5F10200   0.373   0.933  16.290  1.7857  0.4776  1.3801
   7723SM   H5G10201   0.367   1.108  16.313  0.5889 -1.3199 -0.6646
   7723SM   C6F10202   0.176   1.040  16.295  0.0520 -0.5965  0.1245
   7723SM   H6F10203   0.140   1.137  16.336  0.5091 -0.5874  0.5160
   7723SM   H6G10204   0.129   0.950  16.340  1.2392 -0.8827  0.8305
   7723SM   C7F10205   0.163   1.034  16.145 -0.2081  0.0647  0.0281
   7723SM   H7F10206   0.176   0.929  16.112  1.6572  0.2084  0.1749
   7723SM   H7G10207   0.241   1.103  16.105  1.9298 -1.4494  1.3383
   7723SM   C8F10208   0.026   1.084  16.103  0.5001  0.2481  0.0651
   7723SM   H8F10209   0.011   1.192  16.123  1.3234 -0.1184  3.1934
   7723SM   H8G10210  -0.048   1.020  16.156  1.4204 -0.1992  0.8310
   7723SM   C9F10211  -0.008   1.053  15.956 -0.0460 -0.0676  0.0082
   7723SM   H9F10212  -0.017   0.944  15.938  1.8988  0.0463 -2.1038
   7723SM   H9G10213   0.084   1.071  15.896  0.1956 -2.5262 -0.4544
   7723SM  C10F10214  -0.119   1.134  15.897 -0.7269 -0.1150  0.0091
   7723SM  H10F10215  -0.085   1.238  15.880 -3.3513  0.8891  0.5489
   7723SM  H10G10216  -0.203   1.137  15.969 -0.0737  0.7735  0.7531
   7723SM  C11F10217  -0.162   1.080  15.762 -0.7686  0.5665 -0.1013
   7723SM  H11F10218  -0.256   1.131  15.733 -0.5589  0.4934 -0.9333
   7723SM  H11G10219  -0.189   0.973  15.770 -1.0502  0.4397 -2.1440
   7723SM  C12F10220  -0.050   1.114  15.656  0.1101  0.3932  0.3262
   7723SM  H12F10221   0.051   1.072  15.678  0.1459  0.1671 -0.2456
   7723SM  H12G10222  -0.036   1.223  15.668 -1.3257  0.8887 -1.9567
   7723SM  C13F10223  -0.091   1.083  15.510  0.3283  0.3735  0.0056
   7723SM  H13F10224  -0.188   1.133  15.494 -0.9565 -2.4451 -1.8579
   7723SM  H13G10225  -0.103   0.975  15.484 -0.0605  0.3361  0.3238
   7723SM  C14F10226  -0.001   1.143  15.405 -1.1944 -0.0504 -0.6356
   7723SM  H14F10227   0.099   1.096  15.412 -0.2749  2.0466  2.2154
   7723SM  H14G10228   0.026   1.248  15.430  2.2889 -0.7657 -0.9643
   7723SM  C15F10229  -0.053   1.139  15.264  0.2187  0.4856 -0.3159
   7723SM  H15F10230  -0.154   1.185  15.272  1.5175  3.2736  1.7447
   7723SM  H15G10231  -0.066   1.034  15.232 -1.4148  0.2546  0.9746
   7723SM  C16F10232   0.037   1.217  15.175  0.1613 -0.4118  0.3840
   7723SM  H16F10233   0.135   1.170  15.196 -0.7592 -2.0953  1.0804
   7723SM  H16G10234   0.041   1.324  15.207  0.5923 -0.2625 -0.1447
   7723SM  C17F10235  -0.016   1.218  15.031  0.1516  0.7348  0.3245
   7723SM  H17F10236  -0.118   1.261  15.019 -0.6669 -1.2855 -0.3603
   7723SM  H17G10237  -0.023   1.111  15.005 -3.7809  1.2260 -1.2315
   7723SM  C18F10238   0.081   1.292  14.935 -0.0750 -0.0654  0.5114
   7723SM  H18F10239   0.105   1.394  14.972  1.9443 -1.0354  2.0688
   7723SM  H18G10240   0.044   1.291  14.830 -0.0022  0.3138  0.4822
   7723SM  C19F10241   0.216   1.222  14.937 -0.7266 -0.4886  0.3206
   7723SM  H19F10242   0.191   1.117  14.908  1.1583 -0.8145 -0.2528
   7723SM  H19G10243   0.271   1.233  15.033  1.1685  0.4110 -0.8156
   7723SM  C20F10244   0.315   1.287  14.833 -0.0801  0.3628  0.3535
   7723SM  H20F10245   0.266   1.286  14.733 -2.7264 -1.0723  1.5512
   7723SM  H20G10246   0.396   1.211  14.833  0.0906  0.3571  3.9205
   7723SM  C21F10247   0.356   1.423  14.869 -0.1304 -0.2892 -0.1014
   7723SM  H21F10248   0.401   1.423  14.970  1.5656  1.9972 -0.7829
   7723SM  H21G10249   0.267   1.490  14.875  2.0951  2.7754  2.6057
   7723SM  C22F10250   0.485   1.477  14.799 -0.8721  0.1200  0.3641
   7723SM  H22F10251   0.504   1.575  14.846 -2.5957  0.3558  0.6365
   7723SM  H22G10252   0.471   1.496  14.690  0.7638  0.5106  0.2038
   7723SM  C23F10253   0.606   1.384  14.814 -0.4152 -0.7626 -0.3743
   7723SM  H23F10254   0.637   1.385  14.921  0.2896 -0.3413 -0.5781
   7723SM  H23G10255   0.686   1.428  14.751 -0.7080  0.0715 -0.1853
   7723SM  H23H10256   0.588   1.280  14.782  1.0137 -0.9266 -0.7129
   7823SM     N10257   2.461   7.035  17.088  0.5681 -0.3289 -1.1394
   7823SM   C1510258   2.410   6.903  17.129 -0.0559 -0.4487  0.5390
   7823SM  H15A10259   2.397   6.905  17.237  0.0087  0.6314  0.5356
   7823SM  H15B10260   2.475   6.827  17.089  1.4994  2.1588 -2.2783
   7823SM  H15C10261   2.316   6.886  17.078  0.4845 -2.8271  0.2180
   7823SM   C1410262   2.357   7.137  17.127 -0.4905  0.0376 -0.0358
   7823SM  H14A10263   2.376   7.235  17.086 -1.6610  0.5075  0.4994
   7823SM  H14B10264   2.362   7.137  17.235  0.9746  0.6712 -0.0853
   7823SM  H14C10265   2.260   7.108  17.089  0.6470 -1.9647 -1.6582
   7823SM   C1310266   2.587   7.079  17.160 -0.3200  0.1089  0.2367
   7823SM  H13A10267   2.583   7.044  17.262  1.1448  0.0298  0.2847
   7823SM  H13B10268   2.613   7.182  17.144  2.7437 -0.5980  0.1009
   7823SM  H13C10269   2.672   7.034  17.112 -0.7791 -0.5896  0.0604
   7823SM   C1210270   2.478   7.032  16.943 -0.6277 -1.0227  0.2637
   7823SM  H12A10271   2.385   6.996  16.899  0.1363 -0.1586 -2.1986
   7823SM  H12B10272   2.556   6.962  16.918 -0.3712 -0.8663  0.6231
   7823SM   C1110273   2.510   7.164  16.867 -0.0906 -0.0974 -0.4134
   7823SM  H11A10274   2.533   7.150  16.759  2.6591  0.9985 -0.0671
   7823SM  H11B10275   2.604   7.210  16.905  0.2733  1.3868 -2.8658
   7823SM     P10276   2.271   7.259  16.806 -0.3586 -0.2012  0.1125
   7823SM   O1310277   2.166   7.213  16.901 -0.3156 -0.9390 -0.7507
   7823SM   O1410278   2.255   7.387  16.736  0.3112 -0.5560  0.0571
   7823SM   O1110279   2.297   7.137  16.706  0.5778  0.1786 -0.0269
   7823SM   O1210280   2.406   7.263  16.883 -0.0203  0.2963  0.3802
   7823SM   C1S10281   2.181   7.086  16.633 -0.4763  0.3490  0.3660
   7823SM   H1S10282   2.093   7.154  16.636  0.1897  1.4827 -2.3528
   7823SM   H1T10283   2.146   6.989  16.674  0.1563  0.4159  1.0780
   7823SM    NF10284   2.076   7.039  16.409  0.9328 -0.4369  0.7100
   7823SM   HNF10285   2.065   6.943  16.386  0.6756 -0.8758  2.5121
   7823SM   C2S10286   2.203   7.078  16.480 -0.1823  0.4810  0.5650
   7823SM   H2S10287   2.221   7.184  16.451 -1.7499  0.5112 -0.4213
   7823SM   C3S10288   2.324   6.989  16.451  0.0978  0.6433 -0.3592
   7823SM   H3S10289   2.305   6.883  16.477  1.6291  0.5483  0.4379
   7823SM    O310290   2.437   7.013  16.527 -0.0772  0.5462  0.4718
   7823SM   HO310291   2.408   7.049  16.610  0.2941  2.2564 -0.1136
   7823SM   C4S10292   2.356   6.989  16.303  0.0692 -0.3353  0.2477
   7823SM   H4S10293   2.334   7.091  16.271  0.2901  0.3075  2.0457
   7823SM   C5S10294   2.425   6.902  16.228  0.4409 -0.1000  0.8415
   7823SM   H5S10295   2.469   6.817  16.283 -0.9570  0.4837  3.0190
   7823SM   C6S10296   2.450   6.914  16.076 -0.7657 -0.1479 -0.2171
   7823SM   H6S10297   2.405   6.822  16.033 -2.0848  0.3000  0.1559
   7823SM   H6T10298   2.558   6.909  16.053 -1.3045 -1.0222 -2.8542
   7823SM   C7S10299   2.387   7.031  15.992 -0.2883  0.1647 -0.4112
   7823SM   H7S10300   2.441   7.127  16.005 -1.0147  0.6875 -1.0881
   7823SM   H7T10301   2.282   7.051  16.022  0.2717  2.3923  0.2266
   7823SM   C8S10302   2.390   6.993  15.847 -0.3525  0.3401 -0.3577
   7823SM   H8S10303   2.306   6.922  15.830 -0.7541  1.5504 -4.5205
   7823SM   H8T10304   2.490   6.945  15.837 -0.2691  0.6090 -0.8656
   7823SM   C9S10305   2.394   7.113  15.760 -0.3259 -0.0074  0.0863
   7823SM   H9S10306   2.480   7.174  15.795  2.4274 -3.0179 -0.8789
   7823SM   H9T10307   2.301   7.172  15.775 -0.1860 -0.0920  1.4904
   7823SM  C10S10308   2.409   7.070  15.611  0.1418 -1.1173 -0.3374
   7823SM  H10S10309   2.400   7.157  15.542 -1.8219 -1.4753 -0.6047
   7823SM  H10T10310   2.328   6.997  15.590  0.6976 -1.4972 -1.2438
   7823SM  C11S10311   2.544   7.008  15.581 -1.6408  0.2682 -0.1792
   7823SM  H11S10312   2.565   6.921  15.647  3.6798  1.0896 -0.3014
   7823SM  H11T10313   2.622   7.087  15.597 -1.4377  0.0413 -0.0388
   7823SM  C12S10314   2.563   6.967  15.434 -0.4691  0.3077  0.2829
   7823SM  H12S10315   2.549   7.055  15.367  0.8438  2.1270  2.2496
   7823SM  H12T10316   2.476   6.899  15.426 -0.2540  0.1176 -0.5840
   7823SM  C13S10317   2.706   6.919  15.396 -0.3667  0.3080  0.5653
   7823SM  H13S10318   2.742   6.843  15.468 -0.0577 -0.1017 -0.0109
   7823SM  H13T10319   2.786   6.996  15.402  1.7273 -1.7291  0.0635
   7823SM  C14S10320   2.708   6.844  15.260 -0.2715  0.6264  0.7017
   7823SM  H14S10321   2.657   6.903  15.181  0.0414 -0.4502 -0.3374
   7823SM  H14T10322   2.652   6.748  15.259  0.3693  0.2525 -0.1377
   7823SM  C15S10323   2.852   6.829  15.207 -0.0966 -0.2476  1.7800
   7823SM  H15S10324   2.905   6.787  15.295  2.1315 -1.5273 -0.0626
   7823SM  H15T10325   2.914   6.920  15.188  2.0495 -1.8077  0.9888
   7823SM  C16S10326   2.864   6.732  15.092 -0.0073  0.0974  0.1918
   7823SM  H16S10327   2.812   6.640  15.128 -1.6541  1.3004  0.9815
   7823SM  H16T10328   2.972   6.712  15.076  0.1231  0.7587  0.2486
   7823SM  C17S10329   2.794   6.793  14.961 -0.1570  0.3858  0.2665
   7823SM  H17S10330   2.807   6.903  14.963  0.6587  0.3280 -0.9285
   7823SM  H17T10331   2.685   6.771  14.969  0.0252 -1.3452 -1.3430
   7823SM  C18S10332   2.828   6.738  14.822 -0.3774 -0.0401 -0.2927
   7823SM  H18S10333   2.799   6.632  14.807  1.3428 -0.8910  1.8539
   7823SM  H18T10334   2.936   6.743  14.794  0.4638 -0.6762  2.5723
   7823SM  H18U10335   2.780   6.794  14.739  1.4992  1.6737 -0.3075
   7823SM   C1F10336   1.972   7.121  16.393 -0.5939  0.4776  0.6916
   7823SM    OF10337   1.981   7.237  16.429  0.1021 -0.9022  0.9625
   7823SM   C2F10338   1.843   7.060  16.336  0.2770 -0.7603  0.3078
   7823SM   H2F10339   1.765   7.108  16.400  0.3164 -0.7652  0.3591
   7823SM   H2G10340   1.840   6.950  16.351  3.3476 -0.6408  2.8638
   7823SM   C3F10341   1.827   7.110  16.192  0.7422  0.1046  0.9174
   7823SM   H3F10342   1.851   7.219  16.191  2.1185 -0.1224 -2.1358
   7823SM   H3G10343   1.724   7.100  16.150  0.9878 -2.9306  0.8072
   7823SM   C4F10344   1.925   7.034  16.089  0.0158 -0.9730 -0.1641
   7823SM   H4F10345   1.914   6.923  16.084  1.3751 -1.1233 -0.2415
   7823SM   H4G10346   2.031   7.052  16.120 -0.6111  1.4918  0.7982
   7823SM   C5F10347   1.892   7.088  15.947 -0.6461  0.7471 -0.1533
   7823SM   H5F10348   1.897   7.199  15.945 -4.1115  1.0217 -2.5356
   7823SM   H5G10349   1.785   7.060  15.936 -0.6681 -0.3897  2.1619
   7823SM   C6F10350   1.979   7.028  15.833 -0.0955  0.6649 -0.2247
   7823SM   H6F10351   1.946   6.923  15.818 -1.3495  0.9013  0.7701
   7823SM   H6G10352   2.084   7.027  15.870  0.2482 -0.0445 -1.1748
   7823SM   C7F10353   1.955   7.102  15.700 -0.6005 -0.0476  0.2987
   7823SM   H7F10354   2.021   7.052  15.626  0.9005  1.7866  0.3460
   7823SM   H7G10355   1.995   7.205  15.704  1.1793 -0.7185  1.1043
   7823SM   C8F10356   1.813   7.116  15.649  0.2072 -0.1706  0.0973
   7823SM   H8F10357   1.747   7.179  15.712  1.4018  0.6281  0.5856
   7823SM   H8G10358   1.771   7.013  15.648  1.4524 -0.7797  2.3671
   7823SM   C9F10359   1.809   7.152  15.501 -0.5262 -0.0467  0.6310
   7823SM   H9F10360   1.713   7.121  15.454  1.2111 -2.7705 -1.4846
   7823SM   H9G10361   1.881   7.090  15.443 -2.4369 -0.4669 -1.4619
   7823SM  C10F10362   1.840   7.305  15.478  0.1256 -0.1947  1.0878
   7823SM  H10F10363   1.939   7.328  15.523  0.3419  1.4702 -0.1676
   7823SM  H10G10364   1.759   7.363  15.526 -1.1364  1.0069 -2.2081
   7823SM  C11F10365   1.855   7.351  15.332 -0.1189  0.6742 -1.2448
   7823SM  H11F10366   1.769   7.311  15.274 -0.2001  1.2684 -1.5442
   7823SM  H11G10367   1.947   7.301  15.295 -0.1553  0.4226 -0.9974
   7823SM  C12F10368   1.872   7.499  15.319  0.2148 -0.8897  0.5067
   7823SM  H12F10369   1.964   7.535  15.369 -1.1403  1.1073  1.7293
   7823SM  H12G10370   1.800   7.558  15.379 -1.0571 -2.3422  0.4793
   7823SM  C13F10371   1.885   7.544  15.169  0.1826 -0.1255 -0.3068
   7823SM  H13F10372   1.961   7.479  15.121  1.8531  1.1889  0.4140
   7823SM  H13G10373   1.929   7.645  15.152  0.2003  0.1052  0.9464
   7823SM  C14F10374   1.752   7.543  15.098  0.7365  0.9680  0.4944
   7823SM  H14F10375   1.691   7.596  15.175  0.8385 -0.8126  1.8662
   7823SM  H14G10376   1.706   7.441  15.097 -1.2403  1.7591  2.0627
   7823SM  C15F10377   1.746   7.607  14.960  0.1828 -0.3898  0.3027
   7823SM  H15F10378   1.747   7.718  14.972 -0.1094 -0.3553  0.0417
   7823SM  H15G10379   1.647   7.574  14.921 -0.2825  0.5089  0.6858
   7823SM  C16F10380   1.858   7.567  14.860  0.2983  0.7007 -0.8686
   7823SM  H16F10381   1.857   7.457  14.841  0.7377  0.8509 -1.7953
   7823SM  H16G10382   1.956   7.593  14.905  0.8099 -2.1086 -0.1236
   7823SM  C17F10383   1.843   7.638  14.728  0.7065  0.1029  0.0732
   7823SM  H17F10384   1.755   7.590  14.681  0.9969  1.2022 -1.6939
   7823SM  H17G10385   1.923   7.603  14.659 -1.8013 -1.6859 -2.1363
   7823SM  C18F10386   1.824   7.790  14.733 -0.5413 -0.2810 -1.3145
   7823SM  H18F10387   1.906   7.838  14.791  1.3882 -3.9349 -0.7589
   7823SM  H18G10388   1.724   7.800  14.781 -1.0961  2.9340 -2.8791
   7823SM  C19F10389   1.810   7.852  14.592  0.4740  0.4331 -0.1070
   7823SM  H19F10390   1.745   7.789  14.527  0.9696  0.8052 -0.9868
   7823SM  H19G10391   1.909   7.859  14.542  1.3134 -2.1774  0.9794
   7823SM  C20F10392   1.738   7.989  14.592 -0.1493 -0.4472 -0.2020
   7823SM  H20F10393   1.637   7.973  14.636 -0.5048  2.8296  0.4306
   7823SM  H20G10394   1.733   8.023  14.486  1.6983 -0.1058 -0.2160
   7823SM  C21F10395   1.808   8.093  14.669 -0.6820  0.0844 -0.2833
   7823SM  H21F10396   1.915   8.079  14.640  0.0000  1.8208  1.2125
   7823SM  H21G10397   1.804   8.082  14.779 -0.8555  0.9197 -0.1975
   7823SM  C22F10398   1.772   8.236  14.611 -0.1792  0.5437  0.2473
   7823SM  H22F10399   1.720   8.282  14.697 -2.4669 -1.8564  0.2681
   7823SM  H22G10400   1.707   8.225  14.521 -1.9219  0.6271  1.4557
   7823SM  C23F10401   1.892   8.321  14.575 -0.1564  0.2809 -0.3974
   7823SM  H23F10402   1.858   8.426  14.565 -0.2339  0.1394 -1.9256
   7823SM  H23G10403   1.949   8.295  14.483 -2.3316 -3.4504 -0.9340
   7823SM  H23H10404   1.965   8.307  14.658 -0.5015 -2.3732 -0.4589
   7923SM     N10405   0.706   7.108  17.129  0.4366 -0.0519 -0.4530
   7923SM   C1510406   0.811   7.169  17.220  0.1664 -0.0159 -0.0961
   7923SM  H15A10407   0.770   7.263  17.254 -3.0028 -1.8644  1.7838
   7923SM  H15B10408   0.903   7.190  17.169  1.0034 -2.2798  0.3611
   7923SM  H15C10409   0.828   7.105  17.305 -1.0592 -2.3285 -1.4876
   7923SM   C1410410   0.741   6.974  17.084  0.0488  0.8656 -1.3626
   7923SM  H14A10411   0.673   6.941  17.007 -1.6001  0.7072  0.0862
   7923SM  H14B10412   0.747   6.905  17.167  3.7329  0.6267 -1.6651
   7923SM  H14C10413   0.840   6.976  17.041  0.1585 -0.7334 -1.2425
   7923SM   C1310414   0.582   7.104  17.204 -0.0184 -0.0148  0.4092
   7923SM  H13A10415   0.550   7.205  17.226  1.3407  1.3571 -3.2325
   7923SM  H13B10416   0.593   7.043  17.293 -0.8157 -2.1757 -0.9102
   7923SM  H13C10417   0.501   7.053  17.155  0.8338 -2.1506  1.1031
   7923SM   C1210418   0.685   7.200  17.004 -0.6311  0.7012  0.1570
   7923SM  H12A10419   0.596   7.157  16.962 -1.0684  1.5278  0.2084
   7923SM  H12B10420   0.760   7.183  16.928 -0.7323  0.8798  0.0125
   7923SM   C1110421   0.662   7.349  17.017  0.2795 -0.1436 -0.4273
   7923SM  H11A10422   0.667   7.406  16.922 -1.6582  3.8724  1.6182
   7923SM  H11B10423   0.746   7.395  17.074 -0.8211  1.5005 -0.0535
   7923SM     P10424   0.409   7.404  17.011  0.3295  0.0068  0.5951
   7923SM   O1310425   0.296   7.341  17.085  0.4806 -0.0910  0.1040
   7923SM   O1410426   0.391   7.548  16.969 -0.2807  0.4605  0.2854
   7923SM   O1110427   0.426   7.319  16.875  0.5611 -0.2125 -0.1347
   7923SM   O1210428   0.543   7.389  17.090 -0.3990  0.0800  0.3451
   7923SM   C1S10429   0.385   7.374  16.748  0.2872  0.0589  0.5389
   7923SM   H1S10430   0.455   7.447  16.703  1.1252 -0.4750  0.9467
   7923SM   H1T10431   0.284   7.420  16.749  0.2969  0.0881  1.5384
   7923SM    NF10432   0.362   7.294  16.511  0.3014 -0.4668 -0.0911
   7923SM   HNF10433   0.279   7.277  16.458 -1.0273  2.6876  0.6950
   7923SM   C2S10434   0.378   7.259  16.648  0.2685  0.5755  0.0358
   7923SM   H2S10435   0.477   7.209  16.650 -0.0224 -0.1661 -2.1687
   7923SM   C3S10436   0.266   7.157  16.695  0.3550  0.9820  0.0158
   7923SM   H3S10437   0.168   7.208  16.685 -1.6774 -2.6095 -0.2080
   7923SM    O310438   0.275   7.110  16.829  0.7091 -0.4900  0.1072
   7923SM   HO310439   0.337   7.170  16.871 -0.5047  1.0004 -0.1763
   7923SM   C4S10440   0.260   7.037  16.597 -0.0464  0.2815 -0.2251
   7923SM   H4S10441   0.181   7.049  16.522 -0.1055 -0.4291 -0.2840
   7923SM   C5S10442   0.330   6.922  16.599  0.1579  0.5494  0.5465
   7923SM   H5S10443   0.393   6.900  16.687  1.9748  2.1540 -0.2844
   7923SM   C6S10444   0.328   6.798  16.515 -0.0228 -0.3314  0.0882
   7923SM   H6S10445   0.301   6.709  16.575 -0.3917  1.1005  2.1739
   7923SM   H6T10446   0.430   6.795  16.469 -0.7513  1.7467 -1.8392
   7923SM   C7S10447   0.235   6.814  16.392  0.6933  0.3579 -0.7966
   7923SM   H7S10448   0.239   6.908  16.334 -0.3237  1.8137  1.3816
   7923SM   H7T10449   0.129   6.813  16.424  1.0949 -0.5808  0.6211
   7923SM   C8S10450   0.263   6.701  16.292  0.0100  1.2722  0.2266
   7923SM   H8S10451   0.214   6.609  16.332  2.8804 -1.0715 -1.2477
   7923SM   H8T10452   0.369   6.671  16.305 -0.2587  1.1482  2.6135
   7923SM   C9S10453   0.220   6.730  16.149  0.4551  0.1588 -0.4993
   7923SM   H9S10454   0.251   6.833  16.122 -0.4752  0.6289  0.1821
   7923SM   H9T10455   0.110   6.732  16.143  0.2926 -2.3166  0.3094
   7923SM  C10S10456   0.254   6.627  16.038 -0.3472  0.2843 -0.1497
   7923SM  H10S10457   0.216   6.529  16.072 -2.8376  1.2274  0.0374
   7923SM  H10T10458   0.363   6.621  16.018 -0.3374 -2.4623  0.4305
   7923SM  C11S10459   0.178   6.658  15.908 -0.4501 -0.0437 -0.2700
   7923SM  H11S10460   0.075   6.681  15.942  0.0547  0.4312  0.9797
   7923SM  H11T10461   0.172   6.565  15.847  1.7066 -0.7701  0.5246
   7923SM  C12S10462   0.239   6.774  15.826 -0.1351 -0.0561  0.5191
   7923SM  H12S10463   0.257   6.872  15.876 -2.5155 -0.5448  2.5636
   7923SM  H12T10464   0.160   6.799  15.752  0.0815  0.1530  0.3594
   7923SM  C13S10465   0.353   6.723  15.740 -0.7266  0.1300 -0.2978
   7923SM  H13S10466   0.436   6.670  15.792 -1.7244 -0.1734  1.0465
   7923SM  H13T10467   0.395   6.811  15.688 -0.2738 -0.0036 -0.1634
   7923SM  C14S10468   0.298   6.639  15.622 -0.1568 -0.3721  0.9783
   7923SM  H14S10469   0.221   6.695  15.564 -1.0486  0.3756  2.8011
   7923SM  H14T10470   0.259   6.542  15.660  0.4994 -1.2988 -0.6389
   7923SM  C15S10471   0.415   6.605  15.518  0.0514 -0.2989  0.0977
   7923SM  H15S10472   0.496   6.548  15.567  0.6871  1.6625  1.4725
   7923SM  H15T10473   0.463   6.697  15.480  1.4388 -1.2421 -0.4925
   7923SM  C16S10474   0.356   6.519  15.399  0.0798 -0.1272 -0.4318
   7923SM  H16S10475   0.269   6.572  15.356  0.6644  1.2553  0.0544
   7923SM  H16T10476   0.337   6.420  15.445  1.5357  0.4022  1.4353
   7923SM  C17S10477   0.456   6.504  15.287  0.4857  1.0000 -0.2786
   7923SM  H17S10478   0.512   6.598  15.267  1.5886  0.4573  0.2264
   7923SM  H17T10479   0.396   6.478  15.197  1.9415 -0.7023 -0.8140
   7923SM  C18S10480   0.560   6.393  15.313  0.0215  0.2513  0.0985
   7923SM  H18S10481   0.517   6.292  15.328 -0.3884 -0.0829 -2.8478
   7923SM  H18T10482   0.632   6.411  15.396 -0.0148  2.3677 -0.2658
   7923SM  H18U10483   0.618   6.383  15.219  0.2439  0.4604  0.2128
   7923SM   C1F10484   0.462   7.345  16.436  0.1131  0.5278 -0.3625
   7923SM    OF10485   0.579   7.355  16.485 -0.4740 -0.4324  0.2901
   7923SM   C2F10486   0.449   7.376  16.288  1.1936  0.3214  0.7039
   7923SM   H2F10487   0.466   7.485  16.275  0.7561  0.4883  1.5049
   7923SM   H2G10488   0.341   7.365  16.264  1.4593 -2.4274  0.4514
   7923SM   C3F10489   0.531   7.286  16.197 -0.7294 -0.0849 -0.4670
   7923SM   H3F10490   0.638   7.290  16.225 -0.1027 -3.9828 -1.7351
   7923SM   H3G10491   0.529   7.324  16.093 -1.0150  0.3194 -0.3157
   7923SM   C4F10492   0.486   7.137  16.204  0.2907 -0.1790  0.1251
   7923SM   H4F10493   0.376   7.127  16.214  0.5330 -1.3716  2.1213
   7923SM   H4G10494   0.514   7.082  16.296  0.5627 -0.2025  0.0278
   7923SM   C5F10495   0.532   7.040  16.098 -0.6754 -0.4592 -0.0400
   7923SM   H5F10496   0.488   7.065  15.999 -0.3301 -1.4778 -0.4703
   7923SM   H5G10497   0.494   6.940  16.129  0.8131 -0.5702  1.6031
   7923SM   C6F10498   0.687   7.034  16.088 -0.3493 -1.2829 -0.3890
   7923SM   H6F10499   0.724   7.006  16.190 -2.0093  1.2444  1.0194
   7923SM   H6G10500   0.728   7.136  16.078  3.0925 -2.2645  1.8110
   7923SM   C7F10501   0.743   6.929  15.987  0.1502 -0.0546 -0.4173
   7923SM   H7F10502   0.696   6.828  15.994 -0.4243 -0.1241 -3.6663
   7923SM   H7G10503   0.845   6.898  16.019  0.0038 -0.2699 -0.1554
   7923SM   C8F10504   0.735   6.970  15.837  0.2223  0.4772 -0.6470
   7923SM   H8F10505   0.778   7.066  15.803 -1.6705  1.4497 -0.4480
   7923SM   H8G10506   0.626   6.988  15.824  0.0364 -0.5907 -0.6353
   7923SM   C9F10507   0.748   6.848  15.736 -0.1621  0.7308 -0.7581
   7923SM   H9F10508   0.675   6.776  15.780 -0.7071  2.0404  0.5685
   7923SM   H9G10509   0.851   6.806  15.732 -0.3261  0.3128 -0.6953
   7923SM  C10F10510   0.698   6.892  15.598  0.1263  0.7498  0.6645
   7923SM  H10F10511   0.604   6.950  15.613  1.1127  2.1404  1.7432
   7923SM  H10G10512   0.684   6.797  15.542  1.9961  0.7941  0.0614
   7923SM  C11F10513   0.799   6.981  15.527 -0.7188 -0.2255  0.6633
   7923SM  H11F10514   0.890   6.920  15.510 -1.1568 -0.8196  0.4114
   7923SM  H11G10515   0.824   7.069  15.589 -0.9574  0.2735  0.0715
   7923SM  C12F10516   0.740   7.030  15.388 -0.4475  0.1732 -0.6784
   7923SM  H12F10517   0.639   7.074  15.402 -0.9578 -0.6118 -1.7527
   7923SM  H12G10518   0.728   6.948  15.314  0.0485  0.4575 -1.0834
   7923SM  C13F10519   0.837   7.127  15.310 -0.7388  0.3639 -0.6410
   7923SM  H13F10520   0.941   7.090  15.305  0.1814  2.2590  2.1287
   7923SM  H13G10521   0.848   7.215  15.376  1.2703 -0.6839  0.5256
   7923SM  C14F10522   0.792   7.164  15.168  0.7262 -0.1355  0.0196
   7923SM  H14F10523   0.691   7.209  15.172  0.7355  0.0365 -1.2519
   7923SM  H14G10524   0.790   7.076  15.100 -2.6739 -0.1677  0.0283
   7923SM  C15F10525   0.886   7.273  15.108  0.3623 -0.2125 -0.8850
   7923SM  H15F10526   0.994   7.250  15.115  0.5525  0.7942 -0.3524
   7923SM  H15G10527   0.866   7.364  15.168  0.6894  0.3407 -1.6007
   7923SM  C16F10528   0.844   7.331  14.977 -0.0998 -0.7761  0.2065
   7923SM  H16F10529   0.914   7.412  14.946 -0.6801  0.9149  2.9688
   7923SM  H16G10530   0.740   7.371  14.979 -0.7217 -2.3108 -0.4509
   7923SM  C17F10531   0.846   7.221  14.861  0.7477 -0.5555  0.3062
   7923SM  H17F10532   0.761   7.151  14.876  0.7455 -0.6739 -0.2484
   7923SM  H17G10533   0.943   7.167  14.861  1.4974  0.7299  1.1662
   7923SM  C18F10534   0.832   7.281  14.723  0.5090 -0.6566 -0.2772
   7923SM  H18F10535   0.917   7.343  14.689 -1.2250  2.1411  0.2024
   7923SM  H18G10536   0.741   7.344  14.716  0.7324 -0.5461 -3.8680
   7923SM  C19F10537   0.815   7.164  14.634  0.5513  0.0451  0.5373
   7923SM  H19F10538   0.715   7.117  14.650  0.4520 -0.2198 -0.7527
   7923SM  H19G10539   0.898   7.094  14.658  0.0780 -1.2146 -1.2681
   7923SM  C20F10540   0.807   7.209  14.484  0.2315  0.0844  0.3596
   7923SM  H20F10541   0.893   7.276  14.461 -1.5491  2.7216  0.8930
   7923SM  H20G10542   0.708   7.259  14.472 -0.4095 -0.4952  2.7819
   7923SM  C21F10543   0.818   7.099  14.383 -0.0972 -0.3012  0.2907
   7923SM  H21F10544   0.767   7.007  14.418  1.0397 -0.9482  0.2857
   7923SM  H21G10545   0.923   7.062  14.387  1.1617  2.9471  0.8078
   7923SM  C22F10546   0.760   7.138  14.243 -0.3596  0.0405  0.2218
   7923SM  H22F10547   0.803   7.227  14.193  0.2929 -0.6309 -0.4357
   7923SM  H22G10548   0.649   7.148  14.247 -0.2945  0.4078  2.5376
   7923SM  C23F10549   0.789   7.039  14.140 -0.2088  1.2409  0.2135
   7923SM  H23F10550   0.885   7.051  14.085 -0.7510 -0.5355 -1.2187
   7923SM  H23G10551   0.713   7.047  14.059 -0.4149  1.1515  0.3987
   7923SM  H23H10552   0.778   6.935  14.179 -2.0026  1.8720  1.5166
   8023SM     N10553   1.670   7.425  16.732 -0.1583 -0.0984  0.5118
   8023SM   C1510554   1.611   7.388  16.869  0.0692 -0.7535  0.5277
   8023SM  H15A10555   1.583   7.288  16.897 -1.2166 -0.7721 -0.7096
   8023SM  H15B10556   1.519   7.442  16.884  0.3884 -0.0512  0.0521
   8023SM  H15C10557   1.690   7.416  16.938 -0.6173 -2.6379  2.1425
   8023SM   C1410558   1.773   7.531  16.751 -0.0140  0.0690 -0.4537
   8023SM  H14A10559   1.732   7.628  16.779  0.3236 -0.1030  0.6871
   8023SM  H14B10560   1.840   7.546  16.667  2.2910 -0.9049  1.1145
   8023SM  H14C10561   1.832   7.514  16.839  0.0408  0.7077 -0.3569
   8023SM   C1310562   1.743   7.309  16.670 -0.5290  0.2595 -0.8562
   8023SM  H13A10563   1.686   7.217  16.675  1.5623 -1.0299  1.0143
   8023SM  H13B10564   1.839   7.290  16.716 -0.1386 -0.8691 -2.0593
   8023SM  H13C10565   1.772   7.330  16.567  2.0806 -1.1780 -0.5033
   8023SM   C1210566   1.569   7.481  16.631 -0.2604  0.5079  0.1466
   8023SM  H12A10567   1.624   7.496  16.539  0.1176  2.9542  0.7095
   8023SM  H12B10568   1.532   7.578  16.659  0.5388  0.8880 -0.0637
   8023SM   C1110569   1.447   7.389  16.591  0.6622  0.8824  0.3951
   8023SM  H11A10570   1.494   7.295  16.556  1.3495  0.7998  1.4806
   8023SM  H11B10571   1.384   7.421  16.506  0.5831 -0.0001  0.1056
   8023SM     P10572   1.254   7.463  16.756 -0.3743 -0.0848  0.0234
   8023SM   O1310573   1.182   7.392  16.867 -0.4259  0.0673  0.2739
   8023SM   O1410574   1.324   7.593  16.787  0.1729  0.5055 -0.4131
   8023SM   O1110575   1.161   7.469  16.629 -0.2003  0.0297  0.0806
   8023SM   O1210576   1.372   7.362  16.716 -0.3742 -0.1350  0.5075
   8023SM   C1S10577   1.157   7.584  16.549 -0.1200  0.2086 -0.0397
   8023SM   H1S10578   1.253   7.636  16.569  0.4643 -1.3121  1.3765
   8023SM   H1T10579   1.077   7.656  16.578 -0.0159 -0.0751  1.0243
   8023SM    NF10580   1.166   7.688  16.331  0.2015  0.5178  0.7455
   8023SM   HNF10581   1.080   7.728  16.298 -0.5647 -1.1892  0.5490
   8023SM   C2S10582   1.148   7.563  16.401 -0.2416  0.0950  0.1988
   8023SM   H2S10583   1.222   7.489  16.361 -0.9254  0.3095 -1.5143
   8023SM   C3S10584   1.010   7.505  16.369 -0.1884  1.0514  0.5864
   8023SM   H3S10585   0.945   7.563  16.438  0.2851 -1.4677  3.3880
   8023SM    O310586   0.998   7.367  16.414  0.5101 -0.4498 -0.7153
   8023SM   HO310587   1.081   7.358  16.462 -0.6587  2.9583  2.3837
   8023SM   C4S10588   0.974   7.493  16.226 -0.2482  0.2142  0.3447
   8023SM   H4S10589   1.044   7.441  16.158 -0.5695  1.3132 -0.8698
   8023SM   C5S10590   0.853   7.532  16.177  0.0433  0.2684 -0.2088
   8023SM   H5S10591   0.784   7.571  16.253  1.0113  0.1622  0.7458
   8023SM   C6S10592   0.823   7.520  16.028  0.3949  0.3281 -0.2703
   8023SM   H6S10593   0.741   7.449  16.005  0.3155  0.1401  0.5439
   8023SM   H6T10594   0.904   7.470  15.970 -0.4914  0.9718 -2.1220
   8023SM   C7S10595   0.787   7.660  15.968 -0.1229 -0.6274 -0.5351
   8023SM   H7S10596   0.690   7.694  16.011  1.5905  0.8263  2.4575
   8023SM   H7T10597   0.775   7.654  15.857 -1.7003  0.6635 -0.4674
   8023SM   C8S10598   0.888   7.777  16.002 -0.1748  0.0087 -0.6296
   8023SM   H8S10599   0.989   7.756  15.961  0.4475 -1.8659  1.6446
   8023SM   H8T10600   0.911   7.784  16.111  1.9395  1.0380 -1.0875
   8023SM   C9S10601   0.846   7.908  15.944  0.3295  0.1704 -0.4642
   8023SM   H9S10602   0.739   7.921  15.970  0.4820 -1.5232  1.1404
   8023SM   H9T10603   0.864   7.916  15.834 -0.2267 -0.1345 -0.5788
   8023SM  C10S10604   0.926   8.031  15.997  0.2992 -0.4185 -0.1539
   8023SM  H10S10605   1.033   8.016  15.973  1.1309  1.6956  1.8654
   8023SM  H10T10606   0.920   8.013  16.106  0.1547 -0.3446 -0.1502
   8023SM  C11S10607   0.863   8.160  15.961 -0.2787 -0.7527 -0.5192
   8023SM  H11S10608   0.920   8.249  15.994  1.2061 -1.2515 -1.6459
   8023SM  H11T10609   0.766   8.166  16.015  0.3705 -2.6065  0.9517
   8023SM  C12S10610   0.839   8.183  15.808  0.0314  0.5997 -0.0492
   8023SM  H12S10611   0.753   8.121  15.773 -1.1732 -0.4564  4.1311
   8023SM  H12T10612   0.933   8.162  15.753 -0.6126  1.2468 -1.4539
   8023SM  C13S10613   0.800   8.328  15.769 -0.2113  0.0490 -0.1130
   8023SM  H13S10614   0.850   8.398  15.839 -2.4731 -0.8866  2.6382
   8023SM  H13T10615   0.690   8.339  15.775 -0.4635 -0.9776 -2.0251
   8023SM  C14S10616   0.845   8.363  15.626  0.0528  0.5038  0.9784
   8023SM  H14S10617   0.956   8.354  15.614 -0.1331  0.0727 -0.7566
   8023SM  H14T10618   0.817   8.470  15.625 -1.0253  0.2276  0.9884
   8023SM  C15S10619   0.779   8.293  15.508  0.5249 -0.2241  0.3021
   8023SM  H15S10620   0.793   8.183  15.514 -0.3514 -0.3049  1.0304
   8023SM  H15T10621   0.821   8.328  15.411  0.2642 -0.9770 -0.0914
   8023SM  C16S10622   0.625   8.312  15.500  0.4221 -0.1690 -0.2345
   8023SM  H16S10623   0.608   8.418  15.471  1.1588 -0.2807 -1.0954
   8023SM  H16T10624   0.571   8.285  15.594 -1.0053  2.5843 -0.1612
   8023SM  C17S10625   0.555   8.219  15.393 -0.0856  0.1862  0.3644
   8023SM  H17S10626   0.448   8.241  15.374  0.0814  0.5974 -0.1065
   8023SM  H17T10627   0.581   8.119  15.433  3.4951  0.1038 -1.7534
   8023SM  C18S10628   0.627   8.226  15.258  0.2472  0.6611  0.7021
   8023SM  H18S10629   0.664   8.327  15.229  1.4293 -0.2907 -1.3789
   8023SM  H18T10630   0.556   8.196  15.177  1.2304 -2.0719  0.7628
   8023SM  H18U10631   0.717   8.165  15.235  0.2978  0.9587  0.0879
   8023SM   C1F10632   1.284   7.744  16.314 -0.2773 -0.4731 -0.0568
   8023SM    OF10633   1.388   7.691  16.357  0.0427  0.2989  0.5702
   8023SM   C2F10634   1.286   7.871  16.235  0.5127  0.0616 -0.7059
   8023SM   H2F10635   1.281   7.955  16.307  3.1375 -0.9809  0.8055
   8023SM   H2G10636   1.198   7.871  16.166  0.1532  0.5967 -0.2558
   8023SM   C3F10637   1.426   7.897  16.176  0.4256 -0.2280 -0.0003
   8023SM   H3F10638   1.446   7.798  16.129  1.2110 -1.2022  2.2701
   8023SM   H3G10639   1.505   7.910  16.253 -0.0890  0.5190  0.4142
   8023SM   C4F10640   1.419   8.021  16.079  0.4188  0.3962  1.1227
   8023SM   H4F10641   1.413   8.110  16.145 -0.5942  2.8789 -2.0860
   8023SM   H4G10642   1.323   8.001  16.027  0.5056 -2.0652  1.7586
   8023SM   C5F10643   1.541   8.024  15.986  0.2654 -0.1068 -0.1962
   8023SM   H5F10644   1.556   7.925  15.937 -0.7095 -0.2455 -0.2422
   8023SM   H5G10645   1.629   8.039  16.051  0.3908 -2.0452  0.1367
   8023SM   C6F10646   1.543   8.137  15.880 -0.1172 -0.1817  0.3713
   8023SM   H6F10647   1.636   8.133  15.819 -1.2278 -2.3023 -1.2919
   8023SM   H6G10648   1.532   8.230  15.940  0.7075  0.1681  0.0049
   8023SM   C7F10649   1.439   8.124  15.770  0.0411 -0.5859  0.8401
   8023SM   H7F10650   1.338   8.142  15.814 -0.3646  0.8245 -0.5556
   8023SM   H7G10651   1.441   8.026  15.717 -0.1227 -0.1595  0.0279
   8023SM   C8F10652   1.447   8.231  15.658  0.1096  0.1582  0.2614
   8023SM   H8F10653   1.526   8.201  15.586  0.1951  0.6172  0.1608
   8023SM   H8G10654   1.473   8.328  15.705 -0.9437 -0.1109  1.4456
   8023SM   C9F10655   1.316   8.223  15.573 -0.5933  0.4176  0.5185
   8023SM   H9F10656   1.234   8.266  15.635 -0.5721 -0.0980  0.9092
   8023SM   H9G10657   1.295   8.115  15.559  1.3228 -0.3518  3.0252
   8023SM  C10F10658   1.332   8.284  15.436  0.0875 -0.5056 -0.3055
   8023SM  H10F10659   1.409   8.224  15.382  0.9601  1.0996 -0.9396
   8023SM  H10G10660   1.367   8.390  15.440  0.7441 -0.6836 -1.0597
   8023SM  C11F10661   1.193   8.272  15.368 -0.6205 -0.6645 -0.0500
   8023SM  H11F10662   1.123   8.320  15.439  0.4585  0.4768  0.2894
   8023SM  H11G10663   1.151   8.169  15.372  1.0756 -1.5277 -2.3321
   8023SM  C12F10664   1.184   8.333  15.231 -0.6382 -0.1412  0.5746
   8023SM  H12F10665   1.246   8.270  15.163 -2.8435 -1.0229 -0.7193
   8023SM  H12G10666   1.234   8.431  15.243 -0.9765 -0.0116  0.9314
   8023SM  C13F10667   1.041   8.342  15.186 -0.2907  0.0401 -0.1010
   8023SM  H13F10668   0.982   8.409  15.252 -1.4797  1.2746 -2.2885
   8023SM  H13G10669   0.993   8.242  15.189  0.0011 -0.1365 -0.9729
   8023SM  C14F10670   1.031   8.385  15.038  0.2937 -0.4233 -0.4250
   8023SM  H14F10671   1.094   8.319  14.974  2.2978 -0.1462  1.1531
   8023SM  H14G10672   1.066   8.489  15.021 -2.0291  0.2709 -1.3565
   8023SM  C15F10673   0.885   8.388  14.993  0.0428  0.1320 -0.0844
   8023SM  H15F10674   0.828   8.431  15.078  0.3085 -0.6737  0.5091
   8023SM  H15G10675   0.849   8.285  14.974  0.2211  0.2275 -1.0365
   8023SM  C16F10676   0.849   8.487  14.879  0.4131  0.3822  0.2255
   8023SM  H16F10677   0.880   8.448  14.780 -1.0435 -3.7888  1.1893
   8023SM  H16G10678   0.890   8.587  14.902  2.0549  0.0087 -0.9340
   8023SM  C17F10679   0.694   8.494  14.865  0.0937  0.2444  0.2810
   8023SM  H17F10680   0.671   8.543  14.768 -1.4379  1.1258  1.0413
   8023SM  H17G10681   0.661   8.573  14.935  0.9060  1.9196 -1.1487
   8023SM  C18F10682   0.625   8.357  14.873 -0.1809  0.0464  0.0573
   8023SM  H18F10683   0.603   8.323  14.976  0.4704 -0.7125 -0.0455
   8023SM  H18G10684   0.692   8.281  14.829  1.6496  1.4999  0.1900
   8023SM  C19F10685   0.480   8.373  14.819  0.3400 -0.3069  0.3887
   8023SM  H19F10686   0.455   8.265  14.814  0.6606 -0.3841  0.4437
   8023SM  H19G10687   0.474   8.411  14.715  2.7102  0.2820  0.4173
   8023SM  C20F10688   0.380   8.451  14.906  1.0834 -1.0443  0.1737
   8023SM  H20F10689   0.281   8.422  14.865  1.0257  0.6140 -0.9714
   8023SM  H20G10690   0.407   8.555  14.879 -1.8320 -0.3809 -0.5173
   8023SM  C21F10691   0.379   8.436  15.052 -0.5216  0.1341 -0.3472
   8023SM  H21F10692   0.476   8.467  15.099  0.3568 -2.1788 -0.5019
   8023SM  H21G10693   0.371   8.326  15.067 -0.4614  0.1905  0.1454
   8023SM  C22F10694   0.272   8.517  15.126  0.3227  0.4914  0.2560
   8023SM  H22F10695   0.176   8.495  15.075 -0.6374  3.4166  0.6285
   8023SM  H22G10696   0.300   8.624  15.116  0.3978  0.5365  0.9128
   8023SM  C23F10697   0.263   8.482  15.283 -0.0558 -0.1704  0.0743
   8023SM  H23F10698   0.269   8.371  15.289 -0.9304 -0.2493 -0.2300
   8023SM  H23G10699   0.172   8.513  15.339  0.5951 -1.0438  1.6617
   8023SM  H23H10700   0.349   8.530  15.333  0.1464 -0.3365 -0.1115
   8123SM     N10701   3.719   2.464  12.890 -0.5566 -0.0531  0.4603
   8123SM   C1510702   3.593   2.428  12.823  0.2657  0.6664  0.3446
   8123SM  H15A10703   3.514   2.486  12.869  0.2691  1.1562 -0.2569
   8123SM  H15B10704   3.571   2.326  12.849 -1.6304  0.8509 -0.4015
   8123SM  H15C10705   3.590   2.424  12.715  0.3377 -1.6575  0.3888
   8123SM   C1410706   3.823   2.362  12.845  0.2866  0.4500 -0.1565
   8123SM  H14A10707   3.831   2.366  12.737 -2.5253  2.3760 -0.4134
   8123SM  H14B10708   3.797   2.262  12.875 -2.5161  1.6817  1.9674
   8123SM  H14C10709   3.919   2.386  12.888  0.4088  2.0975 -1.2607
   8123SM   C1310710   3.756   2.594  12.836 -0.7096 -0.3240 -1.0555
   8123SM  H13A10711   3.692   2.666  12.885 -1.0040 -0.5119 -1.1615
   8123SM  H13B10712   3.736   2.602  12.730  3.3424  0.5898 -1.9119
   8123SM  H13C10713   3.860   2.616  12.857 -0.9314  1.0437 -1.2856
   8123SM   C1210714   3.702   2.458  13.039  0.4528 -0.2524 -0.4356
   8123SM  H12A10715   3.795   2.487  13.086  0.6261  0.3479 -1.1296
   8123SM  H12B10716   3.675   2.357  13.068 -1.6072  0.7874  1.5384
   8123SM   C1110717   3.598   2.547  13.115 -0.2628 -0.3705 -0.0041
   8123SM  H11A10718   3.580   2.510  13.218 -0.9275 -0.5598 -0.1858
   8123SM  H11B10719   3.496   2.545  13.072 -1.0869 -0.2027  1.8571
   8123SM     P10720   3.749   2.756  13.173  0.0586  0.1747  0.0438
   8123SM   O1310721   3.867   2.671  13.189 -0.5930  0.3356  0.4414
   8123SM   O1410722   3.761   2.879  13.093 -0.0576  0.0395 -0.5241
   8123SM   O1110723   3.687   2.797  13.305  0.2485  0.4578 -0.2107
   8123SM   O1210724   3.624   2.687  13.106  0.0551  0.4205  0.3102
   8123SM   C1S10725   3.546   2.828  13.318 -0.4344 -0.3997 -0.0770
   8123SM   H1S10726   3.485   2.741  13.288  0.4851 -0.5947 -1.4879
   8123SM   H1T10727   3.513   2.915  13.258 -1.7630 -0.8606 -0.0267
   8123SM    NF10728   3.364   2.847  13.497 -0.8686 -0.6080 -0.5709
   8123SM   HNF10729   3.319   2.921  13.546 -0.6655 -0.8517 -0.0096
   8123SM   C2S10730   3.510   2.856  13.471 -0.0526  0.4949 -0.3368
   8123SM   H2S10731   3.545   2.768  13.529 -0.2796  0.1419 -0.7220
   8123SM   C3S10732   3.576   2.978  13.522 -0.4330 -0.0728  0.4115
   8123SM   H3S10733   3.543   3.076  13.483 -0.2667 -0.4993 -0.8517
   8123SM    O310734   3.719   2.967  13.505 -0.3087 -0.3443 -0.0114
   8123SM   HO310735   3.729   2.886  13.455  1.7737  0.4380 -0.9339
   8123SM   C4S10736   3.552   2.993  13.667  0.2893  0.1949  0.1115
   8123SM   H4S10737   3.608   2.921  13.729  0.9747 -0.1655 -0.9150
   8123SM   C5S10738   3.482   3.083  13.737 -0.1563 -0.5067 -0.2404
   8123SM   H5S10739   3.442   3.171  13.685 -2.0822 -1.6306 -0.7966
   8123SM   C6S10740   3.480   3.108  13.882 -0.5655  0.6489  0.3756
   8123SM   H6S10741   3.510   3.212  13.906  0.4004 -0.3587  4.2435
   8123SM   H6T10742   3.552   3.044  13.938 -0.5130 -0.3752 -0.8081
   8123SM   C7S10743   3.340   3.074  13.931  0.5579 -0.0569  0.3352
   8123SM   H7S10744   3.307   2.977  13.887  0.8760  0.9877 -2.3467
   8123SM   H7T10745   3.264   3.142  13.887 -1.4882  0.4021  4.1624
   8123SM   C8S10746   3.332   3.066  14.082 -0.1097  0.2262 -0.4807
   8123SM   H8S10747   3.344   3.164  14.133 -2.1320 -0.6894  1.9703
   8123SM   H8T10748   3.411   3.003  14.129  0.5647  0.1700 -1.6577
   8123SM   C9S10749   3.196   3.018  14.132  0.3169  0.8972 -0.3912
   8123SM   H9S10750   3.209   2.912  14.161  2.5698  1.6198  1.5554
   8123SM   H9T10751   3.126   3.029  14.046 -1.5882 -2.4965  0.5582
   8123SM  C10S10752   3.139   3.107  14.247 -0.3125  1.0065  0.6935
   8123SM  H10S10753   3.029   3.116  14.233 -0.6603  0.6731  2.8348
   8123SM  H10T10754   3.159   3.214  14.223 -1.2400  1.5372  2.1810
   8123SM  C11S10755   3.172   3.054  14.390 -1.1130 -0.3840 -0.4510
   8123SM  H11S10756   3.273   3.085  14.424 -1.6510  1.6044 -0.4917
   8123SM  H11T10757   3.183   2.944  14.390  0.6749 -0.2297 -0.7675
   8123SM  C12S10758   3.076   3.098  14.505  0.4239 -0.6028  0.3034
   8123SM  H12S10759   2.971   3.064  14.491 -0.4903  2.7315 -2.4438
   8123SM  H12T10760   3.087   3.208  14.506  1.6443 -0.7153  0.2631
   8123SM  C13S10761   3.126   3.027  14.629 -0.2007 -0.4505  0.2119
   8123SM  H13S10762   3.231   3.053  14.658  0.7302 -3.0701 -0.5326
   8123SM  H13T10763   3.118   2.918  14.609 -0.3326 -0.1961 -1.2150
   8123SM  C14S10764   3.036   3.043  14.749  0.4077  0.5110 -0.3596
   8123SM  H14S10765   2.941   3.002  14.710  2.2846 -3.2876 -1.4412
   8123SM  H14T10766   3.036   3.153  14.759 -1.8772  0.5587 -0.5110
   8123SM  C15S10767   3.102   2.970  14.871  0.3585 -0.0417  0.0450
   8123SM  H15S10768   3.202   3.017  14.873  0.9813 -0.9867 -3.3008
   8123SM  H15T10769   3.123   2.861  14.858 -1.2838 -0.6745  2.0806
   8123SM  C16S10770   3.025   2.993  15.002 -0.0169 -0.7962 -0.2994
   8123SM  H16S10771   2.922   2.953  14.993  0.4532 -1.7570 -2.0418
   8123SM  H16T10772   3.017   3.103  15.014  0.3790 -0.8507  0.5495
   8123SM  C17S10773   3.102   2.935  15.122 -0.2005  0.3209  0.1319
   8123SM  H17S10774   3.208   2.967  15.110 -0.2761  1.0398  1.1642
   8123SM  H17T10775   3.104   2.826  15.099  0.7530  0.7331 -1.9650
   8123SM  C18S10776   3.049   2.972  15.258 -0.3046 -0.5271 -0.6550
   8123SM  H18S10777   3.118   2.920  15.327 -1.2522 -0.6279  0.2563
   8123SM  H18T10778   2.946   2.934  15.275 -0.0005 -0.7640  0.8055
   8123SM  H18U10779   3.053   3.081  15.282 -0.0465 -0.6619 -0.0647
   8123SM   C1F10780   3.289   2.748  13.464  0.0020  0.1316  0.7273
   8123SM    OF10781   3.335   2.640  13.428  0.4564 -0.0627 -0.7152
   8123SM   C2F10782   3.140   2.767  13.475 -0.0036 -0.0961 -0.6588
   8123SM   H2F10783   3.104   2.737  13.375 -0.3160  2.6698 -1.4551
   8123SM   H2G10784   3.123   2.872  13.508 -0.8787 -0.0233 -1.3061
   8123SM   C3F10785   3.081   2.681  13.584 -1.1596  0.6279 -0.5951
   8123SM   H3F10786   3.134   2.584  13.594  1.0314  1.7927 -0.0832
   8123SM   H3G10787   2.971   2.671  13.576 -1.3720 -0.5724  2.4254
   8123SM   C4F10788   3.095   2.747  13.731  0.9950 -0.4421  0.0963
   8123SM   H4F10789   3.039   2.843  13.724  1.2971 -0.3029 -0.4054
   8123SM   H4G10790   3.202   2.767  13.750  0.2759  3.4367  1.0067
   8123SM   C5F10791   3.020   2.657  13.829  0.1923  0.1484 -0.2816
   8123SM   H5F10792   3.063   2.555  13.823  3.7530  1.3610  1.9160
   8123SM   H5G10793   2.911   2.661  13.803 -0.6076  0.3154  2.7707
   8123SM   C6F10794   3.045   2.712  13.969  1.1669 -0.7599  0.2759
   8123SM   H6F10795   3.017   2.819  13.971 -0.7786 -1.2219  0.8288
   8123SM   H6G10796   3.153   2.701  13.990  1.4704  1.1260 -0.1858
   8123SM   C7F10797   2.954   2.642  14.068 -0.0828  0.1543  0.1815
   8123SM   H7F10798   2.979   2.537  14.041 -1.2992  0.4813 -2.5595
   8123SM   H7G10799   2.848   2.659  14.041 -0.4231 -2.0085 -0.0443
   8123SM   C8F10800   2.982   2.682  14.212 -0.4533 -0.4681 -0.1111
   8123SM   H8F10801   2.960   2.790  14.223  2.2486  0.0353  1.2457
   8123SM   H8G10802   3.089   2.660  14.233 -0.3429  0.1920  0.0438
   8123SM   C9F10803   2.895   2.610  14.314 -0.0093  0.9628 -0.7060
   8123SM   H9F10804   2.914   2.502  14.301  0.4162  0.7458  1.3209
   8123SM   H9G10805   2.787   2.634  14.304 -0.3704 -0.5969 -0.7500
   8123SM  C10F10806   2.938   2.652  14.456 -0.8746 -0.8151  0.9922
   8123SM  H10F10807   2.916   2.761  14.463  2.9806  0.4761 -2.5496
   8123SM  H10G10808   3.048   2.639  14.466 -0.9704 -1.5091  1.1550
   8123SM  C11F10809   2.863   2.581  14.569 -0.1938  1.1286  0.1997
   8123SM  H11F10810   2.861   2.637  14.665 -1.0650  0.9754  0.2833
   8123SM  H11G10811   2.905   2.479  14.577  1.2716  1.5478 -1.5056
   8123SM  C12F10812   2.707   2.557  14.531  0.7036 -0.0929 -0.3480
   8123SM  H12F10813   2.700   2.485  14.447 -0.2880 -1.1076  0.5824
   8123SM  H12G10814   2.682   2.660  14.496  0.6067 -0.7260 -2.2367
   8123SM  C13F10815   2.626   2.527  14.655 -0.0300  0.5693 -0.3304
   8123SM  H13F10816   2.515   2.539  14.651 -0.3356 -0.2993  2.7645
   8123SM  H13G10817   2.648   2.603  14.733  1.5612 -0.3698  0.1795
   8123SM  C14F10818   2.650   2.382  14.707  0.0799 -0.2203 -0.7801
   8123SM  H14F10819   2.575   2.374  14.788 -0.9341  0.6885 -1.6015
   8123SM  H14G10820   2.746   2.382  14.764  0.1934 -2.2567 -0.8887
   8123SM  C15F10821   2.625   2.271  14.606  0.3357  0.2250 -0.0759
   8123SM  H15F10822   2.698   2.282  14.522 -1.9491  2.9812 -1.8700
   8123SM  H15G10823   2.526   2.284  14.557 -0.2732  0.4585  1.1806
   8123SM  C16F10824   2.647   2.129  14.665  0.0224  0.8050 -0.1497
   8123SM  H16F10825   2.617   2.060  14.583  0.3117 -0.1797  0.5609
   8123SM  H16G10826   2.585   2.104  14.753  0.9524  1.0224  0.5785
   8123SM  C17F10827   2.783   2.093  14.701 -0.2966  0.1778  0.6097
   8123SM  H17F10828   2.824   2.166  14.774 -0.7008 -1.2704  2.3486
   8123SM  H17G10829   2.850   2.099  14.612 -1.6021 -1.9800 -0.6120
   8123SM  C18F10830   2.785   1.949  14.749  0.4084  0.1310  0.5407
   8123SM  H18F10831   2.727   1.888  14.676  1.1086 -0.0481  0.1224
   8123SM  H18G10832   2.738   1.943  14.850 -1.7292  1.8394 -0.2804
   8123SM  C19F10833   2.927   1.886  14.759  0.0156  0.4748 -0.2443
   8123SM  H19F10834   2.935   1.808  14.838  1.6203  2.0198  1.1834
   8123SM  H19G10835   2.997   1.969  14.781  1.2691  0.1002 -2.5528
   8123SM  C20F10836   2.965   1.827  14.626 -0.5293  0.0161 -0.4436
   8123SM  H20F10837   2.932   1.900  14.550  0.5639  1.5790  0.5155
   8123SM  H20G10838   2.904   1.734  14.617 -0.0984 -0.4892  1.3838
   8123SM  C21F10839   3.117   1.797  14.610  0.0651 -0.1603 -0.2992
   8123SM  H21F10840   3.136   1.710  14.544  0.8689 -1.3776  1.4575
   8123SM  H21G10841   3.164   1.762  14.704  2.4055  1.6955 -0.7038
   8123SM  C22F10842   3.196   1.915  14.568  0.1124  0.0369  0.3904
   8123SM  H22F10843   3.299   1.873  14.564 -0.3246 -1.2032  1.5211
   8123SM  H22G10844   3.194   1.990  14.650  1.1573  1.5942 -0.9472
   8123SM  C23F10845   3.162   1.972  14.432  0.8103 -0.5313  0.2991
   8123SM  H23F10846   3.063   2.022  14.433  1.2159  0.3509  2.6225
   8123SM  H23G10847   3.158   1.899  14.348 -2.3879  0.4366 -0.5040
   8123SM  H23H10848   3.237   2.053  14.417 -0.0470  0.0052 -1.3506
   8223SM     N10849   3.973   3.879  12.875 -0.4268  0.1354  0.5639
   8223SM   C1510850   3.905   3.758  12.932 -0.3665 -0.2724  0.2224
   8223SM  H15A10851   3.854   3.777  13.025 -1.8244 -1.3490 -0.3259
   8223SM  H15B10852   3.977   3.679  12.947  0.1891  0.6770  3.2859
   8223SM  H15C10853   3.830   3.719  12.865 -0.3945  0.2992 -0.0917
   8223SM   C1410854   4.042   3.827  12.757 -0.3292 -0.0070  0.7594
   8223SM  H14A10855   4.072   3.907  12.691 -1.7041 -0.2241 -0.1652
   8223SM  H14B10856   3.979   3.769  12.692 -0.6087  1.0035  0.1080
   8223SM  H14C10857   4.129   3.771  12.790 -1.2366 -2.0081 -0.0790
   8223SM   C1310858   3.866   3.976  12.840  0.3881 -0.6785  0.2773
   8223SM  H13A10859   3.827   4.015  12.933 -0.4725 -1.5764  0.3039
   8223SM  H13B10860   3.785   3.927  12.789 -0.8011 -0.2629  1.6837
   8223SM  H13C10861   3.891   4.063  12.781 -4.1944  2.3776  2.2339
   8223SM   C1210862   4.077   3.933  12.977  0.3620  0.6009  0.6725
   8223SM  H12A10863   4.023   3.974  13.061 -0.4708  0.6948  0.1016
   8223SM  H12B10864   4.125   4.014  12.923 -1.8416  0.8640 -1.0166
   8223SM   C1110865   4.182   3.839  13.031  0.0952  0.2152 -0.6422
   8223SM  H11A10866   4.138   3.757  13.092  1.4821 -0.0665  0.0259
   8223SM  H11B10867   4.247   3.898  13.100 -0.8989  1.0049 -0.3608
   8223SM     P10868   4.372   3.663  12.964 -0.2062 -0.3143 -0.0228
   8223SM   O1310869   4.308   3.536  12.927  0.5026  0.5399  0.2664
   8223SM   O1410870   4.510   3.688  12.910  0.6989  0.7279 -0.4707
   8223SM   O1110871   4.374   3.667  13.122  0.6280 -0.2238  0.1034
   8223SM   O1210872   4.265   3.780  12.925  0.1771 -0.5573 -0.4422
   8223SM   C1S10873   4.456   3.570  13.188  0.4176  0.3108  0.1136
   8223SM   H1S10874   4.564   3.578  13.163 -0.1245  0.7380 -2.3692
   8223SM   H1T10875   4.421   3.465  13.175 -0.2221  0.4666  0.5415
   8223SM    NF10876   4.536   3.510  13.436  0.2010  0.3851 -0.6667
   8223SM   HNF10877   4.501   3.419  13.458 -1.5389  1.2459  0.3127
   8223SM   C2S10878   4.441   3.591  13.346  0.1228 -0.3660 -0.1422
   8223SM   H2S10879   4.464   3.699  13.355 -1.9160  0.0389  0.9040
   8223SM   C3S10880   4.292   3.581  13.389 -0.3681  0.5766  0.1452
   8223SM   H3S10881   4.255   3.479  13.368 -0.8416  0.4956  1.2892
   8223SM    O310882   4.207   3.656  13.315  0.1781  0.3331  0.0153
   8223SM   HO310883   4.252   3.681  13.234  2.0068 -0.9427  0.5681
   8223SM   C4S10884   4.286   3.606  13.537  0.8760 -0.3015 -0.2640
   8223SM   H4S10885   4.269   3.512  13.591 -0.0655  0.7771  1.4129
   8223SM   C5S10886   4.270   3.722  13.609 -0.4671  0.0690  0.3558
   8223SM   H5S10887   4.255   3.821  13.564 -1.5508  0.1560  0.8735
   8223SM   C6S10888   4.255   3.737  13.759  0.0931 -0.2172  0.4877
   8223SM   H6S10889   4.156   3.783  13.776 -0.6968 -1.0873 -1.4531
   8223SM   H6T10890   4.330   3.801  13.809 -0.7553  0.5198  0.8332
   8223SM   C7S10891   4.243   3.606  13.847  0.2885  0.0764  0.2871
   8223SM   H7S10892   4.336   3.546  13.860 -1.2985 -2.4129  0.7999
   8223SM   H7T10893   4.175   3.537  13.793  1.0366  1.4561 -2.6715
   8223SM   C8S10894   4.173   3.633  13.978 -0.6773  0.6154  0.0945
   8223SM   H8S10895   4.075   3.680  13.956 -1.8451 -0.7208  2.1699
   8223SM   H8T10896   4.233   3.705  14.038 -0.4557 -0.4261  1.1502
   8223SM   C9S10897   4.167   3.515  14.069  0.9099  0.1078 -0.5645
   8223SM   H9S10898   4.263   3.458  14.062  1.9181  1.3658  1.7939
   8223SM   H9T10899   4.083   3.446  14.044  0.1781  1.3009 -1.4948
   8223SM  C10S10900   4.166   3.543  14.218 -0.0493  0.3283 -0.0232
   8223SM  H10S10901   4.069   3.592  14.241 -0.2303  1.0268 -2.1351
   8223SM  H10T10902   4.249   3.610  14.250 -0.1853  1.0589 -1.1433
   8223SM  C11S10903   4.174   3.417  14.303  0.8826  0.0101  0.0081
   8223SM  H11S10904   4.255   3.345  14.281  1.1365  0.2617  0.1034
   8223SM  H11T10905   4.088   3.353  14.275  0.9998  0.4705 -1.4629
   8223SM  C12S10906   4.181   3.456  14.447  0.8612  0.3914 -0.6884
   8223SM  H12S10907   4.087   3.508  14.475  1.2323 -0.0056  1.4729
   8223SM  H12T10908   4.261   3.528  14.475  1.7703 -1.6278  2.4407
   8223SM  C13S10909   4.191   3.343  14.547  0.1960  0.5243 -0.6612
   8223SM  H13S10910   4.291   3.296  14.534 -0.3502 -1.1814  0.8091
   8223SM  H13T10911   4.119   3.270  14.506 -0.1937  1.1599 -1.1103
   8223SM  C14S10912   4.160   3.379  14.691  0.4541 -0.6821  0.3077
   8223SM  H14S10913   4.055   3.415  14.688  0.9048  0.7309  0.6475
   8223SM  H14T10914   4.221   3.464  14.729  2.4684 -0.6733 -2.5928
   8223SM  C15S10915   4.161   3.261  14.779  0.4558 -0.3979 -0.0875
   8223SM  H15S10916   4.255   3.202  14.769  0.1586 -0.8453 -0.3220
   8223SM  H15T10917   4.085   3.190  14.739  0.6325 -0.8291  0.3267
   8223SM  C16S10918   4.128   3.293  14.926  0.1879  0.4665  0.5932
   8223SM  H16S10919   4.025   3.333  14.926 -0.0530  0.1647 -3.0062
   8223SM  H16T10920   4.206   3.363  14.964  2.6378 -0.5080 -2.2617
   8223SM  C17S10921   4.124   3.166  15.022  0.6092  0.5362 -0.5447
   8223SM  H17S10922   4.213   3.099  15.026 -1.1621 -1.9285  0.7150
   8223SM  H17T10923   4.042   3.105  14.978 -0.3173  1.3712 -0.0008
   8223SM  C18S10924   4.088   3.196  15.165  0.2795  0.6250  0.0778
   8223SM  H18S10925   4.063   3.099  15.213  0.9362 -0.7348 -2.1647
   8223SM  H18T10926   4.004   3.268  15.177  0.9674  1.2981  0.9779
   8223SM  H18U10927   4.176   3.250  15.207  0.7637  0.3377 -0.5397
   8223SM   C1F10928   4.666   3.524  13.433 -0.6123 -0.1169 -0.1929
   8223SM    OF10929   4.719   3.608  13.363  0.1293 -0.8203  0.7267
   8223SM   C2F10930   4.750   3.417  13.494  0.3338 -0.4705 -0.2028
   8223SM   H2F10931   4.751   3.329  13.426  0.4200 -1.7529  1.4157
   8223SM   H2G10932   4.705   3.375  13.586  1.6192  0.4930  0.9002
   8223SM   C3F10933   4.901   3.449  13.515  1.0760  0.4474  0.2444
   8223SM   H3F10934   4.945   3.486  13.420  0.8429 -0.4879 -0.2422
   8223SM   H3G10935   4.950   3.349  13.524 -1.0783 -1.0233 -2.6490
   8223SM   C4F10936   4.928   3.528  13.639 -0.4454  0.2187  0.1674
   8223SM   H4F10937   4.875   3.476  13.722 -0.1100  0.5640  0.6011
   8223SM   H4G10938   4.899   3.635  13.637  0.2874  0.4949  2.0287
   8223SM   C5F10939   5.078   3.530  13.669 -0.0291  0.7737  0.3049
   8223SM   H5F10940   5.127   3.574  13.580 -0.4970 -0.8396 -0.8052
   8223SM   H5G10941   5.118   3.426  13.675 -0.9436  0.3691 -0.2806
   8223SM   C6F10942   5.103   3.590  13.803 -0.5217 -0.1817 -0.3919
   8223SM   H6F10943   5.021   3.656  13.840  0.0982 -0.0840  0.8451
   8223SM   H6G10944   5.195   3.651  13.796 -0.3938 -0.2254  0.7592
   8223SM   C7F10945   5.121   3.480  13.914  0.3580  0.1302  0.2351
   8223SM   H7F10946   5.207   3.416  13.885  1.0521  2.1569 -2.7231
   8223SM   H7G10947   5.028   3.420  13.921  1.0054 -0.7349  1.9289
   8223SM   C8F10948   5.152   3.544  14.052  0.7813 -0.6312  0.3715
   8223SM   H8F10949   5.064   3.607  14.077  1.1991  0.7801 -1.5306
   8223SM   H8G10950   5.240   3.611  14.053  0.6418 -0.4261 -0.6116
   8223SM   C9F10951   5.180   3.434  14.159  0.0708  0.4303  0.2258
   8223SM   H9F10952   5.206   3.486  14.254  4.1468 -1.3846  0.3350
   8223SM   H9G10953   5.271   3.373  14.142  0.7272  1.3335  0.3625
   8223SM  C10F10954   5.066   3.334  14.188 -0.0038  0.3558  0.4448
   8223SM  H10F10955   5.055   3.252  14.114 -0.8103  0.1331  0.7992
   8223SM  H10G10956   4.974   3.395  14.183 -0.4561 -0.3501 -0.0002
   8223SM  C11F10957   5.081   3.273  14.320  0.2863 -0.0614 -0.1045
   8223SM  H11F10958   5.098   3.348  14.400 -1.5296 -0.3696  0.6182
   8223SM  H11G10959   5.174   3.212  14.322  0.1608 -0.2790 -0.6550
   8223SM  C12F10960   4.957   3.192  14.362  0.0537 -0.2297  1.3029
   8223SM  H12F10961   4.910   3.144  14.273  1.1066  0.5590  0.3026
   8223SM  H12G10962   4.882   3.263  14.404 -1.0500  0.6982 -1.9482
   8223SM  C13F10963   4.994   3.083  14.468  0.1925  0.0388 -0.2284
   8223SM  H13F10964   5.022   3.123  14.568 -1.7534 -0.9397  0.7551
   8223SM  H13G10965   5.076   3.019  14.428 -0.8885 -1.1909 -0.5126
   8223SM  C14F10966   4.872   2.988  14.504 -0.3471  0.0352  0.1608
   8223SM  H14F10967   4.910   2.915  14.579 -1.6066 -0.1320  0.6433
   8223SM  H14G10968   4.846   2.923  14.417  0.1049 -1.5733  1.1755
   8223SM  C15F10969   4.754   3.066  14.556  0.0695  0.1795  0.2318
   8223SM  H15F10970   4.701   3.112  14.469  2.0557 -2.1261 -2.4021
   8223SM  H15G10971   4.783   3.154  14.616  0.8121  1.6464 -2.1166
   8223SM  C16F10972   4.656   2.972  14.619  0.2465  0.0431  0.1815
   8223SM  H16F10973   4.718   2.897  14.672 -1.0724 -1.2362 -0.0497
   8223SM  H16G10974   4.603   2.918  14.538  0.3504 -0.4713  0.4517
   8223SM  C17F10975   4.558   3.037  14.722 -0.6712 -0.2589 -0.2095
   8223SM  H17F10976   4.488   3.107  14.671 -1.1789  1.1359  2.2703
   8223SM  H17G10977   4.627   3.097  14.785  0.4560  0.2616 -1.8820
   8223SM  C18F10978   4.473   2.940  14.815  0.0660 -0.1434 -0.0002
   8223SM  H18F10979   4.489   2.973  14.919 -1.9186  1.3710 -0.1215
   8223SM  H18G10980   4.524   2.842  14.824  0.9391  0.2501 -0.4895
   8223SM  C19F10981   4.323   2.923  14.791  0.5926  0.5961 -0.4709
   8223SM  H19F10982   4.260   3.009  14.824 -1.7474  0.5742 -4.2785
   8223SM  H19G10983   4.284   2.835  14.846 -1.6086  0.2230 -2.4614
   8223SM  C20F10984   4.285   2.894  14.646 -0.1293 -0.0320 -0.4237
   8223SM  H20F10985   4.358   2.815  14.619 -0.1386 -0.6201  1.1933
   8223SM  H20G10986   4.312   2.975  14.575  0.6890  1.0243  1.0611
   8223SM  C21F10987   4.134   2.865  14.612 -0.3649 -0.1765  0.2390
   8223SM  H21F10988   4.107   2.924  14.521  1.9480 -1.0415 -1.0915
   8223SM  H21G10989   4.079   2.914  14.695  0.6667 -0.2109  0.9527
   8223SM  C22F10990   4.113   2.718  14.588  0.4742  0.2818  0.4332
   8223SM  H22F10991   4.176   2.657  14.655  1.1177 -0.0798 -0.4800
   8223SM  H22G10992   4.166   2.697  14.493  0.3992  0.1777  0.4150
   8223SM  C23F10993   3.960   2.681  14.585 -0.0571  0.1262 -0.1972
   8223SM  H23F10994   3.902   2.751  14.521 -0.7865 -0.3529 -0.0737
   8223SM  H23G10995   3.918   2.687  14.688 -0.9527 -1.5264 -0.4328
   8223SM  H23H10996   3.944   2.577  14.550 -0.9478  0.6013 -1.2830
   8323SM     N10997   3.894   4.527  13.249 -0.3603  0.2735  0.9858
   8323SM   C1510998   3.857   4.573  13.385 -0.2044 -0.3388 -0.2812
   8323SM  H15A10999   3.939   4.552  13.451  0.1622 -1.2282 -0.9939
   8323SM  H15B11000   3.775   4.520  13.431  1.7028 -3.3722 -0.1506
   8323SM  H15C11001   3.836   4.679  13.392  0.3591 -0.1624 -1.1153
   8323SM   C1411002   3.793   4.564  13.149  0.1377 -0.5434 -0.3361
   8323SM  H14A11003   3.824   4.525  13.053  0.6223  0.7538 -0.7190
   8323SM  H14B11004   3.777   4.670  13.142  0.6205 -0.5747 -2.6903
   8323SM  H14C11005   3.693   4.525  13.164 -1.0938  1.8813 -1.6124
   8323SM   C1311006   4.027   4.587  13.207  0.0985 -0.0462 -0.6204
   8323SM  H13A11007   4.028   4.695  13.205  1.7095  0.0219  1.0986
   8323SM  H13B11008   4.064   4.542  13.116  1.6442  1.5038 -0.8200
   8323SM  H13C11009   4.089   4.555  13.289  1.8750  2.7554 -0.7234
   8323SM   C1211010   3.920   4.374  13.245  0.3087  0.4177 -0.1542
   8323SM  H12A11011   3.828   4.334  13.286  0.4009  0.6795  0.3091
   8323SM  H12B11012   3.995   4.348  13.318 -0.9189 -0.0281  0.9981
   8323SM   C1111013   3.954   4.301  13.112 -0.0944  0.3532 -0.4875
   8323SM  H11A11014   3.859   4.311  13.055  0.0033  2.0647 -0.3996
   8323SM  H11B11015   3.972   4.193  13.126 -0.5120  0.5018  1.5017
   8323SM     P11016   4.194   4.303  12.997 -0.2029 -0.4687 -0.5240
   8323SM   O1311017   4.162   4.221  12.878 -0.5631  0.7620  0.2713
   8323SM   O1411018   4.286   4.419  12.984 -0.4446  0.4550  0.4216
   8323SM   O1111019   4.251   4.225  13.113  0.1797 -0.3625 -0.0710
   8323SM   O1211020   4.063   4.365  13.047 -0.5897  0.5467 -0.1253
   8323SM   C1S11021   4.263   4.271  13.251  0.1417 -0.1923  0.0851
   8323SM   H1S11022   4.179   4.332  13.289  1.7552  1.4862  1.1262
   8323SM   H1T11023   4.353   4.336  13.257 -0.6748  1.1938 -1.7242
   8323SM    NF11024   4.279   4.171  13.484  0.3374  0.7218  0.3785
   8323SM   HNF11025   4.358   4.197  13.541  0.8617 -0.0617  0.0235
   8323SM   C2S11026   4.298   4.151  13.342 -0.4852  0.6045 -0.1501
   8323SM   H2S11027   4.228   4.069  13.313  1.0993 -0.7861 -0.1556
   8323SM   C3S11028   4.445   4.102  13.311 -0.3570 -0.1461 -0.2926
   8323SM   H3S11029   4.511   4.191  13.317 -1.2995  0.5367  0.3256
   8323SM    O311030   4.457   4.044  13.181 -0.1148 -0.2949 -0.2861
   8323SM   HO311031   4.379   4.075  13.136  0.5047  2.9836  0.6350
   8323SM   C4S11032   4.489   3.989  13.405 -0.3260 -0.7201 -0.8262
   8323SM   H4S11033   4.447   3.889  13.387 -1.3528 -0.2209 -1.3012
   8323SM   C5S11034   4.591   4.004  13.493 -0.3247  0.2799 -0.1802
   8323SM   H5S11035   4.648   4.098  13.485  1.6580 -0.6206  2.2137
   8323SM   C6S11036   4.655   3.903  13.580  0.0420  0.2873 -0.2547
   8323SM   H6S11037   4.762   3.880  13.565  0.2515 -0.0833  1.5928
   8323SM   H6T11038   4.595   3.809  13.584 -0.4745  0.6390  0.4059
   8323SM   C7S11039   4.654   3.971  13.723 -0.2169  0.0044 -0.1787
   8323SM   H7S11040   4.554   4.001  13.759  0.2616  1.5636 -0.1070
   8323SM   H7T11041   4.718   4.061  13.712  1.3302 -1.3135 -3.8690
   8323SM   C8S11042   4.726   3.873  13.827  0.9599 -0.0767  0.3438
   8323SM   H8S11043   4.746   3.944  13.910 -1.7790 -0.2842  1.2792
   8323SM   H8T11044   4.823   3.835  13.789  0.9292 -1.6843  1.7616
   8323SM   C9S11045   4.634   3.756  13.868  0.0948  0.1146  0.4371
   8323SM   H9S11046   4.603   3.695  13.781  1.8379 -3.1146  1.8888
   8323SM   H9T11047   4.546   3.810  13.909  1.0030  0.1831  2.4407
   8323SM  C10S11048   4.694   3.675  13.984 -0.2874 -0.4249  0.0128
   8323SM  H10S11049   4.702   3.733  14.079  0.8062 -1.0417  0.3103
   8323SM  H10T11050   4.800   3.650  13.966 -0.4447 -0.4185 -0.9565
   8323SM  C11S11051   4.622   3.548  14.022 -0.9808  0.1231 -0.4458
   8323SM  H11S11052   4.603   3.484  13.933 -2.4878  3.5523 -2.7777
   8323SM  H11T11053   4.519   3.570  14.056 -0.6672  0.8142  0.0800
   8323SM  C12S11054   4.702   3.478  14.135 -0.8035 -0.8351 -0.4556
   8323SM  H12S11055   4.775   3.549  14.179 -1.7359 -0.3989  0.4149
   8323SM  H12T11056   4.759   3.388  14.102 -1.6700 -1.9053  0.8666
   8323SM  C13S11057   4.610   3.425  14.245 -0.0514 -0.0073 -0.1699
   8323SM  H13S11058   4.650   3.336  14.298  0.7114  0.6290  0.3425
   8323SM  H13T11059   4.527   3.376  14.189  0.8394 -1.4365 -0.2874
   8323SM  C14S11060   4.551   3.536  14.330 -0.1546  0.6017  0.3990
   8323SM  H14S11061   4.464   3.500  14.389 -0.8639  0.5611 -0.6289
   8323SM  H14T11062   4.509   3.618  14.268 -1.0420 -0.5219 -0.5311
   8323SM  C15S11063   4.656   3.588  14.435  0.2570 -0.0880  0.0701
   8323SM  H15S11064   4.607   3.665  14.498  1.2699 -0.9775  2.0137
   8323SM  H15T11065   4.745   3.638  14.391  1.6082 -2.4486 -0.0104
   8323SM  C16S11066   4.705   3.475  14.530  0.5428 -0.9921 -0.4682
   8323SM  H16S11067   4.748   3.386  14.479  0.5754 -1.1393 -0.1813
   8323SM  H16T11068   4.615   3.444  14.587  0.2224 -0.5311 -0.7120
   8323SM  C17S11069   4.821   3.509  14.632  0.9446 -0.4496  0.9364
   8323SM  H17S11070   4.889   3.552  14.555 -1.2538 -0.1040 -0.9162
   8323SM  H17T11071   4.858   3.420  14.687 -0.0944 -1.2309  0.4087
   8323SM  C18S11072   4.788   3.623  14.723  0.4642 -0.0930  0.6039
   8323SM  H18S11073   4.696   3.613  14.784 -0.5867  0.2276 -0.8842
   8323SM  H18T11074   4.787   3.723  14.674  1.6531 -0.9904 -1.4090
   8323SM  H18U11075   4.873   3.632  14.793 -0.4570 -2.4728  2.1447
   8323SM   C1F11076   4.157   4.182  13.535 -0.2630  0.1441 -0.0627
   8323SM    OF11077   4.063   4.146  13.472  0.1043  0.5490  0.2657
   8323SM   C2F11078   4.144   4.232  13.682 -0.2883  0.4894  0.4142
   8323SM   H2F11079   4.038   4.204  13.701  0.0236 -0.1834  1.1977
   8323SM   H2G11080   4.155   4.342  13.694  0.6634  0.4443  0.0905
   8323SM   C3F11081   4.227   4.155  13.787 -0.2044  0.3238 -0.4967
   8323SM   H3F11082   4.332   4.192  13.784 -0.9991  2.9300  0.4754
   8323SM   H3G11083   4.227   4.050  13.753  1.3616  0.9692 -2.7208
   8323SM   C4F11084   4.162   4.178  13.926  0.4348  0.2505  0.1600
   8323SM   H4F11085   4.058   4.139  13.930  0.8270 -0.7115  1.6935
   8323SM   H4G11086   4.155   4.289  13.937 -1.6794  0.2004 -0.1844
   8323SM   C5F11087   4.235   4.100  14.041 -0.0107 -0.5165 -0.0175
   8323SM   H5F11088   4.232   3.990  14.023 -2.8185 -0.7328  1.2834
   8323SM   H5G11089   4.174   4.118  14.132 -1.4747 -0.1689 -1.0388
   8323SM   C6F11090   4.375   4.145  14.083  0.0015 -0.6064 -0.2987
   8323SM   H6F11091   4.359   4.251  14.110 -3.7790 -0.1035 -3.4973
   8323SM   H6G11092   4.436   4.148  13.990  0.9127  2.7353  0.2950
   8323SM   C7F11093   4.443   4.053  14.187 -0.1286 -0.0858  0.3773
   8323SM   H7F11094   4.540   4.106  14.201 -0.6061  1.0558 -0.5024
   8323SM   H7G11095   4.477   3.958  14.141  0.7960  0.3484  0.1319
   8323SM   C8F11096   4.358   4.029  14.309  0.0137 -0.2176 -0.7734
   8323SM   H8F11097   4.277   3.953  14.297  0.1682 -0.7101  1.0025
   8323SM   H8G11098   4.317   4.121  14.355  0.3437 -0.6671  0.4628
   8323SM   C9F11099   4.456   3.971  14.422  0.9434 -0.3339 -0.9122
   8323SM   H9F11100   4.525   4.057  14.443 -0.7973  1.0767 -0.7348
   8323SM   H9G11101   4.507   3.885  14.374 -0.2265 -3.1912  2.6128
   8323SM  C10F11102   4.381   3.946  14.551  0.5917  0.9168 -0.3380
   8323SM  H10F11103   4.330   4.037  14.589  0.3520  0.0077  1.6403
   8323SM  H10G11104   4.451   3.919  14.633  0.0139  1.2595  0.2836
   8323SM  C11F11105   4.298   3.811  14.550 -0.6381 -0.5269  0.5916
   8323SM  H11F11106   4.371   3.730  14.570  0.9355  0.8401  0.6293
   8323SM  H11G11107   4.255   3.789  14.450 -0.6971  0.6911  0.3240
   8323SM  C12F11108   4.172   3.806  14.637  0.2090  0.1351 -0.8265
   8323SM  H12F11109   4.195   3.850  14.737  1.1255  0.8624 -1.3400
   8323SM  H12G11110   4.139   3.701  14.647  0.0498  0.1454 -1.2438
   8323SM  C13F11111   4.058   3.896  14.588 -0.5658  0.1756  0.0226
   8323SM  H13F11112   4.094   4.001  14.578  0.1219  0.1057  1.5644
   8323SM  H13G11113   3.975   3.899  14.662  0.0387 -0.3019  0.7259
   8323SM  C14F11114   3.992   3.841  14.463  0.6961 -0.4852 -0.5892
   8323SM  H14F11115   3.969   3.733  14.476  4.6372 -1.2816  1.4206
   8323SM  H14G11116   4.065   3.854  14.380  0.1642  0.8392 -0.8735
   8323SM  C15F11117   3.870   3.923  14.428  0.3773  0.5258  0.1806
   8323SM  H15F11118   3.905   4.028  14.429  1.1207  0.2905  1.4883
   8323SM  H15G11119   3.802   3.918  14.516  3.5135  0.9750  2.7924
   8323SM  C16F11120   3.801   3.885  14.300  0.2510 -0.4498  0.2646
   8323SM  H16F11121   3.701   3.932  14.284  1.3809  2.0960  0.1097
   8323SM  H16G11122   3.784   3.775  14.300  2.7849 -0.9081 -1.2144
   8323SM  C17F11123   3.870   3.922  14.171 -0.1139  0.7072 -0.3979
   8323SM  H17F11124   3.955   3.855  14.152 -1.5555 -1.1424 -0.5847
   8323SM  H17G11125   3.896   4.030  14.173  0.4729  0.5584  0.3035
   8323SM  C18F11126   3.773   3.899  14.055 -0.3232 -0.6480 -0.1087
   8323SM  H18F11127   3.682   3.961  14.070  1.2189  1.2861  1.9883
   8323SM  H18G11128   3.751   3.790  14.062  0.1133 -0.7758 -0.6351
   8323SM  C19F11129   3.839   3.926  13.918 -0.3520  0.2581  0.5762
   8323SM  H19F11130   3.924   3.854  13.913  0.1951  0.9392 -0.1006
   8323SM  H19G11131   3.876   4.030  13.908  0.2750  0.0692  0.8579
   8323SM  C20F11132   3.738   3.916  13.801 -0.4572  0.6760 -0.0484
   8323SM  H20F11133   3.671   4.004  13.814 -0.6605  0.3720  1.1451
   8323SM  H20G11134   3.673   3.826  13.813  2.4627 -1.4408  0.9960
   8323SM  C21F11135   3.801   3.912  13.660 -0.7110 -0.5951  0.4469
   8323SM  H21F11136   3.843   3.811  13.639 -1.6172 -0.8234 -0.3941
   8323SM  H21G11137   3.875   3.993  13.650 -0.4148 -0.9142  0.0116
   8323SM  C22F11138   3.705   3.947  13.548 -0.1502 -0.2742  0.1580
   8323SM  H22F11139   3.766   3.959  13.455 -1.2409  1.2389 -0.3985
   8323SM  H22G11140   3.655   4.041  13.578 -0.6998 -0.9014  1.2535
   8323SM  C23F11141   3.592   3.853  13.510  0.0516 -0.8266  0.5874
   8323SM  H23F11142   3.625   3.756  13.467  0.0011 -1.1977  1.3540
   8323SM  H23G11143   3.522   3.898  13.436  0.2394 -0.6275  0.5294
   8323SM  H23H11144   3.534   3.827  13.601 -2.5254 -0.3051 -0.8051
   8423SM     N11145   5.328   1.613  12.905  0.3618  0.1496 -0.0199
   8423SM   C1511146   5.461   1.585  12.968  0.3568 -0.9194  0.1919
   8423SM  H15A11147   5.533   1.590  12.888  0.0993  1.5061  0.0330
   8423SM  H15B11148   5.469   1.488  13.015  0.3703 -0.9108  0.2077
   8423SM  H15C11149   5.480   1.662  13.040 -2.9005  0.6355 -0.4101
   8423SM   C1411150   5.326   1.763  12.866  0.1577  1.1494  0.3715
   8423SM  H14A11151   5.232   1.792  12.821 -0.9273 -1.4461  0.7777
   8423SM  H14B11152   5.406   1.782  12.795  1.1712  2.2807  1.7597
   8423SM  H14C11153   5.352   1.822  12.952  3.0755 -1.2700  1.3326
   8423SM   C1311154   5.310   1.532  12.778  0.4990  0.1293  0.2583
   8423SM  H13A11155   5.212   1.550  12.738 -0.3023 -1.7421  1.3052
   8423SM  H13B11156   5.319   1.428  12.805  0.9018  0.4890  1.5907
   8423SM  H13C11157   5.394   1.556  12.714  0.1916 -0.3266 -0.3253
   8423SM   C1211158   5.217   1.592  12.998 -0.0861 -0.4748 -1.2383
   8423SM  H12A11159   5.122   1.598  12.947  0.5916 -0.2164 -2.5268
   8423SM  H12B11160   5.215   1.668  13.074  1.0251  0.9459 -2.5455
   8423SM   C1111161   5.196   1.455  13.061 -0.5597 -0.7941  0.7581
   8423SM  H11A11162   5.111   1.468  13.131 -0.8962 -3.2146  0.8858
   8423SM  H11B11163   5.289   1.433  13.118  0.2287  0.1366 -0.1363
   8423SM     P11164   5.033   1.346  12.890  0.1733  0.3771  0.2525
   8423SM   O1311165   4.980   1.485  12.864 -0.2344  0.1029 -0.0195
   8423SM   O1411166   5.043   1.260  12.762  0.6134  0.0979 -0.7423
   8423SM   O1111167   4.949   1.275  13.005  0.0187  0.2257  0.2152
   8423SM   O1211168   5.174   1.357  12.960 -0.5474  0.2189 -0.5734
   8423SM   C1S11169   4.963   1.136  13.042 -0.7976 -0.4389 -0.2681
   8423SM   H1S11170   5.031   1.081  12.974 -1.2131 -0.1154 -0.9618
   8423SM   H1T11171   4.863   1.086  13.043 -0.8861 -0.2682 -0.4504
   8423SM    NF11172   5.076   0.993  13.222 -0.0093 -0.1857  0.2398
   8423SM   HNF11173   5.003   0.944  13.271  1.5881 -1.1117  1.8254
   8423SM   C2S11174   5.034   1.129  13.187  0.2134 -0.4180  0.4380
   8423SM   H2S11175   5.131   1.182  13.177  0.9156 -1.5273  1.1033
   8423SM   C3S11176   4.936   1.195  13.294 -0.0386 -0.8278  0.4346
   8423SM   H3S11177   4.846   1.132  13.312 -0.0127 -0.1024  3.7288
   8423SM    O311178   4.898   1.336  13.261  0.2510 -0.0596  0.5709
   8423SM   HO311179   4.931   1.345  13.172 -1.2778 -0.4368 -0.0722
   8423SM   C4S11180   4.998   1.195  13.429  0.5118 -0.3265 -0.1085
   8423SM   H4S11181   5.082   1.267  13.436  1.9412 -1.9137 -0.1808
   8423SM   C5S11182   4.961   1.123  13.538  0.1987  0.0516 -0.0208
   8423SM   H5S11183   4.874   1.056  13.536  2.2955 -2.8643 -2.5218
   8423SM   C6S11184   5.020   1.139  13.681  0.5223 -0.4841  0.2770
   8423SM   H6S11185   5.116   1.194  13.690  1.0046 -1.6472  2.9288
   8423SM   H6T11186   5.055   1.041  13.718  1.5050 -0.0401  0.5575
   8423SM   C7S11187   4.929   1.219  13.788 -0.1543 -0.0439  0.0048
   8423SM   H7S11188   4.821   1.198  13.772 -1.5117  4.0465  2.3413
   8423SM   H7T11189   4.946   1.325  13.763  2.2483 -0.6415 -1.1429
   8423SM   C8S11190   4.964   1.197  13.939  0.2546  0.0494  0.5177
   8423SM   H8S11191   5.073   1.218  13.949  0.3184  0.9574 -1.5958
   8423SM   H8T11192   4.947   1.090  13.965  2.1626 -0.6282 -0.8153
   8423SM   C9S11193   4.877   1.280  14.033  0.0387 -0.1072 -0.6693
   8423SM   H9S11194   4.771   1.250  14.018 -0.1093  0.7086 -1.3304
   8423SM   H9T11195   4.886   1.388  14.008  0.4660  0.2056  0.7742
   8423SM  C10S11196   4.916   1.275  14.177 -0.2123 -0.0449  0.1252
   8423SM  H10S11197   5.024   1.292  14.195  0.1451 -1.5360 -0.4600
   8423SM  H10T11198   4.893   1.174  14.215 -0.8331 -0.8018 -2.1227
   8423SM  C11S11199   4.835   1.375  14.261 -0.2265  0.6644 -0.0761
   8423SM  H11S11200   4.729   1.355  14.237  0.3291 -2.4936 -0.3572
   8423SM  H11T11201   4.865   1.478  14.234 -0.3242  0.7957  0.3101
   8423SM  C12S11202   4.857   1.360  14.410  0.3339  0.4237 -0.0230
   8423SM  H12S11203   4.825   1.261  14.449  3.1757 -1.2998 -1.7641
   8423SM  H12T11204   4.801   1.437  14.468  0.1363  2.4854 -2.7449
   8423SM  C13S11205   5.000   1.394  14.451 -0.2472 -0.2000 -0.1119
   8423SM  H13S11206   5.031   1.501  14.448  3.2449 -1.0024  2.2308
   8423SM  H13T11207   5.067   1.327  14.394  0.0245 -1.0815  1.1925
   8423SM  C14S11208   5.013   1.358  14.599  0.6576 -0.2317  0.1087
   8423SM  H14S11209   4.987   1.251  14.616 -0.0462 -0.1371 -0.3323
   8423SM  H14T11210   4.931   1.408  14.655  0.4211  1.4039 -1.6156
   8423SM  C15S11211   5.152   1.389  14.653  1.0634 -1.1979 -0.2751
   8423SM  H15S11212   5.172   1.490  14.611 -1.7133 -0.3063  0.3293
   8423SM  H15T11213   5.232   1.324  14.611  0.2079 -2.7987  0.4515
   8423SM  C16S11214   5.155   1.409  14.804  0.5419 -0.0428 -0.0701
   8423SM  H16S11215   5.071   1.470  14.845  0.0702  0.4641 -1.7204
   8423SM  H16T11216   5.249   1.461  14.832 -0.1260  1.7951 -1.0989
   8423SM  C17S11217   5.147   1.273  14.877  0.0292  0.2005 -0.7177
   8423SM  H17S11218   5.226   1.201  14.848  2.3852  2.6649 -0.6684
   8423SM  H17T11219   5.052   1.224  14.845  0.7933 -0.6875 -1.6945
   8423SM  C18S11220   5.134   1.299  15.026  0.5988 -0.1617 -0.0884
   8423SM  H18S11221   5.232   1.327  15.071  2.3247 -1.2179 -2.9288
   8423SM  H18T11222   5.096   1.205  15.070  0.0169  0.2037  0.2082
   8423SM  H18U11223   5.060   1.380  15.045 -0.6456 -1.0234 -1.1129
   8423SM   C1F11224   5.181   0.934  13.166  1.1843 -0.5016 -0.0083
   8423SM    OF11225   5.263   1.007  13.106  0.1002 -0.3675  0.8113
   8423SM   C2F11226   5.197   0.786  13.170 -0.2419 -0.7638  0.1929
   8423SM   H2F11227   5.232   0.765  13.067 -0.2072  1.1976 -0.2352
   8423SM   H2G11228   5.099   0.735  13.184  0.2509 -1.5914  0.7443
   8423SM   C3F11229   5.311   0.742  13.268  0.5973  1.2342  0.7090
   8423SM   H3F11230   5.398   0.810  13.253  0.8671  0.5763 -1.0094
   8423SM   H3G11231   5.333   0.636  13.240 -0.9584  1.6565 -2.6332
   8423SM   C4F11232   5.267   0.739  13.416 -0.1395  0.7532  0.0312
   8423SM   H4F11233   5.171   0.687  13.434  2.0416 -3.4886  0.7815
   8423SM   H4G11234   5.263   0.845  13.450  3.6948  0.2398  2.8327
   8423SM   C5F11235   5.383   0.669  13.498 -0.0346 -0.0259  0.0097
   8423SM   H5F11236   5.466   0.742  13.498 -0.6475  0.6987  1.0343
   8423SM   H5G11237   5.403   0.573  13.444 -1.0613 -0.8160  0.9810
   8423SM   C6F11238   5.351   0.627  13.646  0.1239  0.1958 -0.0123
   8423SM   H6F11239   5.445   0.579  13.682 -0.2246 -0.7645 -0.3591
   8423SM   H6G11240   5.275   0.548  13.660 -0.1190  0.4953  0.3573
   8423SM   C7F11241   5.310   0.746  13.733  0.2587  0.4933  0.1158
   8423SM   H7F11242   5.205   0.775  13.708  0.0993  0.6345  0.9389
   8423SM   H7G11243   5.389   0.819  13.707  0.4658  0.0721 -0.4633
   8423SM   C8F11244   5.318   0.723  13.885  0.2514  0.4039 -0.1508
   8423SM   H8F11245   5.423   0.702  13.915 -0.2957  0.3164  1.8736
   8423SM   H8G11246   5.263   0.629  13.908  1.3991  0.1495  1.7489
   8423SM   C9F11247   5.256   0.830  13.972 -0.1650  0.1396  0.5016
   8423SM   H9F11248   5.237   0.767  14.062  0.8500 -0.4654  0.3059
   8423SM   H9G11249   5.166   0.864  13.918  1.2106  4.0580  0.3718
   8423SM  C10F11250   5.359   0.936  13.996  0.2427  0.5941 -0.1826
   8423SM  H10F11251   5.384   0.970  13.894 -3.7268  2.1037 -0.8277
   8423SM  H10G11252   5.456   0.894  14.033 -0.4737 -0.7332  0.2482
   8423SM  C11F11253   5.298   1.061  14.069 -1.3468 -0.1877  0.7232
   8423SM  H11F11254   5.227   1.012  14.139 -0.4631  0.6666  2.2675
   8423SM  H11G11255   5.249   1.124  13.992  0.1481  0.0916 -0.0469
   8423SM  C12F11256   5.412   1.136  14.146 -0.5715  0.3800 -0.6566
   8423SM  H12F11257   5.494   1.171  14.080 -0.5852  0.9232 -0.3865
   8423SM  H12G11258   5.451   1.076  14.231 -3.0861 -1.4920 -0.7248
   8423SM  C13F11259   5.349   1.263  14.208  0.4736  0.8262  0.1478
   8423SM  H13F11260   5.273   1.239  14.285  2.2300  0.9928  2.0188
   8423SM  H13G11261   5.305   1.318  14.123 -0.0452  3.5230  2.0237
   8423SM  C14F11262   5.460   1.358  14.261  0.2300  0.3116  0.4247
   8423SM  H14F11263   5.532   1.368  14.176  2.4798 -1.3888  2.0068
   8423SM  H14G11264   5.509   1.311  14.349  0.5640 -1.2121 -0.5367
   8423SM  C15F11265   5.403   1.493  14.297 -0.0897 -0.8637 -0.9365
   8423SM  H15F11266   5.309   1.465  14.349 -0.4327  0.5791 -0.7327
   8423SM  H15G11267   5.362   1.552  14.212  1.2158  1.4266 -0.0643
   8423SM  C16F11268   5.486   1.581  14.382 -0.3254  0.1674  0.1583
   8423SM  H16F11269   5.578   1.610  14.326  0.0852  0.1754  0.8290
   8423SM  H16G11270   5.514   1.532  14.477 -1.5336 -0.9590 -0.0427
   8423SM  C17F11271   5.413   1.708  14.430 -0.6116 -0.3398  0.1616
   8423SM  H17F11272   5.313   1.682  14.471  0.7862 -1.6493  3.1019
   8423SM  H17G11273   5.404   1.769  14.338 -0.4881 -0.3818  0.1225
   8423SM  C18F11274   5.496   1.804  14.526 -0.3166 -0.2916 -0.2336
   8423SM  H18F11275   5.445   1.902  14.533  0.2208  0.0260 -0.6361
   8423SM  H18G11276   5.600   1.813  14.487 -0.6238 -1.5839 -1.4367
   8423SM  C19F11277   5.518   1.743  14.664 -0.0413 -0.1575  0.3944
   8423SM  H19F11278   5.566   1.646  14.641  1.6385  1.4247 -3.7900
   8423SM  H19G11279   5.434   1.721  14.732 -0.0187  2.5388  1.4144
   8423SM  C20F11280   5.633   1.819  14.748  0.4418  0.3283  0.1365
   8423SM  H20F11281   5.715   1.849  14.679 -0.4822 -0.2955 -1.2828
   8423SM  H20G11282   5.674   1.757  14.830 -1.8664 -1.6120 -0.0824
   8423SM  C21F11283   5.576   1.942  14.816  0.5436  0.0432 -0.5936
   8423SM  H21F11284   5.501   1.914  14.893  0.1029 -1.2710 -1.4623
   8423SM  H21G11285   5.520   2.001  14.740 -1.1640 -0.9563 -0.1618
   8423SM  C22F11286   5.687   2.027  14.883  0.5935  0.4113 -0.4283
   8423SM  H22F11287   5.645   2.129  14.893 -1.2351 -0.2852 -0.5175
   8423SM  H22G11288   5.765   2.036  14.804  1.3155 -0.4511  0.1684
   8423SM  C23F11289   5.746   1.984  15.018  0.9821  0.4347 -0.5997
   8423SM  H23F11290   5.811   2.069  15.048  0.3395  0.6608  0.1762
   8423SM  H23G11291   5.806   1.891  15.011  1.0858  0.3213  1.2573
   8423SM  H23H11292   5.667   1.968  15.094  0.5587  0.4064 -1.0371
   8523SM     N11293   5.699   2.888  12.963  0.2294  0.0929 -0.2519
   8523SM   C1511294   5.566   2.833  13.003 -0.3097  0.0321  0.0059
   8523SM  H15A11295   5.564   2.771  13.091  1.2203  1.7168  1.3210
   8523SM  H15B11296   5.523   2.792  12.913  1.2169  0.9185 -1.1689
   8523SM  H15C11297   5.505   2.919  13.028 -0.6314 -0.3415  0.5377
   8523SM   C1411298   5.781   2.771  12.921  0.1465 -0.9183 -0.1556
   8523SM  H14A11299   5.747   2.682  12.970 -1.0728  0.7202  2.1578
   8523SM  H14B11300   5.882   2.784  12.959  0.2459  2.9109 -1.2667
   8523SM  H14C11301   5.785   2.762  12.813  1.3699  2.8319 -0.5878
   8523SM   C1311302   5.689   2.993  12.854 -0.3197  0.0901 -0.7555
   8523SM  H13A11303   5.654   3.090  12.886  0.7882  0.8654 -1.8075
   8523SM  H13B11304   5.635   2.961  12.766 -0.6944 -1.0060 -0.1441
   8523SM  H13C11305   5.788   3.011  12.815  0.7248 -0.9311  1.2734
   8523SM   C1211306   5.765   2.959  13.087 -0.7808  0.1263 -0.1508
   8523SM  H12A11307   5.750   2.894  13.172  3.3053  0.6818  1.2298
   8523SM  H12B11308   5.706   3.049  13.099 -0.2466  0.7824 -2.0301
   8523SM   C1111309   5.916   2.999  13.091  0.5195  0.2259 -0.1278
   8523SM  H11A11310   5.936   3.054  13.186 -0.5440 -2.4637  1.7982
   8523SM  H11B11311   5.942   3.080  13.020  2.8443  1.1544  1.6203
   8523SM     P11312   6.161   2.891  13.048 -0.2524  0.1518  0.5196
   8523SM   O1311313   6.208   2.751  13.036 -0.2128 -1.0152  0.0718
   8523SM   O1411314   6.193   2.978  12.933 -0.0339 -0.0037  0.8519
   8523SM   O1111315   6.224   2.946  13.181  0.2905  0.4771  0.1374
   8523SM   O1211316   6.001   2.881  13.082 -0.1409 -0.5490  0.2723
   8523SM   C1S11317   6.177   2.885  13.302 -0.5141 -0.3849 -0.7815
   8523SM   H1S11318   6.099   2.806  13.300 -0.2375 -0.8528  2.0710
   8523SM   H1T11319   6.139   2.961  13.375 -2.9802 -2.1016 -0.1308
   8523SM    NF11320   6.243   2.750  13.511  0.1879 -0.0132 -0.6415
   8523SM   HNF11321   6.245   2.802  13.596  1.1007 -1.0622  0.0137
   8523SM   C2S11322   6.294   2.818  13.389 -1.1775 -0.0189 -0.1039
   8523SM   H2S11323   6.345   2.754  13.314  0.4234 -1.4354  2.0959
   8523SM   C3S11324   6.397   2.936  13.423  0.1580  0.5682 -0.4516
   8523SM   H3S11325   6.341   3.018  13.473 -0.6374 -1.1705  1.6871
   8523SM    O311326   6.452   3.003  13.306  0.7112 -0.5375 -0.5587
   8523SM   HO311327   6.406   2.970  13.229  0.0528  1.8161 -1.2453
   8523SM   C4S11328   6.497   2.884  13.520  0.1991  0.0698 -0.1305
   8523SM   H4S11329   6.457   2.893  13.622 -2.4745 -1.7024 -0.9318
   8523SM   C5S11330   6.631   2.839  13.505  1.4710  0.1581  0.3186
   8523SM   H5S11331   6.673   2.842  13.403  2.4355  0.9643  0.7257
   8523SM   C6S11332   6.711   2.780  13.609 -0.3084  0.8228 -0.4207
   8523SM   H6S11333   6.788   2.848  13.651  1.1066 -0.4284 -0.8996
   8523SM   H6T11334   6.775   2.704  13.559  0.2387  0.1955  1.1372
   8523SM   C7S11335   6.634   2.711  13.719 -0.1479  0.0794 -0.4319
   8523SM   H7S11336   6.589   2.622  13.670  3.4693 -1.5679 -1.1279
   8523SM   H7T11337   6.562   2.783  13.763  2.9468  2.4699  1.1547
   8523SM   C8S11338   6.730   2.659  13.829  0.3740  0.4600 -0.6381
   8523SM   H8S11339   6.804   2.732  13.867  1.7664 -1.6880  0.9522
   8523SM   H8T11340   6.792   2.575  13.791 -2.1940 -1.6791 -0.4065
   8523SM   C9S11341   6.654   2.614  13.953 -0.0107 -0.0428 -0.8491
   8523SM   H9S11342   6.632   2.708  14.008  1.8332 -0.7992  1.3793
   8523SM   H9T11343   6.724   2.556  14.017  0.2920  0.8549 -0.3412
   8523SM  C10S11344   6.529   2.529  13.925  0.1770 -0.4970 -0.0840
   8523SM  H10S11345   6.548   2.493  13.821  1.8003  1.5312 -0.5671
   8523SM  H10T11346   6.430   2.578  13.913 -0.0357 -1.1502 -1.1791
   8523SM  C11S11347   6.510   2.408  14.023  0.0607  0.1696 -0.3364
   8523SM  H11S11348   6.596   2.340  14.008  1.6203  1.7163  1.1186
   8523SM  H11T11349   6.422   2.356  13.980  1.0968 -1.6786 -0.3034
   8523SM  C12S11350   6.498   2.463  14.163  0.5594  0.6476 -0.5864
   8523SM  H12S11351   6.417   2.538  14.175  2.0481  2.8355 -3.2435
   8523SM  H12T11352   6.592   2.513  14.197  1.1836 -0.3692 -0.7586
   8523SM  C13S11353   6.485   2.351  14.269 -0.0920 -0.3024  0.1863
   8523SM  H13S11354   6.590   2.324  14.295  0.2997  0.4009 -0.6213
   8523SM  H13T11355   6.421   2.269  14.230 -2.1187  0.2034  2.2879
   8523SM  C14S11356   6.416   2.401  14.392  0.3125 -0.0111  0.4000
   8523SM  H14S11357   6.311   2.415  14.356  0.8384  0.5871 -0.9917
   8523SM  H14T11358   6.466   2.496  14.422  2.0519 -0.8883  0.3723
   8523SM  C15S11359   6.420   2.292  14.502 -0.4893  0.0147  0.3612
   8523SM  H15S11360   6.522   2.253  14.524  0.2849  2.5268  1.6561
   8523SM  H15T11361   6.359   2.213  14.454  0.5907 -0.1913 -0.7078
   8523SM  C16S11362   6.354   2.338  14.634 -0.6041 -0.6190  0.7206
   8523SM  H16S11363   6.252   2.371  14.608  0.4520  0.8940 -1.9269
   8523SM  H16T11364   6.411   2.415  14.691 -1.3408 -1.1136  2.1819
   8523SM  C17S11365   6.330   2.221  14.730 -0.0506 -0.3198  0.0361
   8523SM  H17S11366   6.423   2.183  14.777 -0.6967 -0.3891  1.2737
   8523SM  H17T11367   6.281   2.145  14.665 -0.4456 -0.5500  0.5984
   8523SM  C18S11368   6.238   2.272  14.845 -0.3584 -0.6456  0.8942
   8523SM  H18S11369   6.136   2.287  14.803  0.0889 -0.4084 -0.1303
   8523SM  H18T11370   6.271   2.364  14.898 -0.6330 -1.3136  2.2747
   8523SM  H18U11371   6.218   2.198  14.926 -1.1678 -0.2484  1.0603
   8523SM   C1F11372   6.170   2.637  13.509 -0.8142  0.2719 -0.9583
   8523SM    OF11373   6.137   2.585  13.401  0.2172 -0.7057  0.3749
   8523SM   C2F11374   6.127   2.571  13.634 -0.4275 -0.0245 -0.3876
   8523SM   H2F11375   6.017   2.553  13.628 -0.3389 -0.6103 -0.3043
   8523SM   H2G11376   6.161   2.633  13.720  3.0812  0.4483 -1.9774
   8523SM   C3F11377   6.199   2.433  13.640 -0.0355 -0.5597 -0.6200
   8523SM   H3F11378   6.296   2.451  13.691 -0.3217 -1.2302  0.1781
   8523SM   H3G11379   6.211   2.377  13.546 -0.8072  0.6892 -1.4940
   8523SM   C4F11380   6.127   2.336  13.744 -0.9364  0.4444  0.5418
   8523SM   H4F11381   6.184   2.241  13.727  0.1552  1.1692  0.0107
   8523SM   H4G11382   6.033   2.330  13.685  0.4778  0.2648 -1.8443
   8523SM   C5F11383   6.123   2.386  13.881 -0.5798  0.0785  0.0878
   8523SM   H5F11384   6.067   2.482  13.891 -1.8045 -0.2077 -2.9033
   8523SM   H5G11385   6.225   2.406  13.920 -0.3390  1.3387 -1.1086
   8523SM   C6F11386   6.066   2.275  13.974  0.5284  0.4485  0.4386
   8523SM   H6F11387   6.112   2.177  13.948 -1.0123 -0.4062  0.7804
   8523SM   H6G11388   5.957   2.274  13.954  0.5693  3.1121 -0.2827
   8523SM   C7F11389   6.093   2.300  14.126 -0.4608 -0.5949 -0.0470
   8523SM   H7F11390   6.040   2.392  14.158 -1.6933 -1.9281  1.9205
   8523SM   H7G11391   6.201   2.318  14.145 -0.4262  0.6241 -1.2301
   8523SM   C8F11392   6.043   2.186  14.214  0.2199 -0.0591 -0.0314
   8523SM   H8F11393   6.123   2.110  14.219  1.8900  1.6383  0.4411
   8523SM   H8G11394   5.946   2.149  14.174 -0.0667 -0.2809  0.8394
   8523SM   C9F11395   6.013   2.247  14.358  0.4117 -0.3823  0.3387
   8523SM   H9F11396   5.920   2.306  14.347 -0.2850 -1.7381 -1.6125
   8523SM   H9G11397   6.090   2.323  14.380 -0.1160  0.6591 -1.2243
   8523SM  C10F11398   6.016   2.147  14.468  0.2947 -0.1607  0.5278
   8523SM  H10F11399   6.115   2.136  14.517  0.6018  3.5215  1.0198
   8523SM  H10G11400   5.998   2.053  14.412 -0.7678 -0.2585  1.0103
   8523SM  C11F11401   5.909   2.178  14.575  0.2062 -0.3414  0.2434
   8523SM  H11F11402   5.928   2.110  14.661  0.9813 -1.2011 -0.5977
   8523SM  H11G11403   5.811   2.155  14.530  0.0659 -0.2561  0.5008
   8523SM  C12F11404   5.907   2.327  14.623  0.2196  0.2705  0.1986
   8523SM  H12F11405   5.874   2.398  14.544  0.7087  0.9175  0.5728
   8523SM  H12G11406   6.013   2.354  14.637  0.5304 -0.7881  0.0132
   8523SM  C13F11407   5.816   2.349  14.754 -0.4981 -0.8554  0.5107
   8523SM  H13F11408   5.852   2.287  14.839 -1.5656  0.3189  1.8553
   8523SM  H13G11409   5.720   2.305  14.718 -0.5059 -1.0859  0.8066
   8523SM  C14F11410   5.797   2.497  14.787  0.0005 -0.4371  0.3297
   8523SM  H14F11411   5.736   2.537  14.704 -2.0419 -3.2540  0.3255
   8523SM  H14G11412   5.887   2.562  14.788 -1.5308  2.0348 -3.1419
   8523SM  C15F11413   5.706   2.538  14.909  0.5991  0.3372  0.1524
   8523SM  H15F11414   5.702   2.648  14.895 -3.3661  0.1166 -1.7200
   8523SM  H15G11415   5.758   2.514  15.004 -3.7255 -2.1584  2.1641
   8523SM  C16F11416   5.569   2.462  14.912  0.4363  0.4186 -0.2376
   8523SM  H16F11417   5.511   2.506  14.996  1.6445 -0.4802  1.1234
   8523SM  H16G11418   5.601   2.359  14.938  0.6039  0.0294 -1.8533
   8523SM  C17F11419   5.492   2.467  14.782  0.4491 -0.6808  0.8762
   8523SM  H17F11420   5.558   2.443  14.696  0.5602  1.1115  0.4136
   8523SM  H17G11421   5.460   2.573  14.765  1.7274  0.0257  2.5267
   8523SM  C18F11422   5.370   2.374  14.788 -0.1196  0.5854 -0.2172
   8523SM  H18F11423   5.310   2.410  14.874  0.8911  1.2327  0.2297
   8523SM  H18G11424   5.392   2.268  14.814  1.6824  1.1265  0.5574
   8523SM  C19F11425   5.282   2.380  14.656 -0.3213  0.4295  0.0089
   8523SM  H19F11426   5.196   2.310  14.663 -1.3401  1.5206 -1.0922
   8523SM  H19G11427   5.346   2.345  14.572  0.4169 -1.8320  1.4088
   8523SM  C20F11428   5.228   2.522  14.620  0.1851 -0.1929 -0.4710
   8523SM  H20F11429   5.313   2.589  14.595 -1.0618  1.7065  0.1862
   8523SM  H20G11430   5.170   2.565  14.705  1.4695  0.5192  0.0741
   8523SM  C21F11431   5.139   2.521  14.498  0.3448  0.1449 -0.3730
   8523SM  H21F11432   5.061   2.443  14.508  1.3502 -0.8551 -0.0435
   8523SM  H21G11433   5.195   2.491  14.407 -1.2730  2.0503 -2.1061
   8523SM  C22F11434   5.072   2.653  14.470 -0.1203 -0.4866  0.5339
   8523SM  H22F11435   5.151   2.731  14.471 -2.3397  1.8887  0.9626
   8523SM  H22G11436   5.000   2.684  14.549 -3.3064 -0.4514 -2.1401
   8523SM  C23F11437   5.007   2.653  14.331  0.4953  0.9182 -0.6559
   8523SM  H23F11438   5.072   2.626  14.245 -0.5325  0.3166 -1.2671
   8523SM  H23G11439   4.965   2.754  14.313  1.2367  1.1991 -0.8111
   8523SM  H23H11440   4.928   2.575  14.338  2.4348 -1.0600  0.5713
   8623SM     N11441   5.109   0.881  12.574 -0.1281 -0.1123 -0.3945
   8623SM   C1511442   5.014   0.781  12.507  0.3760  0.7155 -0.3698
   8623SM  H15A11443   4.920   0.790  12.560 -0.1294  1.1798 -1.3174
   8623SM  H15B11444   5.049   0.681  12.524  0.2157  0.7877  0.4156
   8623SM  H15C11445   4.992   0.810  12.405 -0.9776 -1.0619 -0.6424
   8623SM   C1411446   5.248   0.872  12.506  0.1217 -0.1329  0.2830
   8623SM  H14A11447   5.251   0.889  12.400  0.7212 -0.1220  0.2976
   8623SM  H14B11448   5.286   0.771  12.514 -0.3697 -0.5346 -1.9691
   8623SM  H14C11449   5.317   0.944  12.548 -0.5727  0.1786  0.9123
   8623SM   C1311450   5.045   1.018  12.551 -0.3294  0.6278  0.0930
   8623SM  H13A11451   5.023   1.025  12.446 -0.1852 -1.2990 -0.0979
   8623SM  H13B11452   5.114   1.094  12.585  1.3608 -0.5539 -0.5517
   8623SM  H13C11453   4.951   1.006  12.602 -0.4192 -0.8714 -0.3594
   8623SM   C1211454   5.116   0.855  12.723 -0.2650  0.4464  0.2359
   8623SM  H12A11455   5.183   0.927  12.768  0.6604  1.6315 -2.8356
   8623SM  H12B11456   5.148   0.754  12.747 -2.3571 -0.1994  0.4928
   8623SM   C1111457   4.989   0.864  12.808  0.3177 -0.2811  0.4278
   8623SM  H11A11458   4.966   0.973  12.812 -3.0748 -0.9076  1.6684
   8623SM  H11B11459   5.021   0.826  12.908 -0.3463  0.0826  0.7872
   8623SM     P11460   4.734   0.857  12.743  0.3246  0.2192  0.0374
   8623SM   O1311461   4.743   0.966  12.640  0.1178  0.7281 -0.2826
   8623SM   O1411462   4.623   0.760  12.715  0.3441  0.1246  0.2036
   8623SM   O1111463   4.709   0.920  12.886  0.3682 -0.5167  0.0075
   8623SM   O1211464   4.879   0.786  12.756  0.0231 -0.5262 -0.2915
   8623SM   C1S11465   4.691   0.835  12.998  0.3405  0.5445  0.4470
   8623SM   H1S11466   4.786   0.781  13.019  1.3500  1.9601 -0.3112
   8623SM   H1T11467   4.614   0.757  12.976  0.7507  0.7554 -2.0667
   8623SM    NF11468   4.630   0.799  13.219  0.1714 -0.2495 -0.1325
   8623SM   HNF11469   4.545   0.747  13.224 -1.0453  1.4502 -1.7159
   8623SM   C2S11470   4.635   0.906  13.127  0.0886  0.3246  0.4637
   8623SM   H2S11471   4.717   0.974  13.162  1.5052 -0.5036 -1.0821
   8623SM   C3S11472   4.513   0.990  13.099  0.4183  0.3573  0.4810
   8623SM   H3S11473   4.433   0.920  13.066  0.1834  1.1093 -0.5594
   8623SM    O311474   4.532   1.085  12.995  0.3031 -0.3175  0.1508
   8623SM   HO311475   4.605   1.051  12.943  2.2363  1.8933  1.2659
   8623SM   C4S11476   4.469   1.063  13.223 -0.4878 -0.7730  0.6621
   8623SM   H4S11477   4.371   1.035  13.263 -0.4682  0.9497  2.0426
   8623SM   C5S11478   4.542   1.162  13.281  0.1862  0.1705  0.6366
   8623SM   H5S11479   4.633   1.208  13.239  1.0661 -2.1906 -0.2402
   8623SM   C6S11480   4.502   1.236  13.398  0.1624 -0.7102 -0.4614
   8623SM   H6S11481   4.405   1.197  13.435  0.6452 -3.0008 -1.4215
   8623SM   H6T11482   4.494   1.343  13.368 -1.2003 -0.5055  0.5358
   8623SM   C7S11483   4.584   1.240  13.521  0.4059 -0.6913 -0.2497
   8623SM   H7S11484   4.690   1.258  13.491 -0.2472  1.5573 -1.4583
   8623SM   H7T11485   4.572   1.146  13.578  0.0006  0.8678  2.4032
   8623SM   C8S11486   4.546   1.352  13.620 -0.0771 -0.0507  0.0738
   8623SM   H8S11487   4.541   1.455  13.578 -1.0903  0.0909  0.4956
   8623SM   H8T11488   4.630   1.340  13.691 -0.8188 -1.9827  0.6946
   8623SM   C9S11489   4.411   1.324  13.680 -0.6584 -0.0337 -0.5957
   8623SM   H9S11490   4.386   1.216  13.686 -0.3503 -0.2220 -2.2070
   8623SM   H9T11491   4.331   1.378  13.624 -2.1074 -0.7412  0.7045
   8623SM  C10S11492   4.405   1.381  13.826  0.1518  0.3226 -0.0660
   8623SM  H10S11493   4.295   1.381  13.844 -0.4919  1.2719 -3.3382
   8623SM  H10T11494   4.435   1.488  13.822 -0.5085  0.4875 -1.0207
   8623SM  C11S11495   4.485   1.294  13.933  0.3026 -0.3241  0.9635
   8623SM  H11S11496   4.585   1.308  13.887 -0.1601 -0.5756 -0.1618
   8623SM  H11T11497   4.458   1.187  13.930  0.9602 -0.5321  2.1757
   8623SM  C12S11498   4.481   1.344  14.069  0.3734  0.3924  0.0730
   8623SM  H12S11499   4.526   1.446  14.080 -0.1338  0.6601 -0.2776
   8623SM  H12T11500   4.547   1.276  14.126  1.2525 -0.6747 -2.1034
   8623SM  C13S11501   4.342   1.358  14.121 -0.9052  0.5649  0.1634
   8623SM  H13S11502   4.283   1.265  14.121 -2.2457  1.3833  0.8110
   8623SM  H13T11503   4.288   1.423  14.048  0.7332 -0.0504 -1.6809
   8623SM  C14S11504   4.343   1.425  14.262  0.2062 -0.3146  0.2249
   8623SM  H14S11505   4.402   1.519  14.248  0.5616 -0.5789 -0.0742
   8623SM  H14T11506   4.396   1.356  14.331 -1.8778 -1.7130  0.5365
   8623SM  C15S11507   4.198   1.462  14.296 -0.4427  0.1166  0.3726
   8623SM  H15S11508   4.133   1.376  14.323  0.9323 -0.7312  1.0433
   8623SM  H15T11509   4.154   1.515  14.208  0.5604 -1.7360 -1.3359
   8623SM  C16S11510   4.193   1.555  14.422  0.2488  0.2647  0.7867
   8623SM  H16S11511   4.234   1.649  14.379 -2.4568 -0.2977 -3.7149
   8623SM  H16T11512   4.246   1.508  14.508 -1.0759  0.2539  1.6354
   8623SM  C17S11513   4.053   1.583  14.467  0.1220  0.0639  0.3842
   8623SM  H17S11514   4.006   1.616  14.371 -0.7151  0.4440  0.9111
   8623SM  H17T11515   4.049   1.669  14.537  1.6351 -0.7534  1.5282
   8623SM  C18S11516   3.964   1.475  14.524  0.3086  0.1257  0.2848
   8623SM  H18S11517   3.950   1.391  14.453 -0.8682 -0.6329  1.3778
   8623SM  H18T11518   3.862   1.519  14.521 -0.1506 -0.8254  1.2482
   8623SM  H18U11519   3.990   1.441  14.626 -0.9698 -1.3466  0.1528
   8623SM   C1F11520   4.739   0.759  13.288  0.5772 -0.3531 -0.5555
   8623SM    OF11521   4.850   0.811  13.266  0.0132 -0.1471 -0.1515
   8623SM   C2F11522   4.720   0.650  13.387  0.3813  0.4680  0.0460
   8623SM   H2F11523   4.650   0.572  13.350  0.0290  0.6290  0.3742
   8623SM   H2G11524   4.685   0.703  13.478 -0.0784 -1.7575  1.2507
   8623SM   C3F11525   4.854   0.581  13.426 -0.0927  0.0417  0.0908
   8623SM   H3F11526   4.921   0.669  13.438  0.3955 -0.2717 -0.2668
   8623SM   H3G11527   4.898   0.529  13.338  0.6430  1.2934 -0.3002
   8623SM   C4F11528   4.860   0.486  13.545  0.4690 -0.0632 -0.2691
   8623SM   H4F11529   4.965   0.451  13.554  1.3386  1.9582 -1.8216
   8623SM   H4G11530   4.796   0.397  13.526  0.0092  0.6342 -2.3110
   8623SM   C5F11531   4.804   0.544  13.679  0.1585  0.0671 -0.7953
   8623SM   H5F11532   4.821   0.475  13.765 -0.0771  1.3007  0.2598
   8623SM   H5G11533   4.695   0.561  13.673 -0.0003  0.3793  1.7267
   8623SM   C6F11534   4.875   0.672  13.715  0.8145 -0.1936 -0.2609
   8623SM   H6F11535   4.884   0.736  13.625  0.2390  1.2208  0.6480
   8623SM   H6G11536   4.971   0.634  13.757  0.0413 -3.2448 -1.0178
   8623SM   C7F11537   4.809   0.751  13.819 -0.8040 -0.6343  0.1405
   8623SM   H7F11538   4.878   0.823  13.868 -2.2590 -0.0135  1.3532
   8623SM   H7G11539   4.787   0.686  13.907  0.7543 -1.3395  0.0300
   8623SM   C8F11540   4.689   0.843  13.777  0.2177  0.4667 -0.0731
   8623SM   H8F11541   4.598   0.781  13.767 -0.7564  1.3849  2.3306
   8623SM   H8G11542   4.705   0.892  13.679 -1.2980 -0.9005 -1.0445
   8623SM   C9F11543   4.661   0.946  13.887  0.2444  0.2411  0.3815
   8623SM   H9F11544   4.576   1.011  13.855  0.8163  0.4855 -0.6489
   8623SM   H9G11545   4.755   1.002  13.904  0.2800 -0.6066  3.7228
   8623SM  C10F11546   4.620   0.882  14.020  0.3030  0.3737 -0.8287
   8623SM  H10F11547   4.691   0.804  14.056 -3.1418 -2.4244  0.4461
   8623SM  H10G11548   4.524   0.834  13.994 -0.3273 -0.9889  3.2780
   8623SM  C11F11549   4.600   0.986  14.133 -0.2426  0.1381  0.2642
   8623SM  H11F11550   4.530   1.061  14.088  1.0975  0.4160 -1.4353
   8623SM  H11G11551   4.695   1.038  14.156 -0.4956  2.2935 -2.9185
   8623SM  C12F11552   4.526   0.937  14.260  0.3053 -0.2630  0.3977
   8623SM  H12F11553   4.592   0.888  14.335 -0.6961 -3.0168 -0.4227
   8623SM  H12G11554   4.444   0.863  14.253 -0.7546  0.8801  0.3493
   8623SM  C13F11555   4.445   1.055  14.334 -0.2322  0.0676  0.5703
   8623SM  H13F11556   4.376   1.097  14.258 -1.1861  0.3864  1.5845
   8623SM  H13G11557   4.512   1.139  14.363  3.1227 -2.3242  0.4465
   8623SM  C14F11558   4.371   0.999  14.456  0.3462 -0.0737 -0.2330
   8623SM  H14F11559   4.440   0.943  14.522  0.3851  2.1709  1.7446
   8623SM  H14G11560   4.296   0.925  14.418  0.0937 -0.2807  0.6480
   8623SM  C15F11561   4.309   1.106  14.542 -0.0383 -1.3273 -0.1020
   8623SM  H15F11562   4.239   1.166  14.480 -0.1882 -1.8503 -0.4532
   8623SM  H15G11563   4.385   1.171  14.590 -1.0028 -1.4277  1.6622
   8623SM  C16F11564   4.226   1.047  14.659  0.3857  0.0103  0.8342
   8623SM  H16F11565   4.277   0.958  14.703 -0.5977 -0.4380  1.0971
   8623SM  H16G11566   4.137   1.014  14.601  1.7581 -3.1353  0.2933
   8623SM  C17F11567   4.195   1.153  14.767 -0.3784  0.3943 -0.6356
   8623SM  H17F11568   4.107   1.212  14.732 -2.1484 -1.1044  1.0419
   8623SM  H17G11569   4.279   1.223  14.786  1.1989 -1.2707 -1.1717
   8623SM  C18F11570   4.146   1.074  14.886 -0.7209 -0.2458  0.2253
   8623SM  H18F11571   4.215   0.988  14.899  1.2729  1.0874 -0.9474
   8623SM  H18G11572   4.055   1.029  14.841 -0.4954  0.9467 -1.5492
   8623SM  C19F11573   4.121   1.150  15.016  0.3842  0.2696 -0.1265
   8623SM  H19F11574   4.072   1.085  15.092  2.7630 -2.3226 -0.6506
   8623SM  H19G11575   4.049   1.229  14.986  0.0037  0.4971  1.2762
   8623SM  C20F11576   4.251   1.199  15.077 -0.1646  0.2689 -0.2132
   8623SM  H20F11577   4.311   1.253  15.000 -1.1428  2.4848  0.4977
   8623SM  H20G11578   4.306   1.103  15.092 -0.6426 -0.2135 -1.4056
   8623SM  C21F11579   4.246   1.257  15.215  0.2142 -0.8973  0.3041
   8623SM  H21F11580   4.167   1.335  15.220 -0.7687 -1.9054  0.5759
   8623SM  H21G11581   4.350   1.296  15.228  0.6262 -1.2262 -1.6826
   8623SM  C22F11582   4.217   1.152  15.321  0.8756 -0.4384  0.2974
   8623SM  H22F11583   4.286   1.066  15.307  2.0554 -0.7773  5.8372
   8623SM  H22G11584   4.112   1.116  15.315  0.5290  0.5774  0.2033
   8623SM  C23F11585   4.229   1.209  15.461 -0.1259 -0.3088 -0.0220
   8623SM  H23F11586   4.208   1.146  15.550  0.1257  1.5554  1.4080
   8623SM  H23G11587   4.153   1.290  15.469  0.0898 -0.1169  0.0841
   8623SM  H23H11588   4.329   1.257  15.464 -0.1331 -0.0771 -2.0958
   8723SM     N11589   4.980   0.151  12.435 -0.1305 -0.2289  0.1812
   8723SM   C1511590   4.850   0.214  12.477 -0.6349  0.1671  0.0268
   8723SM  H15A11591   4.819   0.302  12.422  1.4264 -0.0385 -1.5999
   8723SM  H15B11592   4.871   0.243  12.579 -1.8231  0.2659  0.2592
   8723SM  H15C11593   4.780   0.132  12.476  1.0075 -1.3395 -2.0157
   8723SM   C1411594   5.013   0.055  12.537 -0.6488 -0.2809  0.3090
   8723SM  H14A11595   4.957  -0.038  12.534 -0.8878 -0.1182 -0.4458
   8723SM  H14B11596   5.013   0.101  12.634 -1.8204 -0.2957  0.3343
   8723SM  H14C11597   5.109   0.019  12.502 -1.2543  0.5000 -2.4015
   8723SM   C1311598   4.952   0.081  12.306  0.6334 -0.3633  0.4446
   8723SM  H13A11599   4.919   0.147  12.227  1.4899 -1.9023 -1.2949
   8723SM  H13B11600   4.861   0.025  12.316  0.2706  0.1935  0.2933
   8723SM  H13C11601   5.027   0.014  12.266  0.3236  0.6662 -2.0529
   8723SM   C1211602   5.084   0.257  12.418 -0.2029 -0.2971 -0.0047
   8723SM  H12A11603   5.047   0.329  12.347  1.8874  0.2462 -0.6004
   8723SM  H12B11604   5.171   0.214  12.371  1.8725  1.7484  1.7454
   8723SM   C1111605   5.132   0.337  12.541 -0.5629  0.5124 -0.1979
   8723SM  H11A11606   5.180   0.266  12.611  0.3442  1.9173  0.6628
   8723SM  H11B11607   5.049   0.392  12.590 -0.0652  1.8778 -0.8336
   8723SM     P11608   5.314   0.521  12.605 -0.1837 -0.0322 -0.6663
   8723SM   O1311609   5.413   0.600  12.532 -0.0682  0.3765  0.3691
   8723SM   O1411610   5.211   0.590  12.689  0.3825  0.0404 -0.4265
   8723SM   O1111611   5.383   0.400  12.686 -0.6063 -0.5855 -0.7867
   8723SM   O1211612   5.225   0.434  12.501 -0.3608  0.4243  0.0014
   8723SM   C1S11613   5.472   0.434  12.794  0.1053  0.0298 -0.6140
   8723SM   H1S11614   5.538   0.518  12.765  1.7002  0.0557  2.6273
   8723SM   H1T11615   5.542   0.348  12.804 -0.0550 -0.0801 -0.4438
   8723SM    NF11616   5.481   0.525  13.024 -0.1083 -0.9052 -0.2782
   8723SM   HNF11617   5.516   0.471  13.101  0.1257  0.2792  0.4697
   8723SM   C2S11618   5.395   0.469  12.924 -0.2785  0.7172  0.5870
   8723SM   H2S11619   5.319   0.547  12.898  0.2967  1.5704  1.4118
   8723SM   C3S11620   5.314   0.340  12.974  0.5612 -0.7080 -0.2352
   8723SM   H3S11621   5.389   0.259  12.980 -0.0218 -1.2512 -0.1269
   8723SM    O311622   5.204   0.299  12.891 -0.1781  0.2326 -0.0582
   8723SM   HO311623   5.209   0.367  12.823 -0.5603  0.4729  0.1508
   8723SM   C4S11624   5.263   0.380  13.106  0.2980  0.1584  0.1160
   8723SM   H4S11625   5.195   0.466  13.101  1.0075  0.6623 -2.0732
   8723SM   C5S11626   5.305   0.320  13.217  0.8164  0.2390 -0.2518
   8723SM   H5S11627   5.381   0.240  13.215 -0.5162 -1.0871  0.1622
   8723SM   C6S11628   5.257   0.350  13.355  0.9672  0.4806 -0.1993
   8723SM   H6S11629   5.206   0.447  13.369 -1.5902 -1.1355  2.8923
   8723SM   H6T11630   5.349   0.373  13.412  0.0079 -0.4313  1.8245
   8723SM   C7S11631   5.193   0.237  13.443  0.1517 -0.4743 -1.0613
   8723SM   H7S11632   5.243   0.140  13.424 -3.0087 -2.1166 -1.7139
   8723SM   H7T11633   5.087   0.229  13.410 -0.7955  1.3729  1.1785
   8723SM   C8S11634   5.200   0.262  13.599  0.6220 -0.6715  0.1939
   8723SM   H8S11635   5.160   0.363  13.621  1.3441  0.3074 -2.5471
   8723SM   H8T11636   5.307   0.278  13.627  0.5081  2.2091 -0.6794
   8723SM   C9S11637   5.132   0.157  13.687  0.8445 -0.5065 -0.2167
   8723SM   H9S11638   5.173   0.054  13.675 -0.8748 -1.3758  0.9275
   8723SM   H9T11639   5.024   0.164  13.660  0.3276  0.5311  1.8472
   8723SM  C10S11640   5.140   0.200  13.839  0.4727  0.2746 -0.0881
   8723SM  H10S11641   5.099   0.303  13.850 -0.8389 -0.4161  2.3429
   8723SM  H10T11642   5.244   0.198  13.877  1.2118 -2.6735 -1.9455
   8723SM  C11S11643   5.061   0.115  13.936  0.0312 -0.4765  0.1924
   8723SM  H11S11644   5.085   0.009  13.912 -0.2247 -0.4916 -0.0020
   8723SM  H11T11645   4.952   0.117  13.913  0.1539  0.2367 -0.3717
   8723SM  C12S11646   5.099   0.151  14.080  0.8215 -0.2256 -0.5094
   8723SM  H12S11647   5.207   0.173  14.093  0.4689  0.9603  0.6328
   8723SM  H12T11648   5.075   0.062  14.142  0.0199  2.0392  2.7080
   8723SM  C13S11649   5.008   0.260  14.147  0.3409 -0.1259  0.1152
   8723SM  H13S11650   5.018   0.250  14.257  0.1252 -0.3432  0.1146
   8723SM  H13T11651   4.903   0.257  14.111  0.4117  1.2435 -0.2339
   8723SM  C14S11652   5.066   0.398  14.118 -0.2595 -0.5574  0.2848
   8723SM  H14S11653   5.026   0.431  14.019 -0.7046 -2.1758 -0.0915
   8723SM  H14T11654   5.177   0.398  14.108 -0.1712  3.6630 -1.0627
   8723SM  C15S11655   5.015   0.509  14.209  0.1061 -0.4771  0.7615
   8723SM  H15S11656   5.067   0.603  14.182 -1.4369  0.0266 -0.6232
   8723SM  H15T11657   5.035   0.482  14.314  0.1422 -0.1086  0.8492
   8723SM  C16S11658   4.860   0.525  14.187 -0.0778 -0.2239 -0.3858
   8723SM  H16S11659   4.829   0.461  14.102 -0.4180 -0.9255  0.2525
   8723SM  H16T11660   4.843   0.627  14.148 -0.8562 -0.4042 -0.5449
   8723SM  C17S11661   4.780   0.487  14.311 -0.8919 -0.8165  0.0158
   8723SM  H17S11662   4.818   0.535  14.403 -0.5967 -1.3114  0.1569
   8723SM  H17T11663   4.803   0.380  14.334  1.0907 -0.4743 -0.2502
   8723SM  C18S11664   4.627   0.510  14.288 -0.0269 -0.5154  0.6871
   8723SM  H18S11665   4.592   0.449  14.202  0.3594 -0.1186  0.2428
   8723SM  H18T11666   4.602   0.616  14.268 -1.3772 -1.2889 -2.2554
   8723SM  H18U11667   4.558   0.481  14.370 -2.8750 -1.7514 -1.9494
   8723SM   C1F11668   5.532   0.647  13.009  0.1191  0.3496 -0.5642
   8723SM    OF11669   5.508   0.729  12.919  0.3005 -0.2104 -0.1433
   8723SM   C2F11670   5.638   0.677  13.110  0.3085 -0.8059 -0.3062
   8723SM   H2F11671   5.733   0.627  13.081  1.1101  0.9133 -0.7561
   8723SM   H2G11672   5.611   0.634  13.209  1.8116  0.9866  0.9492
   8723SM   C3F11673   5.670   0.827  13.115  0.1649 -0.1429 -0.9467
   8723SM   H3F11674   5.577   0.880  13.143 -0.1648 -1.5563  0.7910
   8723SM   H3G11675   5.690   0.877  13.018 -1.4066  0.4711 -0.9682
   8723SM   C4F11676   5.775   0.868  13.209  0.2945 -0.2413  0.2245
   8723SM   H4F11677   5.787   0.978  13.204  2.0518 -0.4472 -2.7397
   8723SM   H4G11678   5.877   0.842  13.172  0.0653 -1.5484  0.4739
   8723SM   C5F11679   5.748   0.822  13.352  0.6142 -0.7535  0.2976
   8723SM   H5F11680   5.708   0.719  13.365 -1.3763 -0.0422  0.1734
   8723SM   H5G11681   5.673   0.891  13.396  0.8260 -1.0839  1.2060
   8723SM   C6F11682   5.873   0.841  13.441  0.0987 -0.3702  0.3443
   8723SM   H6F11683   5.943   0.917  13.400 -0.7053  0.1579 -0.0868
   8723SM   H6G11684   5.911   0.737  13.441 -0.5222 -0.7118 -3.0271
   8723SM   C7F11685   5.851   0.875  13.591  0.0985  0.6316 -0.3413
   8723SM   H7F11686   5.806   0.976  13.600 -1.0906  0.0216  0.9105
   8723SM   H7G11687   5.955   0.880  13.629 -0.1932  0.7267  0.4594
   8723SM   C8F11688   5.779   0.764  13.672 -0.4940  0.1485 -0.4125
   8723SM   H8F11689   5.835   0.669  13.662  0.2701  0.4808  0.5677
   8723SM   H8G11690   5.671   0.745  13.650 -0.7368  2.1031 -1.1794
   8723SM   C9F11691   5.772   0.813  13.821 -0.1969 -0.1616 -0.9035
   8723SM   H9F11692   5.697   0.745  13.867  1.6194 -3.2153 -2.1552
   8723SM   H9G11693   5.738   0.919  13.820 -2.2934 -0.7018  1.8228
   8723SM  C10F11694   5.904   0.794  13.904  0.0405  0.2132  0.2291
   8723SM  H10F11695   5.966   0.886  13.895  0.7136  0.0258  2.4278
   8723SM  H10G11696   5.964   0.714  13.855  1.6208  1.0744  0.6739
   8723SM  C11F11697   5.896   0.769  14.053  0.9837 -0.3036  0.0542
   8723SM  H11F11698   5.813   0.823  14.105  1.0490 -2.2452  2.3503
   8723SM  H11G11699   5.990   0.805  14.099  3.1438 -1.6610 -3.0019
   8723SM  C12F11700   5.903   0.622  14.090 -0.0587  0.1477 -0.2412
   8723SM  H12F11701   5.964   0.561  14.019  1.5298 -0.1792  1.3563
   8723SM  H12G11702   5.803   0.575  14.083 -0.2733  0.7104 -1.1947
   8723SM  C13F11703   5.956   0.599  14.237  0.2324 -0.1190 -0.0229
   8723SM  H13F11704   5.889   0.660  14.301 -1.1966 -1.4616 -0.1665
   8723SM  H13G11705   6.056   0.643  14.257 -0.3058  0.2813  1.9874
   8723SM  C14F11706   5.953   0.455  14.297 -0.3934 -0.2467  0.1813
   8723SM  H14F11707   6.047   0.404  14.268  0.4384  0.5810  1.3242
   8723SM  H14G11708   5.869   0.400  14.250 -2.1939  1.9770  0.6118
   8723SM  C15F11709   5.941   0.437  14.450  0.2669 -0.5422 -0.1872
   8723SM  H15F11710   5.908   0.332  14.467  1.3801 -1.0052 -0.7947
   8723SM  H15G11711   5.857   0.495  14.493  0.7439 -0.9410  1.3376
   8723SM  C16F11712   6.080   0.461  14.519  0.0633 -0.4117  0.0258
   8723SM  H16F11713   6.129   0.553  14.483 -0.4143 -1.0958 -2.5729
   8723SM  H16G11714   6.143   0.375  14.488 -1.0482 -0.6315 -1.7371
   8723SM  C17F11715   6.070   0.458  14.676  1.0504  0.1338  0.1406
   8723SM  H17F11716   6.058   0.353  14.711  1.2060 -0.0216 -0.2604
   8723SM  H17G11717   5.972   0.508  14.693  0.6869 -0.8515  1.0208
   8723SM  C18F11718   6.179   0.532  14.747  0.1248 -0.2735  0.6501
   8723SM  H18F11719   6.181   0.629  14.692 -0.9684 -1.8165 -2.3865
   8723SM  H18G11720   6.281   0.489  14.735  0.8072  1.2556  0.6504
   8723SM  C19F11721   6.150   0.547  14.898  0.3016  0.3507 -0.0617
   8723SM  H19F11722   6.051   0.597  14.907  0.5812  0.8190  0.4397
   8723SM  H19G11723   6.222   0.614  14.949  2.3653 -0.2817 -1.9833
   8723SM  C20F11724   6.122   0.417  14.985 -0.2682  0.4747  0.5499
   8723SM  H20F11725   6.084   0.329  14.927 -0.1871  0.3214  0.7290
   8723SM  H20G11726   6.056   0.441  15.071 -2.1641 -1.3334 -0.2999
   8723SM  C21F11727   6.253   0.364  15.056  0.3177 -0.0593  0.6978
   8723SM  H21F11728   6.314   0.439  15.111  2.9972 -3.3168  2.5443
   8723SM  H21G11729   6.313   0.335  14.967 -0.5879  0.2589 -0.0343
   8723SM  C22F11730   6.223   0.256  15.158 -0.3312 -0.0020  0.4363
   8723SM  H22F11731   6.163   0.179  15.106 -1.2624  0.5952  0.6077
   8723SM  H22G11732   6.172   0.301  15.246 -2.2853  1.1239 -1.1881
   8723SM  C23F11733   6.344   0.179  15.220  0.3830  0.0575  0.4446
   8723SM  H23F11734   6.408   0.252  15.275  0.2256 -0.8860  1.9248
   8723SM  H23G11735   6.394   0.126  15.136  1.8550  0.2108  1.1882
   8723SM  H23H11736   6.307   0.098  15.286 -1.6251  0.2992 -0.3420
   8823SM     N11737   1.953   1.661  12.707  0.0265  0.3022 -0.3370
   8823SM   C1511738   1.882   1.590  12.596  0.4714 -0.0684  0.3906
   8823SM  H15A11739   1.817   1.658  12.545  0.2468 -0.2363  0.4512
   8823SM  H15B11740   1.807   1.519  12.627 -1.3634 -0.3214 -3.9528
   8823SM  H15C11741   1.948   1.534  12.531 -0.1860 -0.3965 -0.0075
   8823SM   C1411742   2.056   1.752  12.664  0.0271 -0.6427  0.1922
   8823SM  H14A11743   2.025   1.809  12.578  1.9746  0.8970  0.4385
   8823SM  H14B11744   2.142   1.691  12.640 -1.6737 -2.7053 -1.0402
   8823SM  H14C11745   2.083   1.822  12.742 -0.9522 -0.9118  0.7909
   8823SM   C1311746   1.854   1.741  12.788 -0.2715  0.8450  0.7497
   8823SM  H13A11747   1.772   1.681  12.824 -1.6831  1.1266 -1.7007
   8823SM  H13B11748   1.811   1.824  12.734 -1.7113 -0.6487 -0.5140
   8823SM  H13C11749   1.900   1.796  12.869  0.2164  0.0519  1.0225
   8823SM   C1211750   2.014   1.548  12.802 -0.0911 -0.5891  0.2002
   8823SM  H12A11751   2.088   1.488  12.751 -1.6381 -2.2572 -0.1817
   8823SM  H12B11752   1.934   1.485  12.837 -0.5564 -0.8108 -1.2259
   8823SM   C1111753   2.091   1.595  12.938  0.1142  0.4164 -0.0055
   8823SM  H11A11754   2.134   1.508  12.992 -1.1888  0.6941  1.5901
   8823SM  H11B11755   2.012   1.624  13.011 -0.1855 -0.3564 -0.0177
   8823SM     P11756   2.329   1.631  12.851  0.2621  0.1658 -0.3149
   8823SM   O1311757   2.305   1.483  12.831 -0.0961  0.0578  0.5988
   8823SM   O1411758   2.374   1.708  12.736  0.4252 -0.1460 -0.1769
   8823SM   O1111759   2.440   1.638  12.963 -0.3645  0.4759  0.0137
   8823SM   O1211760   2.196   1.694  12.916 -0.6226  0.4864 -0.3242
   8823SM   C1S11761   2.428   1.621  13.104  0.1499  0.1212 -0.2433
   8823SM   H1S11762   2.347   1.691  13.134 -0.5539 -0.7593 -0.0389
   8823SM   H1T11763   2.515   1.674  13.147 -0.4443 -1.2119  2.8645
   8823SM    NF11764   2.402   1.482  13.311  0.5470 -0.0128 -0.5752
   8823SM   HNF11765   2.477   1.465  13.375 -2.1714 -1.0241  2.6275
   8823SM   C2S11766   2.432   1.479  13.169 -0.2369 -0.3048  0.1666
   8823SM   H2S11767   2.349   1.425  13.119 -0.5507  1.0032 -0.7531
   8823SM   C3S11768   2.567   1.398  13.129  0.1007 -0.2333  0.0186
   8823SM   H3S11769   2.652   1.464  13.156 -2.1590  1.8037  2.7073
   8823SM    O311770   2.577   1.359  12.996  0.5136 -0.9013 -0.3858
   8823SM   HO311771   2.510   1.407  12.946  1.5261 -0.4876 -1.3709
   8823SM   C4S11772   2.575   1.284  13.227 -0.0826  0.7092  0.6697
   8823SM   H4S11773   2.622   1.301  13.325 -2.4125 -0.0466  2.0059
   8823SM   C5S11774   2.532   1.161  13.192 -0.2152 -0.3523  0.4604
   8823SM   H5S11775   2.488   1.144  13.093 -0.3171  0.1568  0.4148
   8823SM   C6S11776   2.548   1.039  13.280 -0.3090 -0.1100 -0.9459
   8823SM   H6S11777   2.610   0.964  13.226  2.1356  2.0768 -1.3489
   8823SM   H6T11778   2.454   0.982  13.295 -1.1666  1.6726  0.9639
   8823SM   C7S11779   2.613   1.058  13.425 -0.2576  0.2284  0.2083
   8823SM   H7S11780   2.549   1.127  13.484 -0.6733 -0.5440  0.6830
   8823SM   H7T11781   2.714   1.102  13.411 -0.7989  1.0122 -1.5753
   8823SM   C8S11782   2.618   0.926  13.498 -0.5856  0.6414 -0.1745
   8823SM   H8S11783   2.696   0.862  13.450  1.5092  2.2119  0.9651
   8823SM   H8T11784   2.523   0.868  13.497 -1.5286  2.1513 -0.6991
   8823SM   C9S11785   2.655   0.944  13.652  0.4603 -0.8240 -0.7775
   8823SM   H9S11786   2.582   1.020  13.687  1.3802  0.6683 -1.9508
   8823SM   H9T11787   2.751   1.000  13.660  1.4289 -1.8896 -3.7316
   8823SM  C10S11788   2.675   0.820  13.741  0.6711 -0.7216 -0.0926
   8823SM  H10S11789   2.747   0.755  13.687  1.4068 -1.2403  1.4477
   8823SM  H10T11790   2.575   0.771  13.737  0.6110 -0.5332 -0.9647
   8823SM  C11S11791   2.703   0.867  13.886  0.3979  0.0716 -1.1755
   8823SM  H11S11792   2.635   0.947  13.921  0.2780 -0.5697  0.0952
   8823SM  H11T11793   2.805   0.912  13.893  0.2639  0.4968 -1.8219
   8823SM  C12S11794   2.686   0.754  13.993  0.6270  0.1015  0.3177
   8823SM  H12S11795   2.750   0.670  13.959  0.3038  0.1784 -0.5293
   8823SM  H12T11796   2.585   0.710  14.004  1.4862 -1.7061  1.4153
   8823SM  C13S11797   2.739   0.791  14.133 -0.0487  0.2305 -0.8557
   8823SM  H13S11798   2.682   0.873  14.181  0.3369  0.0613 -0.0859
   8823SM  H13T11799   2.845   0.816  14.116  0.0726 -1.3993 -2.9428
   8823SM  C14S11800   2.753   0.671  14.236 -0.3788 -0.2865  0.2744
   8823SM  H14S11801   2.842   0.704  14.294  1.1664 -0.2072 -2.0349
   8823SM  H14T11802   2.790   0.582  14.181  1.3827 -0.2455  1.3005
   8823SM  C15S11803   2.626   0.657  14.328  0.0625  0.1787  0.1415
   8823SM  H15S11804   2.538   0.647  14.260  1.2011 -2.7720 -1.0363
   8823SM  H15T11805   2.618   0.753  14.384  2.2831  0.0035  0.8598
   8823SM  C16S11806   2.633   0.534  14.418  0.1353  0.5578  0.3129
   8823SM  H16S11807   2.645   0.449  14.347 -0.6364  0.8047 -0.1248
   8823SM  H16T11808   2.540   0.512  14.475 -0.2513 -0.1799 -0.5642
   8823SM  C17S11809   2.750   0.542  14.517 -0.1168  1.0200 -0.2280
   8823SM  H17S11810   2.751   0.627  14.589 -1.3806 -0.0794  1.1523
   8823SM  H17T11811   2.845   0.550  14.461  1.4586 -0.0240  2.1391
   8823SM  C18S11812   2.743   0.413  14.599  0.0415  0.1251 -0.0306
   8823SM  H18S11813   2.707   0.331  14.534 -0.3119  2.1275 -2.4964
   8823SM  H18T11814   2.655   0.433  14.664  0.1208  0.5234 -0.0450
   8823SM  H18U11815   2.835   0.389  14.656 -0.0386  1.6598  0.7859
   8823SM   C1F11816   2.292   1.532  13.370  0.5757  0.3191  0.0293
   8823SM    OF11817   2.203   1.570  13.296  0.0625 -0.1440 -0.0090
   8823SM   C2F11818   2.286   1.525  13.518  0.9014 -0.6296  0.8886
   8823SM   H2F11819   2.333   1.621  13.549  1.5007 -0.0799 -1.5056
   8823SM   H2G11820   2.331   1.434  13.564 -1.4799 -0.9594  2.7820
   8823SM   C3F11821   2.141   1.556  13.567 -0.1379  0.3293  0.3255
   8823SM   H3F11822   2.073   1.485  13.515  0.4097 -0.5056  0.7240
   8823SM   H3G11823   2.101   1.656  13.541 -2.5410 -0.1428  1.9151
   8823SM   C4F11824   2.124   1.535  13.715 -0.1553  0.3552  1.1410
   8823SM   H4F11825   2.014   1.536  13.734 -0.2360 -0.1865  0.7262
   8823SM   H4G11826   2.187   1.606  13.771  0.5840 -0.2804  1.1360
   8823SM   C5F11827   2.172   1.398  13.768  0.2774  0.0347 -0.1645
   8823SM   H5F11828   2.282   1.384  13.761  0.5548  0.8290  1.8360
   8823SM   H5G11829   2.120   1.324  13.703  0.8425 -1.1847  0.7395
   8823SM   C6F11830   2.129   1.391  13.919  0.1866 -0.2982  0.5592
   8823SM   H6F11831   2.023   1.422  13.929 -0.5793 -1.7292 -2.1447
   8823SM   H6G11832   2.177   1.468  13.984 -1.4558  0.3336  1.0767
   8823SM   C7F11833   2.158   1.252  13.975 -0.3583  0.7024  0.2269
   8823SM   H7F11834   2.251   1.207  13.934 -0.0897  1.2096  0.2688
   8823SM   H7G11835   2.074   1.189  13.939 -1.0531  1.5730  0.2745
   8823SM   C8F11836   2.174   1.240  14.123 -0.1213 -0.4137 -0.0854
   8823SM   H8F11837   2.127   1.148  14.164  0.7806 -0.9119 -0.1303
   8823SM   H8G11838   2.127   1.329  14.170  0.7073  1.5196 -2.6731
   8823SM   C9F11839   2.324   1.255  14.161 -0.3752 -0.1313  0.0242
   8823SM   H9F11840   2.363   1.334  14.093 -0.5853  1.2259  1.4266
   8823SM   H9G11841   2.385   1.163  14.143 -0.4851  0.1138 -1.8381
   8823SM  C10F11842   2.344   1.300  14.307  0.1310 -0.0767  0.1339
   8823SM  H10F11843   2.291   1.232  14.378  0.3702  1.8552  2.2849
   8823SM  H10G11844   2.278   1.388  14.324  0.4604  0.4236 -1.1236
   8823SM  C11F11845   2.488   1.308  14.342  0.0806 -0.3296  0.1316
   8823SM  H11F11846   2.497   1.339  14.449  2.3648 -0.5784  0.0708
   8823SM  H11G11847   2.534   1.394  14.288  0.7014 -0.4408  0.4666
   8823SM  C12F11848   2.575   1.186  14.315 -0.2230 -0.0155 -0.0746
   8823SM  H12F11849   2.564   1.135  14.217  0.7833 -2.1756  0.8489
   8823SM  H12G11850   2.542   1.106  14.386  1.0004 -1.1782 -0.7601
   8823SM  C13F11851   2.723   1.195  14.345  0.4693  0.1005 -0.6366
   8823SM  H13F11852   2.768   1.101  14.306 -2.3100 -0.8971 -1.6999
   8823SM  H13G11853   2.731   1.196  14.456 -1.1037 -0.4936 -0.4855
   8823SM  C14F11854   2.792   1.318  14.285 -0.0055 -0.7400 -0.1135
   8823SM  H14F11855   2.746   1.415  14.316  3.1639  1.5831 -2.0475
   8823SM  H14G11856   2.764   1.318  14.177 -2.0085 -0.1903  0.3572
   8823SM  C15F11857   2.941   1.333  14.301 -0.1227  0.0892 -0.8421
   8823SM  H15F11858   2.979   1.419  14.241  0.6236  1.1469  1.0637
   8823SM  H15G11859   2.992   1.243  14.261 -1.1861 -0.2561 -1.4694
   8823SM  C16F11860   2.985   1.355  14.446  0.0110 -0.0211 -0.3500
   8823SM  H16F11861   2.947   1.283  14.522  0.5453  0.9827  0.9043
   8823SM  H16G11862   2.966   1.456  14.486  1.7143 -0.1465  0.9080
   8823SM  C17F11863   3.138   1.358  14.458 -0.3741  0.0600  0.2055
   8823SM  H17F11864   3.173   1.254  14.445  0.1477  0.2943 -0.2754
   8823SM  H17G11865   3.169   1.373  14.564 -1.6885 -1.0482  0.7802
   8823SM  C18F11866   3.213   1.453  14.364 -0.4005  0.2332  0.2677
   8823SM  H18F11867   3.141   1.536  14.343 -2.1559 -1.5311 -1.0271
   8823SM  H18G11868   3.223   1.396  14.270 -2.8694 -1.4112  0.8985
   8823SM  C19F11869   3.349   1.488  14.419  0.0790 -0.4079 -0.5051
   8823SM  H19F11870   3.387   1.401  14.478  0.8319  0.9246  1.0639
   8823SM  H19G11871   3.352   1.577  14.485  0.3385  0.4005 -1.5913
   8823SM  C20F11872   3.450   1.512  14.299 -0.1505 -0.4249 -0.8643
   8823SM  H20F11873   3.541   1.558  14.344 -1.5185  2.1770 -0.5449
   8823SM  H20G11874   3.407   1.591  14.234 -0.4198  0.6403  0.5507
   8823SM  C21F11875   3.487   1.390  14.210 -0.7352  0.1792 -0.2421
   8823SM  H21F11876   3.395   1.349  14.163 -0.9840 -1.7677  1.7533
   8823SM  H21G11877   3.533   1.308  14.270 -0.4902  0.3533 -0.1931
   8823SM  C22F11878   3.595   1.414  14.103  0.0338  0.3295  0.1597
   8823SM  H22F11879   3.539   1.479  14.032  0.0453 -0.6343 -0.7583
   8823SM  H22G11880   3.622   1.325  14.042 -2.2480 -1.0675  1.0464
   8823SM  C23F11881   3.727   1.480  14.140  0.3045 -0.0158  0.7351
   8823SM  H23F11882   3.792   1.502  14.053 -0.1580  1.1534  0.6755
   8823SM  H23G11883   3.782   1.413  14.210  0.6152 -0.6273 -0.0661
   8823SM  H23H11884   3.697   1.577  14.184  1.3550  1.4880 -1.6342
   8923SM     N11885   6.629   1.395  12.145 -0.0663 -0.4204  0.4394
   8923SM   C1511886   6.713   1.287  12.096  0.2149  1.0623 -0.3970
   8923SM  H15A11887   6.776   1.324  12.016  2.1091  0.6676  0.8432
   8923SM  H15B11888   6.651   1.206  12.059  1.8723  0.1973 -1.4031
   8923SM  H15C11889   6.782   1.252  12.172  2.0235  2.6703 -1.2081
   8923SM   C1411890   6.711   1.523  12.163  0.0256  0.1216  0.2183
   8923SM  H14A11891   6.777   1.501  12.245 -1.4080 -1.1954  1.0920
   8923SM  H14B11892   6.647   1.610  12.171  0.1828  0.3308 -0.7387
   8923SM  H14C11893   6.765   1.530  12.070  1.5434  0.8641  1.1239
   8923SM   C1311894   6.531   1.427  12.036 -0.7385 -0.8194  0.1985
   8923SM  H13A11895   6.582   1.469  11.951  0.7479 -0.8374  1.0540
   8923SM  H13B11896   6.449   1.485  12.076 -0.1445 -1.2716  2.1643
   8923SM  H13C11897   6.491   1.334  11.998  0.5695 -0.8041 -1.3662
   8923SM   C1211898   6.540   1.354  12.270  0.1634 -0.0976 -0.0555
   8923SM  H12A11899   6.463   1.287  12.234  1.1649 -1.2957 -0.0316
   8923SM  H12B11900   6.489   1.444  12.302  0.6536  0.2353 -0.2042
   8923SM   C1111901   6.619   1.298  12.389 -0.0166  0.4808 -0.1059
   8923SM  H11A11902   6.669   1.202  12.362 -2.7921 -1.7278  1.9913
   8923SM  H11B11903   6.544   1.273  12.467  0.0218  0.0730 -0.1946
   8923SM     P11904   6.689   1.493  12.538 -0.2692 -0.2011 -0.0227
   8923SM   O1311905   6.806   1.572  12.555  0.0282 -0.5066  0.5308
   8923SM   O1411906   6.565   1.567  12.504  0.5464  0.1183 -0.0670
   8923SM   O1111907   6.672   1.405  12.670  0.8347 -0.3449 -0.1342
   8923SM   O1211908   6.721   1.383  12.438  0.0590  0.0928  0.2717
   8923SM   C1S11909   6.784   1.323  12.704  0.5234  0.3744  0.3857
   8923SM   H1S11910   6.867   1.387  12.741  1.9228 -1.7084  1.0514
   8923SM   H1T11911   6.820   1.250  12.627  0.2572  0.7389 -0.0860
   8923SM    NF11912   6.852   1.154  12.889  0.1409 -0.2006  0.5350
   8923SM   HNF11913   6.858   1.055  12.880  1.1446 -0.1080  0.0251
   8923SM   C2S11914   6.741   1.233  12.826 -0.2936  0.6649 -0.7939
   8923SM   H2S11915   6.699   1.302  12.902  0.8556 -0.6603  1.1540
   8923SM   C3S11916   6.626   1.134  12.785 -0.2731  0.0993  0.8290
   8923SM   H3S11917   6.659   1.051  12.718  0.4142  0.5006  0.6564
   8923SM    O311918   6.529   1.197  12.701 -0.6110 -0.0462 -0.4974
   8923SM   HO311919   6.564   1.287  12.698 -1.9058  0.5295  0.4529
   8923SM   C4S11920   6.554   1.069  12.905  0.4627  0.0383  0.3063
   8923SM   H4S11921   6.449   1.100  12.913  0.4464  0.7602 -2.0125
   8923SM   C5S11922   6.589   0.951  12.965  0.4151  0.1810 -0.5170
   8923SM   H5S11923   6.671   0.897  12.915  2.1869  2.6587 -0.4549
   8923SM   C6S11924   6.520   0.882  13.081 -0.2777 -0.5407  0.1442
   8923SM   H6S11925   6.475   0.787  13.047  2.3750 -1.3291 -1.4053
   8923SM   H6T11926   6.434   0.946  13.113  0.8294  0.6927  0.7408
   8923SM   C7S11927   6.609   0.856  13.203 -0.2180  0.1258  0.1537
   8923SM   H7S11928   6.692   0.799  13.156 -0.9876 -0.1064 -0.9632
   8923SM   H7T11929   6.552   0.797  13.279 -2.4507  0.8367 -0.9012
   8923SM   C8S11930   6.666   0.983  13.269  0.2518  0.2607  0.0801
   8923SM   H8S11931   6.602   1.067  13.238 -1.4037 -1.1336 -0.4106
   8923SM   H8T11932   6.769   0.997  13.228  0.7085  1.6977  1.5719
   8923SM   C9S11933   6.685   0.974  13.424  0.0991 -0.1463 -0.1374
   8923SM   H9S11934   6.707   0.869  13.455  2.0856  0.0157 -0.8278
   8923SM   H9T11935   6.591   0.997  13.478 -0.5456 -0.2960 -1.1835
   8923SM  C10S11936   6.799   1.073  13.469  0.4313  0.2899 -0.7223
   8923SM  H10S11937   6.774   1.172  13.426 -1.1741 -0.8417 -2.6119
   8923SM  H10T11938   6.899   1.045  13.431  0.3971 -0.8447 -0.0226
   8923SM  C11S11939   6.791   1.088  13.624 -0.0949  0.7575 -0.5431
   8923SM  H11S11940   6.811   0.989  13.670 -0.3500  0.6616 -0.6374
   8923SM  H11T11941   6.688   1.112  13.657  0.1407 -1.1023  1.8474
   8923SM  C12S11942   6.880   1.200  13.686 -0.7127 -0.5820 -0.7017
   8923SM  H12S11943   6.858   1.294  13.631 -1.1331 -1.0256 -1.3042
   8923SM  H12T11944   6.983   1.169  13.658 -1.0559  0.0352 -2.8118
   8923SM  C13S11945   6.858   1.212  13.834 -1.0184 -0.2324  0.4782
   8923SM  H13S11946   6.854   1.111  13.879 -1.1116 -0.0347  0.9179
   8923SM  H13T11947   6.755   1.253  13.840 -1.4002 -1.1001  0.0078
   8923SM  C14S11948   6.970   1.294  13.900 -0.1843 -0.5020 -0.1253
   8923SM  H14S11949   6.969   1.390  13.844  0.0813 -0.3255  0.1739
   8923SM  H14T11950   7.069   1.247  13.881  0.1571 -0.1548  0.7524
   8923SM  C15S11951   6.952   1.316  14.056 -0.0500 -0.1575 -0.1453
   8923SM  H15S11952   6.863   1.374  14.085  0.1968 -0.5782  1.5652
   8923SM  H15T11953   7.038   1.381  14.084  0.9115 -1.6176  0.4050
   8923SM  C16S11954   6.952   1.188  14.141 -0.2602  0.3717 -0.0676
   8923SM  H16S11955   7.025   1.119  14.093 -0.5987 -0.9000  1.1981
   8923SM  H16T11956   6.849   1.149  14.134 -0.8894  1.7842  0.8308
   8923SM  C17S11957   7.001   1.215  14.286  0.0743 -0.6515  0.1474
   8923SM  H17S11958   7.112   1.219  14.285  0.1949 -2.4835 -2.0461
   8923SM  H17T11959   6.980   1.126  14.350  0.9474 -0.0217  1.3539
   8923SM  C18S11960   6.957   1.350  14.355  0.0242  0.0928  0.9610
   8923SM  H18S11961   7.012   1.424  14.294  2.7470 -2.2089  0.4489
   8923SM  H18T11962   6.983   1.346  14.463 -1.1043  0.7112  1.2780
   8923SM  H18U11963   6.847   1.366  14.347  0.1004  0.6735  1.0113
   8923SM   C1F11964   6.948   1.227  12.957 -0.7368 -0.8311 -0.7451
   8923SM    OF11965   6.938   1.353  12.958 -0.2028 -0.2838 -0.2815
   8923SM   C2F11966   7.062   1.147  13.022 -0.4742 -0.5121 -0.1836
   8923SM   H2F11967   7.151   1.157  12.956 -1.5700  2.5856 -1.4174
   8923SM   H2G11968   7.028   1.043  13.037  1.1002 -0.9442  0.5817
   8923SM   C3F11969   7.090   1.208  13.157  0.1399 -0.2178 -0.0486
   8923SM   H3F11970   6.997   1.213  13.217  0.9045 -0.1277  1.1534
   8923SM   H3G11971   7.122   1.313  13.174 -0.9358 -0.0715  1.2309
   8923SM   C4F11972   7.188   1.108  13.227 -0.7778 -0.4374  0.7483
   8923SM   H4F11973   7.279   1.119  13.165 -1.9211  2.2482 -0.6208
   8923SM   H4G11974   7.143   1.007  13.232 -2.4007  0.3005  1.8023
   8923SM   C5F11975   7.215   1.143  13.368 -1.1475 -0.4394 -0.4676
   8923SM   H5F11976   7.126   1.135  13.434 -0.1780 -1.4123  0.7517
   8923SM   H5G11977   7.255   1.247  13.373 -2.1996 -0.0728  0.9887
   8923SM   C6F11978   7.322   1.050  13.434  0.0272  0.4196 -0.8801
   8923SM   H6F11979   7.418   1.059  13.380  0.1947  2.1073 -0.3870
   8923SM   H6G11980   7.292   0.946  13.412  0.3529 -0.1476  1.1981
   8923SM   C7F11981   7.334   1.084  13.589  0.7861 -0.6415 -0.3274
   8923SM   H7F11982   7.230   1.080  13.627  1.0276 -0.2510  0.4057
   8923SM   H7G11983   7.371   1.188  13.602 -1.4434  0.2626 -0.8571
   8923SM   C8F11984   7.426   0.992  13.670 -0.1326  0.2322 -0.0206
   8923SM   H8F11985   7.531   0.979  13.635  0.3461 -1.9644  1.9886
   8923SM   H8G11986   7.390   0.887  13.658 -1.1828  0.6968 -1.1765
   8923SM   C9F11987   7.436   1.036  13.818  0.1590  0.7736  0.1094
   8923SM   H9F11988   7.334   1.053  13.859  0.0418 -1.0970  0.7066
   8923SM   H9G11989   7.487   1.134  13.827  0.4193  0.9340 -2.3781
   8923SM  C10F11990   7.503   0.934  13.916 -0.2804 -0.8079  0.6097
   8923SM  H10F11991   7.611   0.937  13.891 -0.6480  0.6595 -0.9293
   8923SM  H10G11992   7.481   0.828  13.890  0.2440 -0.8736  0.4326
   8923SM  C11F11993   7.462   0.954  14.067 -0.0073  0.0852 -0.0083
   8923SM  H11F11994   7.496   1.054  14.103 -1.5722  1.0085 -0.9771
   8923SM  H11G11995   7.515   0.879  14.130  2.2426  1.0299 -0.6705
   8923SM  C12F11996   7.312   0.933  14.097 -0.2836 -1.1531  0.1765
   8923SM  H12F11997   7.298   0.823  14.093  0.0928 -1.2248  0.6909
   8923SM  H12G11998   7.235   0.974  14.029  0.5430  1.3567  0.6602
   8923SM  C13F11999   7.282   0.990  14.243 -0.4578 -0.6184 -0.6886
   8923SM  H13F12000   7.173   1.000  14.261 -0.4108 -0.6801 -0.3705
   8923SM  H13G12001   7.317   1.095  14.232 -0.7614 -0.4270  0.1203
   8923SM  C14F12002   7.349   0.918  14.364 -0.4483  0.0152  1.0772
   8923SM  H14F12003   7.450   0.882  14.332  0.8627  1.7762  2.9585
   8923SM  H14G12004   7.291   0.827  14.390  1.0008 -0.6312  2.1916
   8923SM  C15F12005   7.368   1.003  14.482 -0.3671 -0.8886 -0.0140
   8923SM  H15F12006   7.448   1.076  14.457 -0.7574 -1.3018 -2.6803
   8923SM  H15G12007   7.404   0.934  14.562  1.6705 -0.4770 -0.5347
   8923SM  C16F12008   7.246   1.088  14.526 -0.0605 -0.8493  0.1217
   8923SM  H16F12009   7.154   1.025  14.531 -1.3075  0.9287  0.8070
   8923SM  H16G12010   7.226   1.170  14.454  0.4271 -0.4348  0.4578
   8923SM  C17F12011   7.260   1.156  14.659  0.0146 -0.5192 -0.0881
   8923SM  H17F12012   7.168   1.212  14.685  0.2376 -1.2650  2.5683
   8923SM  H17G12013   7.342   1.231  14.655 -2.5740  2.4702 -1.3751
   8923SM  C18F12014   7.278   1.058  14.776 -0.9385  0.4962 -0.5847
   8923SM  H18F12015   7.368   0.996  14.756  0.2380  1.4166  1.5067
   8923SM  H18G12016   7.189   0.992  14.768 -0.5246 -0.0057 -1.0893
   8923SM  C19F12017   7.278   1.136  14.905  0.1349  0.6850 -0.8011
   8923SM  H19F12018   7.202   1.217  14.899 -0.2171  0.3582 -0.8249
   8923SM  H19G12019   7.378   1.183  14.907  0.3353  0.2427  0.5400
   8923SM  C20F12020   7.254   1.044  15.033  0.0366  0.0194 -0.0758
   8923SM  H20F12021   7.337   0.975  15.008  0.7441  0.8045  0.0528
   8923SM  H20G12022   7.152   0.999  15.029 -0.3446  0.8277  0.3688
   8923SM  C21F12023   7.270   1.113  15.163  0.2869 -0.5796 -0.4123
   8923SM  H21F12024   7.198   1.196  15.169 -1.3914 -2.0786  1.8232
   8923SM  H21G12025   7.372   1.156  15.160 -0.1900  0.5265 -0.9413
   8923SM  C22F12026   7.232   1.044  15.292  0.6341  0.5086 -0.8166
   8923SM  H22F12027   7.250   1.113  15.378 -2.2637 -2.1873  2.2907
   8923SM  H22G12028   7.311   0.967  15.309  1.0634  0.7000 -1.8932
   8923SM  C23F12029   7.085   1.002  15.312 -0.0795  0.1595  0.5240
   8923SM  H23F12030   7.011   1.081  15.285 -1.1351 -0.5552  1.2392
   8923SM  H23G12031   7.069   0.978  15.419  1.7373 -2.4503  0.2842
   8923SM  H23H12032   7.064   0.910  15.254 -0.9304  0.9717 -0.5056
   9023SM     N12033   6.469   0.853  12.484  0.3977 -0.3576 -0.3563
   9023SM   C1512034   6.433   0.749  12.387  0.3657  0.3822  0.6032
   9023SM  H15A12035   6.333   0.715  12.407 -0.4570  2.1612 -0.3088
   9023SM  H15B12036   6.498   0.662  12.385  0.0552  0.0294 -3.9579
   9023SM  H15C12037   6.424   0.785  12.286 -1.0239 -2.5178 -0.4022
   9023SM   C1412038   6.612   0.898  12.458 -0.1958 -0.2011 -0.4137
   9023SM  H14A12039   6.642   0.988  12.510  3.6030 -1.9654  0.8134
   9023SM  H14B12040   6.625   0.914  12.352  2.4382  0.1787 -0.0898
   9023SM  H14C12041   6.678   0.820  12.491  2.2893  2.0282  0.2395
   9023SM   C1312042   6.377   0.978  12.462  0.1388  0.0496 -0.3965
   9023SM  H13A12043   6.276   0.942  12.443 -0.1998  1.0898 -0.6505
   9023SM  H13B12044   6.407   1.027  12.371  2.6713  2.3904  1.5304
   9023SM  H13C12045   6.388   1.046  12.545  0.7104  1.6992 -1.7696
   9023SM   C1212046   6.445   0.818  12.630 -0.9009 -0.1920 -0.5516
   9023SM  H12A12047   6.338   0.815  12.646 -0.7356  0.5302  0.9022
   9023SM  H12B12048   6.489   0.898  12.686 -3.7516  0.7101  0.6056
   9023SM   C1112049   6.491   0.685  12.697 -0.3228 -0.5105 -0.1102
   9023SM  H11A12050   6.439   0.597  12.652 -2.8888  0.9097 -0.0737
   9023SM  H11B12051   6.460   0.672  12.803  1.3276 -1.0953  0.3272
   9023SM     P12052   6.711   0.560  12.620  0.2156 -0.0679 -0.2931
   9023SM   O1312053   6.614   0.500  12.525  0.2306 -0.2903 -0.2871
   9023SM   O1412054   6.829   0.624  12.564  0.7679  0.1942 -0.0052
   9023SM   O1112055   6.751   0.447  12.727  0.3697 -0.1274  0.2336
   9023SM   O1212056   6.635   0.668  12.701  0.8618 -0.2826  0.5020
   9023SM   C1S12057   6.854   0.480  12.818  0.1379  0.0191 -0.0908
   9023SM   H1S12058   6.927   0.550  12.771 -0.6554 -0.9722 -2.9624
   9023SM   H1T12059   6.919   0.392  12.842  2.2357  1.4106 -0.4098
   9023SM    NF12060   6.908   0.530  13.047 -0.1062  0.1522  0.5506
   9023SM   HNF12061   6.909   0.479  13.132 -0.2017 -0.3681  0.2432
   9023SM   C2S12062   6.794   0.526  12.956 -0.6537 -0.3285  0.5211
   9023SM   H2S12063   6.756   0.629  12.942  0.7972  0.4659  1.9899
   9023SM   C3S12064   6.673   0.437  13.006 -0.1419  0.7644  0.0264
   9023SM   H3S12065   6.704   0.334  12.979  1.2172  0.8885  1.0149
   9023SM    O312066   6.546   0.463  12.942 -0.6338  0.0975 -0.5851
   9023SM   HO312067   6.575   0.520  12.870 -0.6294 -0.8467 -1.3641
   9023SM   C4S12068   6.655   0.425  13.158  0.0220 -0.5805  0.5697
   9023SM   H4S12069   6.712   0.342  13.202  0.5226 -1.1628 -1.1219
   9023SM   C5S12070   6.579   0.509  13.235 -0.1522  0.5518  0.6923
   9023SM   H5S12071   6.523   0.590  13.186 -2.8185 -2.6414 -2.0056
   9023SM   C6S12072   6.557   0.516  13.380 -0.5761 -0.0576 -0.2652
   9023SM   H6S12073   6.447   0.511  13.394 -1.1615  0.5414 -3.7141
   9023SM   H6T12074   6.578   0.612  13.432 -3.3670  1.0060 -0.9112
   9023SM   C7S12075   6.611   0.403  13.472 -0.0878 -0.4699 -0.1603
   9023SM   H7S12076   6.720   0.416  13.489 -0.3095 -0.9467  1.8504
   9023SM   H7T12077   6.591   0.302  13.428 -0.7266  0.2570 -1.6262
   9023SM   C8S12078   6.563   0.416  13.614  0.1013 -0.6364  0.3423
   9023SM   H8S12079   6.460   0.379  13.627  0.5065 -1.3583  1.7740
   9023SM   H8T12080   6.567   0.522  13.649 -0.5508 -0.2103 -0.8502
   9023SM   C9S12081   6.659   0.334  13.712 -0.1435  0.1899  0.1525
   9023SM   H9S12082   6.760   0.377  13.692 -0.6406  1.0482 -0.5762
   9023SM   H9T12083   6.656   0.226  13.690 -0.3686  0.0953  0.6319
   9023SM  C10S12084   6.622   0.344  13.861  0.2289 -0.7666 -0.2304
   9023SM  H10S12085   6.520   0.302  13.875  0.2250 -1.2342 -1.5619
   9023SM  H10T12086   6.616   0.454  13.880  0.4184 -0.6993 -0.5512
   9023SM  C11S12087   6.714   0.263  13.950 -0.3411 -0.1878  0.3455
   9023SM  H11S12088   6.819   0.269  13.915  0.0948  0.0239  1.6262
   9023SM  H11T12089   6.679   0.157  13.942  0.8306 -0.6914  1.4923
   9023SM  C12S12090   6.718   0.303  14.098  0.1251  0.3902 -0.9099
   9023SM  H12S12091   6.612   0.291  14.128  0.3170  0.8192 -0.0157
   9023SM  H12T12092   6.742   0.411  14.099  0.1802  0.3908  0.7954
   9023SM  C13S12093   6.822   0.217  14.175 -0.2314  0.0450 -0.4513
   9023SM  H13S12094   6.927   0.216  14.140 -0.1674 -0.8063 -0.2632
   9023SM  H13T12095   6.785   0.113  14.164  0.3363 -0.1936 -0.1343
   9023SM  C14S12096   6.823   0.269  14.318  0.7305 -0.3116  0.1391
   9023SM  H14S12097   6.723   0.247  14.363  0.4605  0.4218 -0.0982
   9023SM  H14T12098   6.836   0.378  14.333 -0.9970  0.3395 -2.4559
   9023SM  C15S12099   6.926   0.197  14.397 -0.2502  0.1128 -0.5249
   9023SM  H15S12100   7.032   0.224  14.375  0.0562 -0.3952  0.3118
   9023SM  H15T12101   6.924   0.091  14.365  0.8903 -0.2795  0.6176
   9023SM  C16S12102   6.902   0.212  14.550  0.1548  0.1127  0.3017
   9023SM  H16S12103   6.817   0.146  14.577 -0.5149  1.0521  0.5374
   9023SM  H16T12104   6.874   0.313  14.586  1.8069  0.3345  1.0499
   9023SM  C17S12105   7.026   0.173  14.629 -0.7961 -0.8462  0.1178
   9023SM  H17S12106   7.113   0.231  14.592  1.0688 -2.2162  2.1047
   9023SM  H17T12107   7.051   0.065  14.619  0.5323 -0.4855 -0.6532
   9023SM  C18S12108   7.002   0.200  14.772 -0.5881  0.0872 -0.6882
   9023SM  H18S12109   7.080   0.157  14.838 -1.1131  1.1306  0.6444
   9023SM  H18T12110   6.906   0.151  14.799 -0.1943 -0.7732 -0.8048
   9023SM  H18U12111   6.994   0.310  14.785  1.3242  0.3211 -1.0868
   9023SM   C1F12112   7.005   0.619  13.032  0.2613  0.6500 -0.3665
   9023SM    OF12113   6.985   0.720  12.962  0.1300  0.6754  0.2626
   9023SM   C2F12114   7.122   0.611  13.124  0.1557 -0.2864 -0.0951
   9023SM   H2F12115   7.214   0.627  13.063  0.9945  0.8476  1.4072
   9023SM   H2G12116   7.119   0.506  13.160 -0.9365 -0.0487  0.5328
   9023SM   C3F12117   7.113   0.711  13.249 -0.9143 -0.2187  1.2159
   9023SM   H3F12118   7.101   0.815  13.211  1.7770 -0.1373  0.3725
   9023SM   H3G12119   7.217   0.709  13.286 -0.0106 -1.8777 -1.1621
   9023SM   C4F12120   7.011   0.675  13.355 -0.1005 -0.1979 -0.2103
   9023SM   H4F12121   7.043   0.572  13.383 -1.1864 -0.4534  0.1733
   9023SM   H4G12122   6.905   0.673  13.322 -0.5230 -3.6851  0.9646
   9023SM   C5F12123   7.020   0.761  13.486 -0.7049 -0.3967  0.1030
   9023SM   H5F12124   6.966   0.857  13.476  0.8813  0.4440 -0.7569
   9023SM   H5G12125   7.128   0.783  13.501 -1.0789  1.8045 -0.0204
   9023SM   C6F12126   6.968   0.681  13.608  0.6607  0.7181  0.0680
   9023SM   H6F12127   7.015   0.581  13.611 -1.1313 -0.1589  0.5464
   9023SM   H6G12128   6.858   0.669  13.601  0.5435  1.2953  0.7888
   9023SM   C7F12129   6.997   0.748  13.738 -0.0333  0.2347  0.5526
   9023SM   H7F12130   6.965   0.854  13.740 -0.7369  0.1309 -1.9201
   9023SM   H7G12131   7.108   0.746  13.752 -0.1880  0.2513  1.9320
   9023SM   C8F12132   6.933   0.684  13.856  0.4409 -0.5365 -0.0880
   9023SM   H8F12133   6.963   0.578  13.861 -1.2001 -0.9872  1.8673
   9023SM   H8G12134   6.822   0.690  13.843  0.3718 -1.9406 -0.2508
   9023SM   C9F12135   6.968   0.748  13.992  0.1901  1.1997  0.4441
   9023SM   H9F12136   6.928   0.851  14.005 -1.5654  0.5736  0.2112
   9023SM   H9G12137   7.078   0.756  13.980  0.2719 -1.7623 -1.9504
   9023SM  C10F12138   6.936   0.667  14.127  0.1231  0.2015  0.2916
   9023SM  H10F12139   6.957   0.560  14.105  1.6891  0.7318 -1.0180
   9023SM  H10G12140   6.827   0.677  14.146 -0.0633  1.2291 -1.1579
   9023SM  C11F12141   7.023   0.704  14.253  0.1522  0.1808  0.6386
   9023SM  H11F12142   7.018   0.815  14.256  2.0242  0.4901 -2.7933
   9023SM  H11G12143   7.128   0.673  14.231 -0.1169  1.2699 -2.7742
   9023SM  C12F12144   6.973   0.639  14.385 -0.2327  0.3876  0.0554
   9023SM  H12F12145   6.947   0.531  14.381 -0.7635  0.4240  1.8080
   9023SM  H12G12146   6.875   0.688  14.408 -0.0412  1.2456 -0.8669
   9023SM  C13F12147   7.066   0.652  14.507 -0.0271 -0.8541 -0.1699
   9023SM  H13F12148   7.095   0.759  14.511  1.9484 -1.3814  0.3190
   9023SM  H13G12149   7.163   0.601  14.494  0.6306  0.3266 -0.0008
   9023SM  C14F12150   7.004   0.615  14.641 -0.2093  0.7251  0.0064
   9023SM  H14F12151   6.978   0.507  14.638  0.7464  0.3967  1.9372
   9023SM  H14G12152   6.911   0.674  14.657 -0.4651 -0.1388  2.1460
   9023SM  C15F12153   7.102   0.633  14.758  0.0139 -0.0522  0.2064
   9023SM  H15F12154   7.157   0.729  14.744  1.5440 -0.8924  0.2505
   9023SM  H15G12155   7.183   0.558  14.749  0.0507  0.0280 -0.1676
   9023SM  C16F12156   7.057   0.615  14.902 -0.6287  0.0626  0.6189
   9023SM  H16F12157   7.139   0.644  14.971 -1.2030 -0.6710  1.6172
   9023SM  H16G12158   7.017   0.517  14.933 -0.9939  0.2295  0.6838
   9023SM  C17F12159   6.945   0.717  14.928 -0.4135 -0.7289 -0.2734
   9023SM  H17F12160   6.862   0.702  14.856 -0.0822 -1.5681 -0.4929
   9023SM  H17G12161   6.982   0.820  14.910 -0.5049 -0.9060 -1.6166
   9023SM  C18F12162   6.890   0.709  15.073  0.1717  0.0631 -0.2916
   9023SM  H18F12163   6.972   0.739  15.142  1.3920 -1.6766 -0.9238
   9023SM  H18G12164   6.874   0.602  15.099 -1.0313  0.3560  0.2596
   9023SM  C19F12165   6.772   0.798  15.100  0.0245  0.4539  0.6120
   9023SM  H19F12166   6.687   0.753  15.044 -0.1142  1.3464  0.0845
   9023SM  H19G12167   6.789   0.898  15.055 -2.4116  0.0572 -1.4184
   9023SM  C20F12168   6.728   0.803  15.241 -1.1832  0.6284  0.5981
   9023SM  H20F12169   6.628   0.850  15.256 -1.4182  0.0916  0.7272
   9023SM  H20G12170   6.803   0.853  15.306  0.5146 -0.7867 -0.2218
   9023SM  C21F12171   6.713   0.655  15.303  0.5801 -0.3450 -0.1007
   9023SM  H21F12172   6.815   0.620  15.331  0.6734  0.5928  0.7703
   9023SM  H21G12173   6.663   0.592  15.226  2.4344 -0.3834 -1.3569
   9023SM  C22F12174   6.615   0.655  15.424  0.2460 -0.0084 -0.6327
   9023SM  H22F12175   6.642   0.737  15.494 -0.4764 -2.8530  3.3053
   9023SM  H22G12176   6.623   0.565  15.488 -1.3113  0.7945  0.7741
   9023SM  C23F12177   6.463   0.666  15.382 -0.7566  0.6954  0.0597
   9023SM  H23F12178   6.401   0.626  15.465 -0.1609  1.4421  0.8859
   9023SM  H23G12179   6.449   0.609  15.288 -0.3158 -0.6567  0.7917
   9023SM  H23H12180   6.446   0.773  15.357  0.5018  0.5551 -1.5572
   9123SM     N12181   6.329   3.483  12.768 -0.2430 -0.0636  0.5763
   9123SM   C1512182   6.380   3.622  12.734 -0.1942  0.4371 -0.6423
   9123SM  H15A12183   6.470   3.638  12.792 -1.1622  1.4311  0.6416
   9123SM  H15B12184   6.319   3.704  12.769  0.4143  0.6370 -0.0320
   9123SM  H15C12185   6.400   3.641  12.629  0.4291  1.3471 -0.3816
   9123SM   C1412186   6.189   3.468  12.713  0.3392  0.1654 -0.7734
   9123SM  H14A12187   6.161   3.364  12.724  1.0084  0.0048 -0.5228
   9123SM  H14B12188   6.183   3.483  12.606 -0.6268 -2.7717 -1.2280
   9123SM  H14C12189   6.119   3.537  12.759  0.1934 -0.8280  0.5547
   9123SM   C1312190   6.412   3.388  12.692  0.5281  0.1408  0.0038
   9123SM  H13A12191   6.393   3.287  12.725  0.0095 -0.4249 -1.9113
   9123SM  H13B12192   6.516   3.416  12.702  0.5930 -0.0929 -0.0094
   9123SM  H13C12193   6.386   3.401  12.588  0.8097  0.2741 -0.0514
   9123SM   C1212194   6.325   3.464  12.919 -0.3488 -0.8483 -0.6623
   9123SM  H12A12195   6.275   3.372  12.947 -1.6696  0.0268 -0.0413
   9123SM  H12B12196   6.268   3.542  12.967  0.5747 -1.1693  1.0486
   9123SM   C1112197   6.460   3.459  12.998 -0.6979 -1.0968 -0.2586
   9123SM  H11A12198   6.514   3.364  12.979  0.5948 -0.2118 -1.2595
   9123SM  H11B12199   6.431   3.457  13.105 -0.5040 -1.5271 -0.2142
   9123SM     P12200   6.594   3.661  13.079 -0.3465 -0.3148 -0.1758
   9123SM   O1312201   6.705   3.747  13.028  0.4398 -0.1369 -0.1732
   9123SM   O1412202   6.476   3.732  13.136 -0.0580 -0.3205 -0.1970
   9123SM   O1112203   6.667   3.564  13.188  0.2775  0.0542  0.5330
   9123SM   O1212204   6.548   3.569  12.959 -0.5294 -0.6068  0.0048
   9123SM   C1S12205   6.760   3.462  13.163  0.4278  0.1979  0.8896
   9123SM   H1S12206   6.843   3.500  13.098 -1.4091  0.4314 -1.4440
   9123SM   H1T12207   6.711   3.382  13.104  1.5447 -0.0021  0.1889
   9123SM    NF12208   6.925   3.313  13.275  0.0841  0.1101  0.2554
   9123SM   HNF12209   6.911   3.215  13.269  0.7518  0.0047  0.3527
   9123SM   C2S12210   6.804   3.392  13.295 -0.0947  0.3294  0.0922
   9123SM   H2S12211   6.835   3.462  13.375  1.0879 -0.2155  0.1381
   9123SM   C3S12212   6.681   3.322  13.353 -0.4005  0.4095 -0.0256
   9123SM   H3S12213   6.653   3.246  13.277  0.9767  2.0758 -2.3444
   9123SM    O312214   6.559   3.397  13.363  0.6644  0.2735  0.1326
   9123SM   HO312215   6.577   3.475  13.310  0.9781  1.0982  1.4179
   9123SM   C4S12216   6.707   3.266  13.492  0.2546  0.7051 -0.2368
   9123SM   H4S12217   6.693   3.157  13.500  2.5760  0.3903 -0.0185
   9123SM   C5S12218   6.733   3.335  13.611  0.5523  0.3431  0.6725
   9123SM   H5S12219   6.721   3.444  13.606  0.6201  0.3104 -0.4772
   9123SM   C6S12220   6.745   3.274  13.752  0.6630 -0.8782  0.0512
   9123SM   H6S12221   6.694   3.338  13.828  1.9297 -0.1455  0.3128
   9123SM   H6T12222   6.850   3.290  13.782  0.7306 -0.4797 -0.3872
   9123SM   C7S12223   6.706   3.120  13.776  0.0091 -0.0213 -0.5050
   9123SM   H7S12224   6.757   3.060  13.697 -1.7525 -1.7964 -0.3741
   9123SM   H7T12225   6.597   3.110  13.756 -0.2980  2.1567 -0.1758
   9123SM   C8S12226   6.747   3.076  13.918 -0.6505 -0.7660 -0.5476
   9123SM   H8S12227   6.684   2.987  13.944 -2.3864  0.9177  1.3470
   9123SM   H8T12228   6.725   3.150  13.997  1.7226  1.2079 -1.6208
   9123SM   C9S12229   6.890   3.043  13.942  0.9181 -0.5004  0.8625
   9123SM   H9S12230   6.938   3.135  13.901 -1.5787 -0.0983 -1.5219
   9123SM   H9T12231   6.913   2.957  13.876  0.4054  0.3958 -0.5533
   9123SM  C10S12232   6.927   3.024  14.094 -0.5203 -1.0743  0.5594
   9123SM  H10S12233   6.895   3.121  14.139  2.2290 -0.1757  0.7161
   9123SM  H10T12234   7.038   3.023  14.093 -0.4820  0.2408  0.8317
   9123SM  C11S12235   6.861   2.893  14.143 -0.6163 -0.2212 -0.1103
   9123SM  H11S12236   6.892   2.807  14.080  0.9133  0.7291 -0.6970
   9123SM  H11T12237   6.752   2.907  14.124 -0.6579 -0.2338  0.1106
   9123SM  C12S12238   6.883   2.848  14.296  0.0953  0.8273 -0.3750
   9123SM  H12S12239   6.862   2.939  14.357  1.1598  2.2534 -2.0470
   9123SM  H12T12240   6.991   2.828  14.309  0.2532  1.8363 -0.0044
   9123SM  C13S12241   6.803   2.721  14.342 -0.2332 -0.0683 -0.1156
   9123SM  H13S12242   6.852   2.632  14.298 -1.5872  0.2689 -2.4463
   9123SM  H13T12243   6.700   2.714  14.302 -0.2924  1.0399 -0.1868
   9123SM  C14S12244   6.797   2.706  14.497 -0.6498 -0.2913 -0.7144
   9123SM  H14S12245   6.765   2.802  14.542  1.8931 -0.1546  1.0248
   9123SM  H14T12246   6.906   2.694  14.513 -0.2868  0.7476 -2.1910
   9123SM  C15S12247   6.727   2.584  14.555 -0.0692  0.1037 -0.2833
   9123SM  H15S12248   6.752   2.506  14.480 -1.9418 -0.9924  0.1618
   9123SM  H15T12249   6.616   2.587  14.552 -0.0739 -0.4832 -1.4615
   9123SM  C16S12250   6.776   2.537  14.690  0.1300 -0.0382 -0.0868
   9123SM  H16S12251   6.781   2.630  14.751 -2.0193  1.0294 -1.4198
   9123SM  H16T12252   6.878   2.504  14.661  0.1293  0.2327 -0.3960
   9123SM  C17S12253   6.689   2.429  14.754  0.1387 -0.5085 -0.2445
   9123SM  H17S12254   6.665   2.361  14.670 -0.8994 -0.4025 -0.0491
   9123SM  H17T12255   6.594   2.482  14.778 -0.2733 -2.1417  2.1422
   9123SM  C18S12256   6.729   2.366  14.889 -0.0436 -0.0259  0.3694
   9123SM  H18S12257   6.746   2.452  14.957 -1.5316 -0.6713  1.6011
   9123SM  H18T12258   6.823   2.309  14.874  0.7375  0.6537  2.3151
   9123SM  H18U12259   6.645   2.302  14.924  1.4852 -3.3954 -1.6104
   9123SM   C1F12260   7.039   3.372  13.266 -0.1469  0.0328 -0.3307
   9123SM    OF12261   7.050   3.493  13.265 -0.4061 -0.0736  0.4016
   9123SM   C2F12262   7.161   3.289  13.264  0.2306  0.6097 -0.3424
   9123SM   H2F12263   7.251   3.349  13.242 -0.8047  1.7786 -1.5797
   9123SM   H2G12264   7.150   3.215  13.181 -0.3662 -1.1496  1.2249
   9123SM   C3F12265   7.186   3.224  13.403 -0.0699  0.7173 -0.9470
   9123SM   H3F12266   7.294   3.198  13.402  0.1570  1.6086 -2.6538
   9123SM   H3G12267   7.131   3.129  13.418  2.2226 -0.3628  1.1833
   9123SM   C4F12268   7.172   3.309  13.532  0.5680  0.3754  0.1021
   9123SM   H4F12269   7.069   3.351  13.541  0.2428  0.5078 -3.1010
   9123SM   H4G12270   7.233   3.401  13.525 -2.4447  2.6810  1.4900
   9123SM   C5F12271   7.201   3.218  13.660  0.4279  0.0841 -0.3138
   9123SM   H5F12272   7.300   3.171  13.646  1.2496  2.1500 -1.9360
   9123SM   H5G12273   7.134   3.131  13.646 -2.0868  1.9263 -0.4584
   9123SM   C6F12274   7.185   3.276  13.803  1.2651 -0.1219  0.4918
   9123SM   H6F12275   7.220   3.207  13.882 -0.5802 -2.2054 -0.4082
   9123SM   H6G12276   7.076   3.296  13.812  0.8895 -0.5935 -2.2091
   9123SM   C7F12277   7.261   3.410  13.817 -0.0716 -0.9143 -0.6973
   9123SM   H7F12278   7.207   3.469  13.740 -0.2028 -0.0643  0.0406
   9123SM   H7G12279   7.366   3.397  13.783  0.4814  2.7270 -0.7306
   9123SM   C8F12280   7.242   3.475  13.948 -0.2517  0.6928  0.2830
   9123SM   H8F12281   7.319   3.555  13.954  1.8393 -1.1673 -0.2814
   9123SM   H8G12282   7.260   3.416  14.040 -1.2420  1.0916  0.7472
   9123SM   C9F12283   7.094   3.527  13.969 -0.1853  0.0872  0.3244
   9123SM   H9F12284   7.022   3.443  13.968  0.1184 -0.1735  0.0530
   9123SM   H9G12285   7.066   3.585  13.879 -0.7759 -2.1726 -1.0326
   9123SM  C10F12286   7.073   3.633  14.078  0.3303 -0.0508  0.2527
   9123SM  H10F12287   7.108   3.731  14.039 -1.4224  0.6960  0.5026
   9123SM  H10G12288   7.134   3.623  14.170  0.6623 -0.4790 -0.0067
   9123SM  C11F12289   6.922   3.641  14.118 -0.4331  0.4495 -0.3473
   9123SM  H11F12290   6.897   3.547  14.171 -1.3903  0.8763 -0.0192
   9123SM  H11G12291   6.864   3.644  14.023 -0.9054 -0.9338 -0.1219
   9123SM  C12F12292   6.886   3.765  14.199  0.3913 -0.1697  0.0290
   9123SM  H12F12293   6.902   3.858  14.139 -0.9782  0.5239  0.6944
   9123SM  H12G12294   6.948   3.768  14.292 -0.4285  1.0650  0.5537
   9123SM  C13F12295   6.751   3.773  14.252  0.2824 -0.7867 -0.2676
   9123SM  H13F12296   6.746   3.692  14.327  1.2030 -2.4488 -1.9162
   9123SM  H13G12297   6.682   3.753  14.166 -0.6941 -1.2383  0.5932
   9123SM  C14F12298   6.731   3.916  14.315  0.6426 -0.2959 -0.0012
   9123SM  H14F12299   6.757   3.987  14.233  1.1516 -0.0624  0.3567
   9123SM  H14G12300   6.814   3.930  14.388  0.6957  1.6170 -0.3914
   9123SM  C15F12301   6.599   3.952  14.393  0.4689  0.0605 -0.0222
   9123SM  H15F12302   6.598   3.884  14.481  1.2822 -1.2306 -0.9774
   9123SM  H15G12303   6.512   3.927  14.329  1.2877 -1.9904 -0.4366
   9123SM  C16F12304   6.611   4.097  14.441 -0.6980  0.6538  0.2679
   9123SM  H16F12305   6.616   4.168  14.355 -0.0331  0.2295 -0.0473
   9123SM  H16G12306   6.711   4.095  14.487 -0.0433 -1.3141 -1.1241
   9123SM  C17F12307   6.508   4.128  14.541  0.8182 -0.1206  0.0700
   9123SM  H17F12308   6.527   4.066  14.631  0.4679 -0.7477 -0.2778
   9123SM  H17G12309   6.410   4.097  14.497  0.6119  2.2205 -1.2837
   9123SM  C18F12310   6.499   4.275  14.584  0.2854 -0.5923 -0.1469
   9123SM  H18F12311   6.445   4.281  14.681 -0.5121  2.0613 -0.6859
   9123SM  H18G12312   6.444   4.341  14.513  1.5863  1.1749  0.4271
   9123SM  C19F12313   6.637   4.335  14.624 -0.3333 -0.3986  0.4585
   9123SM  H19F12314   6.685   4.373  14.532  1.2750  0.8848  1.7841
   9123SM  H19G12315   6.714   4.267  14.668  0.9351  1.9417  2.0474
   9123SM  C20F12316   6.624   4.451  14.720  0.8551  0.3390  1.0955
   9123SM  H20F12317   6.558   4.416  14.803  1.3008 -0.3613  1.1573
   9123SM  H20G12318   6.560   4.527  14.671 -1.0688 -0.8330  1.6763
   9123SM  C21F12319   6.751   4.511  14.774 -0.5640  0.0054  0.3251
   9123SM  H21F12320   6.813   4.538  14.686  1.5045 -0.7556  1.4755
   9123SM  H21G12321   6.800   4.426  14.827 -1.8858  0.1047  1.7694
   9123SM  C22F12322   6.732   4.626  14.876 -0.3606 -1.0028 -0.4725
   9123SM  H22F12323   6.833   4.671  14.886  0.1524 -1.1447 -3.8320
   9123SM  H22G12324   6.705   4.581  14.974  0.0381 -1.0155 -0.3672
   9123SM  C23F12325   6.634   4.741  14.838  0.6519  0.3398  0.0592
   9123SM  H23F12326   6.617   4.820  14.914  0.5151 -0.7152  1.1555
   9123SM  H23G12327   6.535   4.692  14.826  0.8598 -0.1423  0.2739
   9123SM  H23H12328   6.667   4.785  14.741  3.0588  0.2608  0.7624
   9223SM     N12329   6.188   7.336  12.640  0.6277 -0.1815  0.0686
   9223SM   C1512330   6.270   7.215  12.673 -0.0757  0.3448  0.4371
   9223SM  H15A12331   6.371   7.232  12.640 -0.5372  3.7772  0.4157
   9223SM  H15B12332   6.232   7.133  12.613  0.9538  1.0547 -1.2526
   9223SM  H15C12333   6.267   7.183  12.776 -2.4542 -1.1575 -0.0117
   9223SM   C1412334   6.199   7.368  12.493  0.3433  0.8261  0.1706
   9223SM  H14A12335   6.117   7.329  12.435  0.7931  0.7557 -0.4347
   9223SM  H14B12336   6.299   7.356  12.453  0.3676  0.2129  0.3979
   9223SM  H14C12337   6.164   7.467  12.470  0.4989  0.8236 -0.0827
   9223SM   C1312338   6.043   7.322  12.682 -0.1366  0.4155 -0.0956
   9223SM  H13A12339   6.039   7.282  12.782 -2.2839  0.3019 -0.1816
   9223SM  H13B12340   5.993   7.252  12.617 -1.7966  0.2452  1.2842
   9223SM  H13C12341   5.991   7.416  12.674 -1.7589 -0.5504 -1.7591
   9223SM   C1212342   6.240   7.449  12.722 -0.0770 -0.8527 -0.3530
   9223SM  H12A12343   6.344   7.465  12.700 -0.0256  1.4724  1.2857
   9223SM  H12B12344   6.241   7.413  12.824  0.0276  0.3261  0.0744
   9223SM   C1112345   6.183   7.590  12.710 -0.1702  0.0763  1.0292
   9223SM  H11A12346   6.214   7.651  12.798  0.0717 -0.2708  1.1883
   9223SM  H11B12347   6.073   7.577  12.717 -0.7572  2.2368 -2.1356
   9223SM     P12348   6.371   7.688  12.556 -0.0877  0.6003  0.2816
   9223SM   O1312349   6.426   7.557  12.510  0.1372  0.3198 -0.4201
   9223SM   O1412350   6.395   7.804  12.471 -0.0519  0.0204 -0.0415
   9223SM   O1112351   6.422   7.725  12.700 -0.0459  0.0434  0.1139
   9223SM   O1212352   6.220   7.662  12.586 -0.2004  0.3166 -0.4372
   9223SM   C1S12353   6.402   7.855  12.754 -0.6178  0.5140 -0.6909
   9223SM   H1S12354   6.327   7.911  12.694 -1.7249 -0.4162 -0.2189
   9223SM   H1T12355   6.499   7.908  12.743  1.0612 -2.1153  0.6204
   9223SM    NF12356   6.318   7.983  12.940 -0.4958 -0.2806  0.0247
   9223SM   HNF12357   6.388   8.054  12.939 -0.0945 -0.5068  3.1056
   9223SM   C2S12358   6.359   7.852  12.906 -0.4913 -0.0171 -0.9037
   9223SM   H2S12359   6.271   7.789  12.927  1.4966 -2.8065 -0.3220
   9223SM   C3S12360   6.466   7.800  13.004 -0.4342  0.0561  0.1780
   9223SM   H3S12361   6.549   7.872  12.989  0.4208 -1.3785 -2.5321
   9223SM    O312362   6.518   7.676  12.960  0.2992 -0.1240  0.6119
   9223SM   HO312363   6.499   7.683  12.866  0.9464  2.0825  0.5805
   9223SM   C4S12364   6.431   7.796  13.150 -0.6111 -0.6086  0.1443
   9223SM   H4S12365   6.414   7.899  13.185 -1.6417 -1.2808  1.7345
   9223SM   C5S12366   6.404   7.694  13.235 -0.6575  0.4781  0.0903
   9223SM   H5S12367   6.413   7.592  13.194  0.0641  1.1196 -1.4375
   9223SM   C6S12368   6.377   7.703  13.381  0.0777 -0.5334  0.6081
   9223SM   H6S12369   6.294   7.639  13.417 -0.1185  0.6843  2.4323
   9223SM   H6T12370   6.338   7.800  13.419 -1.5985 -0.9554  0.0420
   9223SM   C7S12371   6.501   7.667  13.476 -0.1339 -0.2820  0.3473
   9223SM   H7S12372   6.590   7.733  13.468  1.3109 -2.2613 -0.6324
   9223SM   H7T12373   6.539   7.568  13.443 -1.3420 -1.5532  2.4895
   9223SM   C8S12374   6.454   7.651  13.618 -0.5129 -0.0861 -0.2212
   9223SM   H8S12375   6.368   7.582  13.627 -0.7830  0.3500  0.6650
   9223SM   H8T12376   6.433   7.755  13.651  0.1592 -0.5206  1.6980
   9223SM   C9S12377   6.567   7.609  13.717  0.1889 -0.0632  0.0511
   9223SM   H9S12378   6.657   7.674  13.706 -0.3526  0.5151 -1.1174
   9223SM   H9T12379   6.592   7.503  13.694 -2.5373 -1.1661  1.6700
   9223SM  C10S12380   6.518   7.598  13.860 -0.3744  0.2542  0.1026
   9223SM  H10S12381   6.451   7.509  13.861  0.4972 -0.4576  2.6336
   9223SM  H10T12382   6.458   7.688  13.890 -0.5579 -0.7918  3.3040
   9223SM  C11S12383   6.632   7.562  13.962  0.3232 -0.2510  0.3496
   9223SM  H11S12384   6.727   7.615  13.938  0.5942 -1.2732 -0.9077
   9223SM  H11T12385   6.655   7.454  13.960 -2.9635 -1.0475 -0.3327
   9223SM  C12S12386   6.593   7.589  14.111  0.2997 -0.1042  0.9428
   9223SM  H12S12387   6.493   7.546  14.133  0.7789 -2.0080 -0.4353
   9223SM  H12T12388   6.576   7.699  14.107 -2.2030 -0.4663 -2.1352
   9223SM  C13S12389   6.700   7.525  14.198  0.8911 -0.0609  0.3359
   9223SM  H13S12390   6.800   7.559  14.165  1.8683  0.1577  3.2688
   9223SM  H13T12391   6.685   7.415  14.194  1.0162 -0.0561 -0.7902
   9223SM  C14S12392   6.672   7.559  14.350  0.0309 -0.3139  0.0707
   9223SM  H14S12393   6.569   7.536  14.386  0.8620 -3.2072  0.8596
   9223SM  H14T12394   6.694   7.667  14.361  2.0177 -0.6967  0.1627
   9223SM  C15S12395   6.765   7.483  14.442 -1.0879 -0.5763 -0.1415
   9223SM  H15S12396   6.866   7.517  14.410 -1.1882  0.0198  0.1606
   9223SM  H15T12397   6.754   7.372  14.436  3.3015 -1.2109  0.5380
   9223SM  C16S12398   6.747   7.516  14.593  0.3330  0.6743  0.5181
   9223SM  H16S12399   6.652   7.470  14.627  1.0121 -1.6124 -0.5121
   9223SM  H16T12400   6.751   7.626  14.611 -2.2406  0.8295  0.4124
   9223SM  C17S12401   6.869   7.458  14.672  0.0597 -1.1012 -0.1498
   9223SM  H17S12402   6.948   7.517  14.621  0.9776 -1.3535  0.9517
   9223SM  H17T12403   6.876   7.349  14.653  0.6530 -1.1475  0.3232
   9223SM  C18S12404   6.862   7.494  14.817  0.1668  0.2203 -0.1390
   9223SM  H18S12405   6.935   7.427  14.868 -0.6990 -1.5589 -1.1070
   9223SM  H18T12406   6.760   7.469  14.853  0.7191  0.2390  1.5274
   9223SM  H18U12407   6.883   7.601  14.838  0.8249  0.0439  0.1525
   9223SM   C1F12408   6.198   8.036  12.911  0.4103 -0.4186 -0.1985
   9223SM    OF12409   6.108   7.962  12.868  0.4652  0.4186 -0.2710
   9223SM   C2F12410   6.178   8.183  12.913  0.2820  0.0911  0.2535
   9223SM   H2F12411   6.179   8.206  12.804  0.4013 -1.1350 -0.0206
   9223SM   H2G12412   6.268   8.231  12.955 -0.4664  1.2584  0.5672
   9223SM   C3F12413   6.050   8.219  12.978 -0.5814 -0.5317 -1.2698
   9223SM   H3F12414   5.958   8.184  12.925 -2.2836  0.3885  0.9319
   9223SM   H3G12415   6.039   8.329  12.985  0.6344 -0.4935  0.9020
   9223SM   C4F12416   6.046   8.156  13.128  0.3548 -0.4933 -0.0127
   9223SM   H4F12417   6.087   8.053  13.139 -0.1751 -0.6755  0.3175
   9223SM   H4G12418   5.938   8.145  13.150  0.2220 -1.2503 -0.9507
   9223SM   C5F12419   6.103   8.250  13.234 -0.2256 -0.0357 -1.4835
   9223SM   H5F12420   6.092   8.360  13.224 -1.7084 -0.1226 -1.0507
   9223SM   H5G12421   6.214   8.240  13.228 -0.1797 -0.6711  0.1309
   9223SM   C6F12422   6.069   8.192  13.375 -0.9430  0.6654 -0.1785
   9223SM   H6F12423   6.097   8.085  13.363  1.4860  1.1746  0.2549
   9223SM   H6G12424   5.961   8.190  13.399 -1.1263 -1.0034 -1.0316
   9223SM   C7F12425   6.161   8.236  13.491  0.3086  0.3689 -0.8073
   9223SM   H7F12426   6.129   8.342  13.489 -0.2492  0.2842  1.3086
   9223SM   H7G12427   6.271   8.242  13.475  0.1883  0.4456 -1.6467
   9223SM   C8F12428   6.127   8.177  13.628  0.2598 -0.6092  0.2068
   9223SM   H8F12429   6.017   8.191  13.641  0.5618  2.1781  0.3517
   9223SM   H8G12430   6.186   8.234  13.702  0.7402 -1.0737  0.1866
   9223SM   C9F12431   6.155   8.036  13.657  0.0804 -0.0223  0.1270
   9223SM   H9F12432   6.265   8.023  13.642  0.5132  1.7791  1.3658
   9223SM   H9G12433   6.112   7.969  13.579  1.1031  0.6843 -1.0835
   9223SM  C10F12434   6.108   7.987  13.793 -0.0215 -0.4174  0.7212
   9223SM  H10F12435   6.037   7.904  13.774 -0.0721  0.3257 -3.1261
   9223SM  H10G12436   6.049   8.074  13.831 -0.5783 -0.2877 -0.3903
   9223SM  C11F12437   6.219   7.948  13.889 -0.6475 -0.2004 -0.0168
   9223SM  H11F12438   6.275   8.043  13.905 -2.6852  1.2458 -0.9901
   9223SM  H11G12439   6.298   7.881  13.849  1.2808  0.1152  2.9775
   9223SM  C12F12440   6.169   7.879  14.016 -1.0763 -0.5000  0.4811
   9223SM  H12F12441   6.130   7.778  13.992  0.5891 -1.5137  1.7570
   9223SM  H12G12442   6.097   7.946  14.067  0.8624 -0.1926  3.0336
   9223SM  C13F12443   6.282   7.845  14.116  0.2183  0.7565  0.1105
   9223SM  H13F12444   6.317   7.944  14.154 -0.6210  0.2422  2.4192
   9223SM  H13G12445   6.367   7.788  14.074 -0.6880 -1.2047  0.8557
   9223SM  C14F12446   6.233   7.759  14.235 -0.1639  0.3544  0.0758
   9223SM  H14F12447   6.206   7.652  14.218 -0.9044  0.2289  1.7962
   9223SM  H14G12448   6.142   7.811  14.272  1.0311  1.0875  2.1654
   9223SM  C15F12449   6.334   7.755  14.352  0.3699  0.5833  0.1826
   9223SM  H15F12450   6.385   7.853  14.346 -1.6351  1.7535  1.1833
   9223SM  H15G12451   6.393   7.661  14.341 -0.1980  0.2310  0.1130
   9223SM  C16F12452   6.264   7.746  14.492 -0.3064 -0.2119  0.2876
   9223SM  H16F12453   6.181   7.673  14.492 -1.6634  1.2663  0.4107
   9223SM  H16G12454   6.219   7.845  14.518 -1.0253 -0.9165  1.8335
   9223SM  C17F12455   6.352   7.704  14.602 -1.4299  0.1884 -0.1508
   9223SM  H17F12456   6.390   7.603  14.577 -1.9178 -0.6775  2.2938
   9223SM  H17G12457   6.294   7.681  14.694 -0.1481 -1.9341  0.1992
   9223SM  C18F12458   6.466   7.808  14.631  0.4563 -0.5454 -0.6386
   9223SM  H18F12459   6.411   7.904  14.643  1.1119 -0.4250  1.9406
   9223SM  H18G12460   6.547   7.817  14.555 -0.3273 -1.4032 -1.5969
   9223SM  C19F12461   6.538   7.784  14.769  0.7201 -0.1281  0.1734
   9223SM  H19F12462   6.607   7.697  14.775 -0.8175 -1.5699 -2.1008
   9223SM  H19G12463   6.457   7.753  14.838  1.3734 -0.3125  0.8764
   9223SM  C20F12464   6.618   7.902  14.814  0.1875  0.1924  0.2059
   9223SM  H20F12465   6.565   7.998  14.797  0.5767  0.0762 -1.9479
   9223SM  H20G12466   6.706   7.900  14.746 -0.8009 -0.8994 -1.0798
   9223SM  C21F12467   6.658   7.879  14.965 -0.3546  0.2480  0.4868
   9223SM  H21F12468   6.722   7.792  14.988 -0.1863  0.3962  0.5798
   9223SM  H21G12469   6.562   7.859  15.018 -2.4440  1.4282 -2.5478
   9223SM  C22F12470   6.720   8.005  15.038 -0.4266  0.1437  0.0034
   9223SM  H22F12471   6.650   8.089  15.021 -0.1227  0.0773 -1.7494
   9223SM  H22G12472   6.817   8.030  14.989 -1.1558 -0.0732 -1.6033
   9223SM  C23F12473   6.748   7.985  15.191  1.0826  0.1841 -0.7421
   9223SM  H23F12474   6.780   8.078  15.243 -1.2017 -0.1152  1.3769
   9223SM  H23G12475   6.823   7.903  15.205  0.1581 -0.8023 -1.3860
   9223SM  H23H12476   6.660   7.942  15.242  0.0933  1.3754 -1.3886
   9323SM     N12477   7.373   3.040  12.474 -0.0494  0.5826  0.3173
   9323SM   C1512478   7.470   2.953  12.389 -0.0619 -0.3835 -0.4611
   9323SM  H15A12479   7.541   2.909  12.458 -1.4921  1.1272  2.1329
   9323SM  H15B12480   7.522   3.016  12.319  0.6011 -0.1958  0.1827
   9323SM  H15C12481   7.418   2.878  12.333  1.9158 -0.0968 -2.8397
   9323SM   C1412482   7.448   3.151  12.546  0.3280  0.2057  0.3981
   9323SM  H14A12483   7.393   3.206  12.621  2.0294 -0.5546  2.3148
   9323SM  H14B12484   7.491   3.226  12.481  0.9116  0.3208  0.9045
   9323SM  H14C12485   7.531   3.111  12.602 -1.0801 -1.0270  1.6812
   9323SM   C1312486   7.289   3.113  12.373 -0.3309 -0.1936  0.2531
   9323SM  H13A12487   7.352   3.163  12.301 -2.4930  2.8524  0.3381
   9323SM  H13B12488   7.227   3.192  12.412 -0.7323  0.1098 -0.9561
   9323SM  H13C12489   7.219   3.047  12.324 -2.8470  0.9155  2.1766
   9323SM   C1212490   7.290   2.956  12.566  0.0194 -1.2866  0.0741
   9323SM  H12A12491   7.225   2.890  12.510  1.7177 -1.1715 -2.1774
   9323SM  H12B12492   7.238   3.033  12.622 -0.6341  0.6618 -2.9853
   9323SM   C1112493   7.357   2.857  12.662  0.0325  0.3451  0.0686
   9323SM  H11A12494   7.422   2.789  12.602  0.9150  0.2784  1.0750
   9323SM  H11B12495   7.277   2.794  12.708 -0.5620  0.6082 -0.5755
   9323SM     P12496   7.362   3.012  12.870 -0.3559 -0.5134 -0.0561
   9323SM   O1312497   7.463   3.070  12.968 -0.3131  0.5121 -0.3133
   9323SM   O1412498   7.277   3.111  12.808 -0.1922  0.3116  0.5033
   9323SM   O1112499   7.279   2.904  12.942  0.0373  0.2142 -0.2601
   9323SM   O1212500   7.433   2.930  12.756 -0.0435 -0.2439  0.1527
   9323SM   C1S12501   7.328   2.772  12.979  0.4584 -0.0426 -0.4135
   9323SM   H1S12502   7.419   2.747  12.920 -0.0399 -0.3751 -1.0589
   9323SM   H1T12503   7.248   2.705  12.943 -1.9500  2.0948  0.6744
   9323SM    NF12504   7.393   2.611  13.160  0.0669  0.6196 -0.1394
   9323SM   HNF12505   7.329   2.543  13.195 -1.1240  0.2846 -2.7593
   9323SM   C2S12506   7.333   2.740  13.137 -0.5042  0.2657  0.7016
   9323SM   H2S12507   7.402   2.804  13.196  2.5589 -0.6674 -1.5906
   9323SM   C3S12508   7.189   2.752  13.195  0.3296  0.6516 -0.7456
   9323SM   H3S12509   7.135   2.662  13.158  1.1241 -0.0260 -0.3012
   9323SM    O312510   7.109   2.857  13.146  0.5674 -0.6765  1.1479
   9323SM   HO312511   7.149   2.880  13.062 -1.4857  1.2992  0.6020
   9323SM   C4S12512   7.184   2.742  13.345  0.3643  0.6255 -0.4335
   9323SM   H4S12513   7.140   2.649  13.386 -0.0560  1.1699  0.3862
   9323SM   C5S12514   7.225   2.840  13.431 -0.3867  0.2577 -1.1557
   9323SM   H5S12515   7.279   2.926  13.389  0.5768  0.5884  0.6782
   9323SM   C6S12516   7.218   2.827  13.583  0.3484 -0.1385 -0.4704
   9323SM   H6S12517   7.169   2.917  13.626  1.0649 -1.0770  2.5101
   9323SM   H6T12518   7.320   2.818  13.628 -0.1527 -1.1325  0.5113
   9323SM   C7S12519   7.132   2.705  13.634  0.3785  0.0465 -0.0071
   9323SM   H7S12520   7.163   2.602  13.609 -0.8301 -0.4827  0.5947
   9323SM   H7T12521   7.030   2.696  13.590  0.8407 -2.5885 -0.7242
   9323SM   C8S12522   7.120   2.702  13.789  0.5269  0.5251 -0.7273
   9323SM   H8S12523   7.047   2.623  13.818  0.9171  1.0257  1.8670
   9323SM   H8T12524   7.077   2.799  13.822 -0.7215  0.3694 -1.8313
   9323SM   C9S12525   7.259   2.687  13.860  0.3549  0.2791  0.9190
   9323SM   H9S12526   7.326   2.768  13.824 -1.6315  1.5771 -0.0362
   9323SM   H9T12527   7.307   2.593  13.825 -0.5925  0.6129 -1.4343
   9323SM  C10S12528   7.253   2.698  14.012 -0.0316  0.3398  0.5332
   9323SM  H10S12529   7.219   2.796  14.052 -1.8267 -0.3340  0.7217
   9323SM  H10T12530   7.355   2.684  14.054 -1.1390 -4.4290  2.2578
   9323SM  C11S12531   7.178   2.585  14.085  0.8066  0.1939 -0.2791
   9323SM  H11S12532   7.215   2.487  14.049  0.0453 -0.7475  1.4211
   9323SM  H11T12533   7.069   2.590  14.064  0.7460 -0.6327 -0.1953
   9323SM  C12S12534   7.198   2.586  14.242 -0.1867  0.3677  0.3883
   9323SM  H12S12535   7.156   2.680  14.284 -1.5996  0.6563 -1.5635
   9323SM  H12T12536   7.309   2.587  14.247 -0.0236  0.4307 -2.0509
   9323SM  C13S12537   7.148   2.471  14.312 -0.0521 -0.0348  0.4303
   9323SM  H13S12538   7.154   2.381  14.247  0.0077  1.1442 -1.2481
   9323SM  H13T12539   7.042   2.488  14.340 -0.6980  0.3097 -1.9933
   9323SM  C14S12540   7.237   2.449  14.439  0.0207 -0.2767  0.0611
   9323SM  H14S12541   7.222   2.535  14.508  0.4008  0.0491 -0.2534
   9323SM  H14T12542   7.343   2.448  14.407  0.0589  1.3325  0.0389
   9323SM  C15S12543   7.199   2.328  14.524 -0.9249 -0.2173 -0.0015
   9323SM  H15S12544   7.104   2.335  14.582 -0.8602 -0.6594  0.1589
   9323SM  H15T12545   7.204   2.240  14.456 -0.9499  0.0519 -0.3560
   9323SM  C16S12546   7.313   2.299  14.625 -0.3985 -0.2766  0.9372
   9323SM  H16S12547   7.404   2.312  14.561 -0.8534 -0.2974  0.2764
   9323SM  H16T12548   7.311   2.193  14.659  2.8947 -0.5097  0.7510
   9323SM  C17S12549   7.310   2.400  14.736 -0.3503 -0.0235 -0.2265
   9323SM  H17S12550   7.212   2.389  14.788 -0.3171  2.4228  0.4844
   9323SM  H17T12551   7.326   2.506  14.706 -3.1402  1.0192  1.5444
   9323SM  C18S12552   7.421   2.371  14.839  0.1535 -0.4405  1.1961
   9323SM  H18S12553   7.395   2.275  14.890 -1.0304 -0.3162  0.8730
   9323SM  H18T12554   7.433   2.451  14.915 -1.7996 -0.6958  1.8306
   9323SM  H18U12555   7.516   2.362  14.783 -0.4075 -0.6696  0.2661
   9323SM   C1F12556   7.520   2.582  13.157 -0.4303 -0.7251 -0.0388
   9323SM    OF12557   7.596   2.663  13.114 -0.2886  0.0939 -0.8266
   9323SM   C2F12558   7.567   2.451  13.209 -0.4988 -0.3547  0.2551
   9323SM   H2F12559   7.609   2.390  13.126  2.1450 -0.6866  1.7539
   9323SM   H2G12560   7.479   2.398  13.253  0.0097 -0.8931  0.6359
   9323SM   C3F12561   7.672   2.469  13.320  0.1780 -0.2398 -0.7917
   9323SM   H3F12562   7.768   2.503  13.277 -0.1298  1.6544 -0.0564
   9323SM   H3G12563   7.684   2.365  13.358  0.5941  0.7262  1.9961
   9323SM   C4F12564   7.623   2.560  13.435 -0.1237 -0.3242  0.6958
   9323SM   H4F12565   7.527   2.513  13.465 -1.8203  1.9777 -0.7973
   9323SM   H4G12566   7.591   2.657  13.391 -1.2903 -1.3271 -0.8024
   9323SM   C5F12567   7.722   2.576  13.549  0.4497  0.1711  0.2516
   9323SM   H5F12568   7.826   2.602  13.520 -0.3148  0.8016 -2.1241
   9323SM   H5G12569   7.720   2.473  13.593  1.8573 -0.0740 -0.1920
   9323SM   C6F12570   7.669   2.667  13.659 -0.2769  0.5453 -0.2988
   9323SM   H6F12571   7.567   2.633  13.687  0.6647 -0.7125  1.8447
   9323SM   H6G12572   7.672   2.773  13.628  1.5041  0.4563 -0.5611
   9323SM   C7F12573   7.767   2.647  13.772  0.8296 -0.1571 -0.2556
   9323SM   H7F12574   7.862   2.704  13.763  0.0768  1.0845 -0.5396
   9323SM   H7G12575   7.794   2.544  13.802  4.2216 -0.0134 -2.2577
   9323SM   C8F12576   7.708   2.693  13.903 -0.3012 -0.6029 -0.1220
   9323SM   H8F12577   7.621   2.625  13.918 -1.2021  0.5804  0.1132
   9323SM   H8G12578   7.666   2.795  13.895  0.9469 -0.1647 -1.7284
   9323SM   C9F12579   7.812   2.676  14.016 -0.1808 -0.1391 -0.4474
   9323SM   H9F12580   7.897   2.746  14.001  0.2517 -0.6947 -0.5997
   9323SM   H9G12581   7.850   2.571  14.013  1.0224  0.2695 -0.2564
   9323SM  C10F12582   7.751   2.690  14.158 -0.0525  0.0578 -0.6020
   9323SM  H10F12583   7.667   2.617  14.169  0.9058 -0.9630  0.2450
   9323SM  H10G12584   7.713   2.793  14.174  0.7992  0.4642 -1.1786
   9323SM  C11F12585   7.851   2.670  14.277 -0.1106  0.0605  0.0939
   9323SM  H11F12586   7.934   2.742  14.264  3.1473 -3.3319  0.5816
   9323SM  H11G12587   7.889   2.567  14.287 -1.4115 -0.3076  1.6321
   9323SM  C12F12588   7.791   2.708  14.406  0.3269  0.0951 -0.2984
   9323SM  H12F12589   7.697   2.651  14.424 -0.4888  1.3833 -0.2994
   9323SM  H12G12590   7.748   2.811  14.413 -1.3473 -0.6231  0.7381
   9323SM  C13F12591   7.884   2.691  14.532 -0.2817 -0.3673 -0.0209
   9323SM  H13F12592   7.971   2.761  14.528  0.9441 -1.6381  2.1919
   9323SM  H13G12593   7.916   2.585  14.539 -2.5745 -1.0102  1.6026
   9323SM  C14F12594   7.797   2.714  14.658  0.3606 -0.2817 -0.1376
   9323SM  H14F12595   7.710   2.651  14.634 -0.9585  1.9976 -1.6988
   9323SM  H14G12596   7.775   2.823  14.661 -0.6908 -0.4909  0.5314
   9323SM  C15F12597   7.873   2.681  14.793  0.5285  1.0023  0.6885
   9323SM  H15F12598   7.975   2.724  14.790  0.4107  1.4523  2.2486
   9323SM  H15G12599   7.877   2.570  14.800  0.6829  0.9650  0.0609
   9323SM  C16F12600   7.808   2.737  14.918  0.5842  0.2182 -0.2632
   9323SM  H16F12601   7.702   2.704  14.923  0.4961  0.4931 -0.3278
   9323SM  H16G12602   7.804   2.845  14.895  0.0944  0.3962  0.6277
   9323SM  C17F12603   7.869   2.717  15.053 -0.4644  0.0311 -0.1482
   9323SM  H17F12604   7.829   2.795  15.122 -1.6954  0.4287 -1.2876
   9323SM  H17G12605   7.972   2.759  15.041 -1.0777  1.8708  0.6894
   9323SM  C18F12606   7.864   2.578  15.114 -0.6956  1.0100 -0.4776
   9323SM  H18F12607   7.916   2.575  15.212  1.6240 -1.0562 -1.6618
   9323SM  H18G12608   7.919   2.506  15.051  2.9303  0.6670  2.6963
   9323SM  C19F12609   7.729   2.516  15.151 -0.0907  0.8375 -0.1925
   9323SM  H19F12610   7.747   2.407  15.145 -1.9215  0.5126 -0.4891
   9323SM  H19G12611   7.647   2.527  15.076 -2.2752  1.0428  2.0701
   9323SM  C20F12612   7.660   2.559  15.287 -0.2427 -0.0563  0.2426
   9323SM  H20F12613   7.639   2.668  15.289  1.8184  0.3646  1.3076
   9323SM  H20G12614   7.741   2.557  15.363  0.5754  1.1012 -0.5631
   9323SM  C21F12615   7.546   2.465  15.328 -0.2251  0.5912 -0.0424
   9323SM  H21F12616   7.578   2.361  15.349 -2.8469 -0.4380 -0.7373
   9323SM  H21G12617   7.491   2.462  15.231  0.7534  0.4906 -0.6099
   9323SM  C22F12618   7.452   2.522  15.437 -0.6943 -0.1407 -0.2089
   9323SM  H22F12619   7.422   2.619  15.392  1.2409 -0.0222 -1.3517
   9323SM  H22G12620   7.513   2.558  15.522 -3.0995 -0.4188  1.7591
   9323SM  C23F12621   7.338   2.429  15.481  0.0512  0.1823 -0.1953
   9323SM  H23F12622   7.363   2.376  15.575 -1.0827  0.1311  0.0878
   9323SM  H23G12623   7.314   2.353  15.403  1.6006 -2.2633  1.5742
   9323SM  H23H12624   7.250   2.494  15.502 -0.0455  0.2699 -0.8399
   9423SM     N12625   5.388   5.236  12.284  0.0864 -0.5261 -0.0959
   9423SM   C1512626   5.403   5.091  12.261 -0.4212 -0.0788 -0.0674
   9423SM  H15A12627   5.326   5.051  12.196 -1.4057  1.1849  0.2830
   9423SM  H15B12628   5.400   5.044  12.359  0.5079  1.7810  0.9105
   9423SM  H15C12629   5.502   5.076  12.221 -0.0843  0.0628  0.6965
   9423SM   C1412630   5.510   5.283  12.354  0.1301  0.6606 -0.1073
   9423SM  H14A12631   5.599   5.261  12.296  0.4098  3.9419 -1.1345
   9423SM  H14B12632   5.515   5.250  12.456 -2.8170  1.1951  0.2947
   9423SM  H14C12633   5.495   5.390  12.354  0.3531  0.7202 -1.5262
   9423SM   C1312634   5.386   5.301  12.149 -0.3040 -0.0009 -0.2622
   9423SM  H13A12635   5.294   5.282  12.096  1.2426 -1.3418 -2.6745
   9423SM  H13B12636   5.458   5.259  12.080  0.1818 -1.3165  0.9976
   9423SM  H13C12637   5.394   5.408  12.160  0.6551 -0.1534  0.6916
   9423SM   C1212638   5.258   5.265  12.354  0.3260  0.6649  0.0595
   9423SM  H12A12639   5.167   5.220  12.317 -0.4007 -0.2882  2.7185
   9423SM  H12B12640   5.230   5.368  12.342 -1.6669  0.4637  2.1916
   9423SM   C1112641   5.244   5.232  12.510  0.7408  0.2736 -0.2879
   9423SM  H11A12642   5.140   5.256  12.540  0.8439 -1.4074  1.6811
   9423SM  H11B12643   5.309   5.295  12.574 -1.5943  2.3286  0.2125
   9423SM     P12644   5.337   5.023  12.644 -0.1204 -0.1143 -0.0449
   9423SM   O1312645   5.280   4.887  12.661 -0.2015 -0.2005  0.0906
   9423SM   O1412646   5.485   5.029  12.622  0.0511  0.1139  0.1282
   9423SM   O1112647   5.303   5.097  12.784  0.0878 -0.0376  0.5750
   9423SM   O1212648   5.254   5.089  12.523  0.7100 -0.0051 -0.5945
   9423SM   C1S12649   5.380   5.057  12.900 -0.3918 -0.3565 -0.4160
   9423SM   H1S12650   5.489   5.074  12.886 -0.0290 -1.6776  0.5462
   9423SM   H1T12651   5.369   4.946  12.906  0.1601 -0.6533 -3.2708
   9423SM    NF12652   5.396   5.074  13.145 -0.4755  0.0892 -0.2988
   9423SM   HNF12653   5.348   5.014  13.208 -0.2137  0.0694 -0.1209
   9423SM   C2S12654   5.325   5.123  13.026  0.0611 -0.3682 -0.4137
   9423SM   H2S12655   5.354   5.230  13.019  1.6126 -0.2445  4.3691
   9423SM   C3S12656   5.170   5.111  13.049 -0.2548  0.4357  0.5997
   9423SM   H3S12657   5.148   5.003  13.060  1.0819  0.3098  2.5545
   9423SM    O312658   5.092   5.161  12.942  0.5354 -0.5118  0.0299
   9423SM   HO312659   5.149   5.171  12.866  0.3970 -2.2694 -0.3432
   9423SM   C4S12660   5.143   5.185  13.177 -0.1404  0.4614 -0.4703
   9423SM   H4S12661   5.186   5.286  13.180 -1.7428  1.1647  0.0439
   9423SM   C5S12662   5.072   5.128  13.276  0.9743 -0.9460 -0.2301
   9423SM   H5S12663   5.043   5.024  13.258  0.9567 -0.7041 -1.7507
   9423SM   C6S12664   5.038   5.187  13.412  0.1708 -0.3084  0.2256
   9423SM   H6S12665   4.936   5.170  13.453 -0.9248 -1.4427 -2.6905
   9423SM   H6T12666   5.050   5.297  13.411  1.3021 -0.4231 -0.4759
   9423SM   C7S12667   5.146   5.144  13.524  0.4600 -0.6488  0.6911
   9423SM   H7S12668   5.244   5.147  13.472  0.6568  0.9182  1.1123
   9423SM   H7T12669   5.132   5.035  13.541 -0.2091 -0.8521 -0.9572
   9423SM   C8S12670   5.149   5.219  13.654 -0.3283 -0.5660  0.4178
   9423SM   H8S12671   5.135   5.326  13.629 -2.8924 -0.3513  2.4097
   9423SM   H8T12672   5.246   5.195  13.703  0.9493  1.8729 -0.7306
   9423SM   C9S12673   5.029   5.197  13.749  0.0029  0.9774 -0.2161
   9423SM   H9S12674   5.039   5.101  13.805 -1.5207  0.4655 -0.7627
   9423SM   H9T12675   4.933   5.193  13.693  0.0568 -0.4925 -0.2534
   9423SM  C10S12676   5.013   5.316  13.851 -0.6760 -0.5780  0.0217
   9423SM  H10S12677   4.910   5.331  13.890 -0.3887  1.8401 -0.0068
   9423SM  H10T12678   5.047   5.412  13.807  1.5579 -0.9554  0.8122
   9423SM  C11S12679   5.101   5.295  13.980  0.2517  0.5530  0.2466
   9423SM  H11S12680   5.209   5.287  13.955 -0.1495  0.3069 -1.5316
   9423SM  H11T12681   5.063   5.202  14.026 -2.0313 -0.2958 -2.9810
   9423SM  C12S12682   5.075   5.412  14.082 -0.5793  0.8129  0.7702
   9423SM  H12S12683   4.969   5.390  14.109 -0.0541 -0.7659  1.6962
   9423SM  H12T12684   5.083   5.501  14.016  1.6828  0.1979  0.1133
   9423SM  C13S12685   5.181   5.401  14.194  0.3649 -0.0127 -0.7330
   9423SM  H13S12686   5.279   5.419  14.146  1.0601 -0.3413  0.5417
   9423SM  H13T12687   5.187   5.300  14.240  0.6325 -0.2922 -1.3678
   9423SM  C14S12688   5.161   5.512  14.297 -0.1959  0.1114 -0.6494
   9423SM  H14S12689   5.053   5.505  14.323 -0.0770  0.9745  0.1544
   9423SM  H14T12690   5.180   5.612  14.251 -1.5706  0.0591 -1.4021
   9423SM  C15S12691   5.247   5.491  14.419 -0.1415 -0.1321 -0.0737
   9423SM  H15S12692   5.221   5.394  14.467 -0.9816  0.2184  0.1922
   9423SM  H15T12693   5.212   5.575  14.483  0.3483 -0.2271  0.3254
   9423SM  C16S12694   5.396   5.494  14.395 -0.2802 -0.0070  0.1156
   9423SM  H16S12695   5.439   5.573  14.329  2.9714  1.7922  3.9379
   9423SM  H16T12696   5.421   5.392  14.357  1.9535 -0.2286  1.9658
   9423SM  C17S12697   5.471   5.521  14.529 -0.1827 -0.1386  0.9068
   9423SM  H17S12698   5.459   5.631  14.546  0.8316  0.4470 -1.6780
   9423SM  H17T12699   5.577   5.502  14.503  0.1205  1.3199  0.9845
   9423SM  C18S12700   5.426   5.440  14.649 -0.4944  0.0410  0.2304
   9423SM  H18S12701   5.324   5.469  14.680 -1.4623 -0.7598 -2.0284
   9423SM  H18T12702   5.504   5.460  14.726 -0.2683 -1.0360  0.2940
   9423SM  H18U12703   5.421   5.330  14.635  1.2608 -0.0494  0.1033
   9423SM   C1F12704   5.523   5.096  13.173 -0.6785 -0.5621 -0.0998
   9423SM    OF12705   5.597   5.138  13.086 -0.5746 -0.3473  0.5362
   9423SM   C2F12706   5.571   5.050  13.313  0.0925  0.0470  0.1822
   9423SM   H2F12707   5.680   5.028  13.312  0.0298 -0.3767 -1.9102
   9423SM   H2G12708   5.512   4.960  13.338  0.4564 -0.3351 -0.3304
   9423SM   C3F12709   5.545   5.154  13.425 -0.2814 -0.2860  0.5030
   9423SM   H3F12710   5.437   5.173  13.443 -1.0330 -2.9195 -0.6801
   9423SM   H3G12711   5.587   5.250  13.387  1.4214 -1.2580 -0.1556
   9423SM   C4F12712   5.613   5.114  13.558  0.0987  0.5398  0.1398
   9423SM   H4F12713   5.717   5.096  13.526  0.8790  2.2008  1.5851
   9423SM   H4G12714   5.567   5.019  13.592  0.2550 -0.1998 -1.6169
   9423SM   C5F12715   5.614   5.224  13.664 -0.9912  0.1959  0.4791
   9423SM   H5F12716   5.506   5.243  13.683 -0.9793  0.2850  0.4622
   9423SM   H5G12717   5.654   5.317  13.618 -0.8085 -0.1107  0.0110
   9423SM   C6F12718   5.699   5.194  13.788  0.1535 -0.8721 -0.0212
   9423SM   H6F12719   5.807   5.213  13.777 -0.2475  1.5510 -0.3521
   9423SM   H6G12720   5.692   5.087  13.815 -2.0754 -0.4832  1.2729
   9423SM   C7F12721   5.653   5.289  13.904  0.3067 -0.0737 -0.1295
   9423SM   H7F12722   5.543   5.295  13.918  0.4823 -0.4600  1.7174
   9423SM   H7G12723   5.692   5.390  13.882  0.1984 -0.3449 -1.6865
   9423SM   C8F12724   5.701   5.244  14.042 -0.0075  0.1428 -0.3066
   9423SM   H8F12725   5.812   5.252  14.038  0.2021 -0.8820  2.0520
   9423SM   H8G12726   5.671   5.142  14.073  1.7083 -0.1887  0.4060
   9423SM   C9F12727   5.655   5.337  14.163  0.0020  0.6098 -0.2689
   9423SM   H9F12728   5.545   5.323  14.164 -0.2442  2.1136  2.3704
   9423SM   H9G12729   5.671   5.443  14.135 -3.0309  1.0725 -0.5692
   9423SM  C10F12730   5.717   5.289  14.297  0.3174  0.4258 -0.7319
   9423SM  H10F12731   5.728   5.179  14.311 -3.9413  0.0854  1.3932
   9423SM  H10G12732   5.641   5.314  14.374  0.7402 -0.5805  0.0500
   9423SM  C11F12733   5.858   5.352  14.332 -0.0220 -0.5090  0.9845
   9423SM  H11F12734   5.841   5.461  14.344 -1.3684 -0.5329 -0.4217
   9423SM  H11G12735   5.938   5.345  14.255  0.0085 -0.5122  1.0160
   9423SM  C12F12736   5.901   5.300  14.466 -0.2584 -0.3588 -0.5185
   9423SM  H12F12737   6.003   5.332  14.494  0.7567 -2.0163 -2.1141
   9423SM  H12G12738   5.918   5.192  14.450  1.1268 -0.0684 -1.2259
   9423SM  C13F12739   5.805   5.329  14.587  0.4634  0.5040  0.3919
   9423SM  H13F12740   5.713   5.274  14.555  0.1317  1.0706  0.3604
   9423SM  H13G12741   5.771   5.433  14.601 -0.5102  0.4395 -1.1950
   9423SM  C14F12742   5.847   5.272  14.724  0.2008  0.2390  0.3924
   9423SM  H14F12743   5.931   5.321  14.778 -2.0458  1.9965  2.5333
   9423SM  H14G12744   5.891   5.171  14.707 -1.4731 -0.6878  1.3821
   9423SM  C15F12745   5.728   5.252  14.819 -0.1837  0.0004 -0.0614
   9423SM  H15F12746   5.636   5.207  14.776  0.4201 -1.3016 -0.0218
   9423SM  H15G12747   5.704   5.359  14.837 -1.4709 -0.4410  1.0421
   9423SM  C16F12748   5.772   5.185  14.948 -0.0076 -0.0032  0.1225
   9423SM  H16F12749   5.854   5.250  14.983 -1.1021  1.0760  0.7601
   9423SM  H16G12750   5.806   5.085  14.913  1.5105  0.9193 -1.1680
   9423SM  C17F12751   5.674   5.180  15.068  0.0329  0.0046  0.7986
   9423SM  H17F12752   5.580   5.131  15.035 -0.8968  2.9090 -1.2884
   9423SM  H17G12753   5.645   5.285  15.090 -3.1676 -0.8485  1.1540
   9423SM  C18F12754   5.739   5.137  15.196 -0.2168  0.2904  0.2763
   9423SM  H18F12755   5.820   5.206  15.228  4.2610 -3.4331 -1.7821
   9423SM  H18G12756   5.798   5.045  15.174 -0.4110  0.4752 -1.1217
   9423SM  C19F12757   5.642   5.117  15.310 -0.1020 -0.6145 -0.0163
   9423SM  H19F12758   5.550   5.179  15.301 -1.3354 -2.5121 -1.2662
   9423SM  H19G12759   5.688   5.140  15.409  1.4675  0.2954 -0.9328
   9423SM  C20F12760   5.592   4.976  15.310 -0.2140  0.9144 -0.2117
   9423SM  H20F12761   5.675   4.908  15.279 -1.5836  1.0925 -5.2841
   9423SM  H20G12762   5.521   4.970  15.224 -0.1689  0.4183 -0.2198
   9423SM  C21F12763   5.510   4.929  15.431  0.7204  0.2067 -0.3107
   9423SM  H21F12764   5.430   5.004  15.447 -1.1778 -1.0580 -3.1250
   9423SM  H21G12765   5.575   4.931  15.521 -0.6493  3.3677  0.7477
   9423SM  C22F12766   5.451   4.790  15.405 -0.3574 -0.4087  0.4748
   9423SM  H22F12767   5.387   4.780  15.314  1.8587 -0.3864 -1.1577
   9423SM  H22G12768   5.388   4.766  15.493 -1.0685  0.4210  0.2030
   9423SM  C23F12769   5.562   4.682  15.402 -0.0711  0.2254 -0.8200
   9423SM  H23F12770   5.631   4.688  15.489  0.6565  0.3036 -1.3912
   9423SM  H23G12771   5.623   4.691  15.310  1.8866  3.7773  0.6269
   9423SM  H23H12772   5.510   4.584  15.409  1.2432 -0.4697 -0.4085
   9523SM     N12773   2.029   0.676  12.304 -0.7617  0.3984  0.2464
   9523SM   C1512774   2.089   0.539  12.294 -0.7258 -0.5461  0.1565
   9523SM  H15A12775   2.116   0.528  12.190 -2.8698 -1.2895 -0.3666
   9523SM  H15B12776   2.028   0.451  12.310 -0.3276 -0.7950  0.3488
   9523SM  H15C12777   2.178   0.526  12.354  0.2656  0.2248 -1.0900
   9523SM   C1412778   2.116   0.780  12.245 -0.6289 -0.3687 -0.9022
   9523SM  H14A12779   2.195   0.797  12.316 -2.2348 -0.1084  0.9039
   9523SM  H14B12780   2.080   0.881  12.229  2.9583  1.0323 -0.9921
   9523SM  H14C12781   2.172   0.743  12.160  1.4206 -0.4197  0.4046
   9523SM   C1312782   1.896   0.669  12.229 -1.0296  0.1660 -0.4288
   9523SM  H13A12783   1.903   0.671  12.121 -1.3494 -0.5169 -0.4638
   9523SM  H13B12784   1.825   0.741  12.267 -0.4122 -0.0382  1.2198
   9523SM  H13C12785   1.850   0.574  12.251  0.7603 -0.3447  1.4259
   9523SM   C1212786   2.003   0.707  12.443 -0.3369 -0.7795  0.2325
   9523SM  H12A12787   2.097   0.702  12.497  1.1322 -0.8511 -2.1911
   9523SM  H12B12788   1.942   0.630  12.486  0.6663 -1.1241  1.0771
   9523SM   C1112789   1.926   0.846  12.476  0.2030  0.8309  0.3821
   9523SM  H11A12790   1.959   0.931  12.413  2.2290  0.0966  0.3747
   9523SM  H11B12791   1.948   0.873  12.582 -1.8745  0.8752  0.8490
   9523SM     P12792   1.688   0.947  12.498 -0.0113  0.0117 -0.1556
   9523SM   O1312793   1.727   1.079  12.437  0.4251  0.0260 -0.1440
   9523SM   O1412794   1.549   0.905  12.499  0.1369 -0.4455  0.6091
   9523SM   O1112795   1.730   0.960  12.648 -0.0803  0.2603  0.0095
   9523SM   O1212796   1.781   0.825  12.446  0.3224 -0.3452  0.1296
   9523SM   C1S12797   1.712   0.853  12.740  0.1476 -0.1890  0.9661
   9523SM   H1S12798   1.732   0.756  12.690 -0.4031  0.6452 -0.9642
   9523SM   H1T12799   1.611   0.848  12.786 -0.1580  1.0315  0.4820
   9523SM    NF12800   1.846   0.743  12.921  0.3407 -0.2233  0.4040
   9523SM   HNF12801   1.786   0.718  12.996  0.8241  0.7120  1.1244
   9523SM   C2S12802   1.821   0.871  12.853 -0.3059 -1.4167  0.3008
   9523SM   H2S12803   1.917   0.905  12.808  1.0937 -3.1812  1.8079
   9523SM   C3S12804   1.770   0.987  12.942 -0.9247 -0.0885  0.1872
   9523SM   H3S12805   1.682   0.952  12.999 -1.1051  0.3891  0.2020
   9523SM    O312806   1.717   1.102  12.868 -0.5051  0.0526  0.2114
   9523SM   HO312807   1.723   1.078  12.775 -0.2186  0.8862  0.0108
   9523SM   C4S12808   1.874   1.034  13.045  0.3321  0.2807  0.6180
   9523SM   H4S12809   1.862   0.977  13.138 -1.0983  1.7289  1.3663
   9523SM   C5S12810   1.973   1.123  13.038  0.7894 -0.2507  0.5129
   9523SM   H5S12811   1.961   1.185  12.948  2.0135  1.1829  1.2873
   9523SM   C6S12812   2.071   1.162  13.153  0.1065  0.1037 -0.2850
   9523SM   H6S12813   2.057   1.267  13.185  2.5111  0.0677  1.1468
   9523SM   H6T12814   2.172   1.165  13.105 -0.0187 -2.8306 -0.9295
   9523SM   C7S12815   2.062   1.078  13.281 -0.0087  0.4313 -0.1019
   9523SM   H7S12816   2.082   0.972  13.255 -2.2110 -0.3882  1.3111
   9523SM   H7T12817   1.960   1.088  13.323  1.3748 -2.4136  4.6058
   9523SM   C8S12818   2.158   1.126  13.389  0.0419 -0.2470  0.3295
   9523SM   H8S12819   2.152   1.233  13.418 -0.5721 -0.3856  0.7451
   9523SM   H8T12820   2.264   1.121  13.356 -0.3908 -0.5693 -1.0748
   9523SM   C9S12821   2.144   1.034  13.512  0.0557  0.0529  0.3598
   9523SM   H9S12822   2.146   0.931  13.470 -1.6840  0.1245  0.0283
   9523SM   H9T12823   2.041   1.045  13.553 -0.5088 -2.7232 -0.1275
   9523SM  C10S12824   2.247   1.051  13.616 -1.0679  0.3015 -0.7819
   9523SM  H10S12825   2.259   1.160  13.633  0.2041 -0.1418  1.5232
   9523SM  H10T12826   2.347   1.013  13.585  0.3297  2.9352  0.1988
   9523SM  C11S12827   2.204   0.970  13.744 -0.1040  0.8431  0.2850
   9523SM  H11S12828   2.174   0.868  13.714  2.4647  0.7270 -2.2951
   9523SM  H11T12829   2.122   1.034  13.784  0.2096  0.9042  0.8389
   9523SM  C12S12830   2.302   0.940  13.858 -0.0827 -0.5360 -0.8501
   9523SM  H12S12831   2.365   1.031  13.871  0.4692 -0.4713 -3.4806
   9523SM  H12T12832   2.371   0.863  13.818  1.6709  0.1791  0.6368
   9523SM  C13S12833   2.226   0.899  13.981  0.4404 -0.5227  0.2603
   9523SM  H13S12834   2.150   0.973  14.012  1.5172  0.5124  0.4849
   9523SM  H13T12835   2.310   0.897  14.054 -0.0607 -1.8269  0.8427
   9523SM  C14S12836   2.168   0.753  13.976  0.5387 -0.7194  0.1715
   9523SM  H14S12837   2.245   0.693  13.922 -0.2767 -1.0602 -0.6481
   9523SM  H14T12838   2.072   0.754  13.920  0.5123  0.8675  0.2078
   9523SM  C15S12839   2.139   0.687  14.109  0.2833  0.7040  0.2232
   9523SM  H15S12840   2.047   0.728  14.157 -2.0331 -3.0903 -0.5235
   9523SM  H15T12841   2.220   0.704  14.182  0.3626  0.3365  0.2207
   9523SM  C16S12842   2.100   0.538  14.097 -0.1358  0.3076 -0.3438
   9523SM  H16S12843   2.184   0.477  14.057 -0.8217 -0.9883  0.1191
   9523SM  H16T12844   2.016   0.512  14.030  0.1845 -1.2618 -0.1888
   9523SM  C17S12845   2.057   0.467  14.231  0.4776  0.9602 -0.5059
   9523SM  H17S12846   1.984   0.532  14.283 -1.1861 -2.6019  1.9883
   9523SM  H17T12847   2.150   0.452  14.290  0.8466  1.8288 -0.8452
   9523SM  C18S12848   1.980   0.339  14.203  0.2746 -0.0232  0.0224
   9523SM  H18S12849   2.030   0.274  14.128  0.3168  1.3085 -1.1404
   9523SM  H18T12850   1.879   0.365  14.166  0.8370 -0.3910 -1.8608
   9523SM  H18U12851   1.961   0.272  14.290 -1.6522 -1.5756 -1.4940
   9523SM   C1F12852   1.905   0.646  12.839 -0.3786 -0.1347 -0.3037
   9523SM    OF12853   1.984   0.672  12.743  0.3515 -0.6139 -0.5705
   9523SM   C2F12854   1.881   0.504  12.877 -0.3981  0.2213  0.4459
   9523SM   H2F12855   1.876   0.450  12.780  0.2274 -0.0984  0.5857
   9523SM   H2G12856   1.785   0.499  12.932 -0.1447 -0.9561  0.8185
   9523SM   C3F12857   1.998   0.454  12.957  0.4687  0.3465 -0.0802
   9523SM   H3F12858   2.090   0.472  12.897  0.3612  0.3776 -0.2343
   9523SM   H3G12859   1.993   0.343  12.957  1.5649  0.2880  0.1699
   9523SM   C4F12860   2.003   0.502  13.107  0.4522 -0.4930  0.7769
   9523SM   H4F12861   1.903   0.484  13.154 -0.3599 -0.8778 -1.0000
   9523SM   H4G12862   2.026   0.609  13.120  0.0321 -0.3504  0.3870
   9523SM   C5F12863   2.109   0.420  13.184  0.1568  0.0672 -0.1121
   9523SM   H5F12864   2.214   0.438  13.151 -0.3776  1.1955 -1.2849
   9523SM   H5G12865   2.086   0.313  13.166  1.6745 -0.6773  2.0280
   9523SM   C6F12866   2.091   0.459  13.333 -0.2557  0.2093 -0.2884
   9523SM   H6F12867   2.008   0.403  13.382  0.6462  1.4560  2.9719
   9523SM   H6G12868   2.061   0.566  13.328  0.1420  0.2557 -1.9932
   9523SM   C7F12869   2.217   0.446  13.417  0.1422 -0.5065  0.2330
   9523SM   H7F12870   2.303   0.484  13.356  0.3854 -1.8459 -0.2797
   9523SM   H7G12871   2.245   0.343  13.446  1.3213  0.0642  1.2636
   9523SM   C8F12872   2.211   0.546  13.538 -0.7134  0.5765  0.4300
   9523SM   H8F12873   2.128   0.510  13.603 -1.5981 -3.2732 -2.4105
   9523SM   H8G12874   2.197   0.646  13.492 -2.9103  0.7890  1.4194
   9523SM   C9F12875   2.341   0.554  13.618  0.0603 -0.4512  0.6615
   9523SM   H9F12876   2.348   0.651  13.671  2.8696 -1.2868  2.0802
   9523SM   H9G12877   2.431   0.541  13.554 -0.3037 -0.2973  0.1192
   9523SM  C10F12878   2.367   0.451  13.730  0.1173 -0.1081  0.4907
   9523SM  H10F12879   2.367   0.349  13.685  0.3259 -0.6723  1.7444
   9523SM  H10G12880   2.284   0.446  13.804  0.1485  0.2847  0.5567
   9523SM  C11F12881   2.508   0.470  13.797  0.5917  0.9737  0.3244
   9523SM  H11F12882   2.502   0.566  13.853  0.4645  1.3323 -0.2988
   9523SM  H11G12883   2.573   0.493  13.710 -1.9528  1.2960 -1.6253
   9523SM  C12F12884   2.572   0.356  13.866  0.4395  0.3719 -0.6108
   9523SM  H12F12885   2.682   0.365  13.883  0.1948 -0.5572  1.8316
   9523SM  H12G12886   2.545   0.264  13.809 -0.5060 -0.0407  0.4727
   9523SM  C13F12887   2.524   0.331  14.013 -0.1322  0.4799  0.1250
   9523SM  H13F12888   2.419   0.367  14.020 -0.2395  0.2742 -0.3762
   9523SM  H13G12889   2.595   0.387  14.078 -1.5054  1.8093  0.5301
   9523SM  C14F12890   2.525   0.177  14.049  0.6460  0.4215  0.1111
   9523SM  H14F12891   2.633   0.152  14.042  0.1637 -1.2765 -3.1351
   9523SM  H14G12892   2.458   0.129  13.975  1.6860  1.4838 -1.5929
   9523SM  C15F12893   2.475   0.153  14.197  0.4082 -0.7839 -0.3119
   9523SM  H15F12894   2.552   0.188  14.269  1.4780 -0.5584 -1.5184
   9523SM  H15G12895   2.459   0.045  14.215 -2.2771 -0.1469  1.6204
   9523SM  C16F12896   2.336   0.219  14.237  0.4348  0.1533  0.7150
   9523SM  H16F12897   2.273   0.212  14.146  0.5178 -2.2287  0.7774
   9523SM  H16G12898   2.356   0.327  14.253 -1.8361  0.3327  3.0026
   9523SM  C17F12899   2.273   0.161  14.359 -0.7023  0.2259  0.0770
   9523SM  H17F12900   2.224   0.061  14.355  0.8154 -0.5992  1.1525
   9523SM  H17G12901   2.186   0.211  14.405 -1.9310 -1.9038  0.1936
   9523SM  C18F12902   2.373   0.157  14.477 -0.6660  0.1605 -0.1240
   9523SM  H18F12903   2.401   0.262  14.500 -1.0833  0.2281  0.0858
   9523SM  H18G12904   2.464   0.094  14.471 -1.6955 -1.5233  1.0113
   9523SM  C19F12905   2.297   0.120  14.607  0.4285 -0.5527 -0.4938
   9523SM  H19F12906   2.201   0.175  14.614  2.0264  2.3319  0.7415
   9523SM  H19G12907   2.352   0.166  14.693 -1.9794  1.2717  0.1714
   9523SM  C20F12908   2.282  -0.028  14.618 -0.1575 -0.4453 -0.0856
   9523SM  H20F12909   2.386  -0.063  14.600  0.8336  2.2387 -0.0819
   9523SM  H20G12910   2.219  -0.081  14.544 -0.0633  1.4581 -1.6018
   9523SM  C21F12911   2.240  -0.070  14.764  0.7409 -0.1735  0.7255
   9523SM  H21F12912   2.133  -0.041  14.757  1.0663  1.3692  1.7803
   9523SM  H21G12913   2.293  -0.026  14.851  0.3651 -3.2459  2.6753
   9523SM  C22F12914   2.258  -0.222  14.795 -0.1103  0.0224 -0.5989
   9523SM  H22F12915   2.358  -0.255  14.758  0.0744  0.0375 -0.1154
   9523SM  H22G12916   2.187  -0.277  14.730  1.8712 -1.9416 -1.2383
   9523SM  C23F12917   2.230  -0.261  14.945 -0.3491 -0.7835 -0.1593
   9523SM  H23F12918   2.125  -0.228  14.959 -0.1166  2.0238 -3.5572
   9523SM  H23G12919   2.295  -0.209  15.019 -1.4355 -0.4580  0.5744
   9523SM  H23H12920   2.239  -0.370  14.962  1.8814 -0.5205  0.6668
   9623SM     N12921   4.237   6.177  12.604  0.7319  0.3227  0.0704
   9623SM   C1512922   4.254   6.131  12.460  0.1396  0.2412  0.9127
   9623SM  H15A12923   4.335   6.059  12.459  0.1067  0.1643  2.0689
   9623SM  H15B12924   4.267   6.218  12.398  1.6725 -0.0444  0.7886
   9623SM  H15C12925   4.167   6.072  12.435  0.5990 -0.8776  1.8378
   9623SM   C1412926   4.217   6.057  12.695  0.5425 -0.0628  0.0757
   9623SM  H14A12927   4.116   6.022  12.680 -0.4136  1.4897  2.3632
   9623SM  H14B12928   4.203   6.076  12.801  3.0586 -3.3292  1.1569
   9623SM  H14C12929   4.286   5.977  12.672  1.4057  0.9849 -1.1639
   9623SM   C1312930   4.364   6.245  12.642 -0.3313 -0.1560 -0.0069
   9623SM  H13A12931   4.397   6.325  12.578 -0.0447 -1.2565 -1.2878
   9623SM  H13B12932   4.442   6.172  12.659 -1.2125 -0.8319  1.3959
   9623SM  H13C12933   4.346   6.283  12.742 -0.2768  0.5860 -0.2775
   9623SM   C1212934   4.121   6.271  12.624 -0.5464  0.3891 -0.0920
   9623SM  H12A12935   4.042   6.244  12.555 -0.8819 -2.5602  1.3131
   9623SM  H12B12936   4.162   6.366  12.594  1.8369 -1.1638 -2.1099
   9623SM   C1112937   4.052   6.289  12.757 -0.0935  0.1843 -0.3561
   9623SM  H11A12938   3.998   6.385  12.757 -3.0069 -1.3167 -2.1486
   9623SM  H11B12939   4.130   6.302  12.835  0.3509  2.8550 -1.1606
   9623SM     P12940   3.816   6.186  12.712 -0.0480 -0.2358 -0.2578
   9623SM   O1312941   3.829   6.159  12.571  0.1467  0.1710  0.1761
   9623SM   O1412942   3.738   6.086  12.789  0.4084  0.7890  0.0519
   9623SM   O1112943   3.770   6.338  12.742  0.2701 -0.2333 -0.5590
   9623SM   O1212944   3.959   6.185  12.785 -0.2775  0.4109 -0.4442
   9623SM   C1S12945   3.753   6.375  12.875 -0.4264  0.4648  0.1977
   9623SM   H1S12946   3.852   6.369  12.925  0.4449  1.0345 -1.3663
   9623SM   H1T12947   3.684   6.310  12.932  0.5993 -0.7775  0.0656
   9623SM    NF12948   3.723   6.573  13.014  0.4311  0.1255 -0.1606
   9623SM   HNF12949   3.639   6.602  13.059  0.2785  1.2065 -1.0949
   9623SM   C2S12950   3.703   6.524  12.879 -1.3342  0.1183  0.5381
   9623SM   H2S12951   3.779   6.578  12.819  0.0151 -1.1603  1.0635
   9623SM   C3S12952   3.562   6.541  12.817 -0.2094 -0.2199  0.2221
   9623SM   H3S12953   3.496   6.489  12.890  0.2763 -0.6261  0.3879
   9623SM    O312954   3.543   6.477  12.695  0.0170  0.3701 -0.5457
   9623SM   HO312955   3.622   6.424  12.682  1.0990  2.1989 -2.0090
   9623SM   C4S12956   3.538   6.683  12.814  0.0395 -0.6442 -0.5297
   9623SM   H4S12957   3.618   6.755  12.787 -0.5072  0.0833 -0.2223
   9623SM   C5S12958   3.428   6.742  12.869 -0.4216  0.0789 -0.4356
   9623SM   H5S12959   3.351   6.684  12.922 -1.0319  2.5382  1.5327
   9623SM   C6S12960   3.395   6.892  12.873 -0.0503  0.7663 -0.1070
   9623SM   H6S12961   3.294   6.911  12.831 -0.4962 -0.6150  0.2777
   9623SM   H6T12962   3.475   6.950  12.824  1.8159 -0.8839  0.8415
   9623SM   C7S12963   3.384   6.932  13.018  0.0276  0.2833 -0.1670
   9623SM   H7S12964   3.471   6.907  13.083 -1.5659 -1.8553  1.2774
   9623SM   H7T12965   3.300   6.872  13.060  0.1684 -0.1879 -0.5394
   9623SM   C8S12966   3.351   7.079  13.045 -0.1960  0.3219 -0.2420
   9623SM   H8S12967   3.255   7.101  12.993 -1.1255  1.2823  1.7893
   9623SM   H8T12968   3.420   7.148  12.991 -1.2225  0.4301 -1.4738
   9623SM   C9S12969   3.364   7.113  13.196  0.5504  0.1400 -0.2881
   9623SM   H9S12970   3.365   7.223  13.213 -0.6320  0.1103  0.0691
   9623SM   H9T12971   3.459   7.064  13.227  0.6328 -0.3323 -1.2459
   9623SM  C10S12972   3.244   7.059  13.276  0.1246 -0.1475 -0.3108
   9623SM  H10S12973   3.240   6.948  13.273  0.1730 -0.2864  2.2256
   9623SM  H10T12974   3.155   7.097  13.221 -0.3179 -2.6244 -1.4064
   9623SM  C11S12975   3.219   7.111  13.419 -0.0047  0.2257 -0.2597
   9623SM  H11S12976   3.198   7.220  13.426  0.3560  0.2233  1.2386
   9623SM  H11T12977   3.318   7.092  13.467 -0.8881 -0.5918  1.3210
   9623SM  C12S12978   3.107   7.044  13.490  0.2777 -0.0325 -0.0929
   9623SM  H12S12979   3.125   6.935  13.494 -0.4588 -0.1516  2.9448
   9623SM  H12T12980   3.011   7.051  13.434  0.8316  0.9033 -0.9589
   9623SM  C13S12981   3.100   7.082  13.638 -0.0011  0.2265  0.3498
   9623SM  H13S12982   3.002   7.038  13.663  0.6293 -2.7437 -1.8412
   9623SM  H13T12983   3.097   7.193  13.646  0.7196  0.1512  2.0565
   9623SM  C14S12984   3.217   7.021  13.716 -0.2082 -0.7298  0.3160
   9623SM  H14S12985   3.310   7.059  13.669  0.0154  0.2473  1.4863
   9623SM  H14T12986   3.234   6.911  13.709  0.5322 -0.7524  1.9098
   9623SM  C15S12987   3.202   7.066  13.864  0.3728 -0.5126  0.2226
   9623SM  H15S12988   3.275   7.019  13.933  1.0001  0.7143  0.4320
   9623SM  H15T12989   3.105   7.022  13.894  0.0169 -0.2426 -0.5022
   9623SM  C16S12990   3.188   7.215  13.894 -0.0112  0.5023  0.8004
   9623SM  H16S12991   3.236   7.291  13.829 -0.3832  1.6393  1.8162
   9623SM  H16T12992   3.243   7.233  13.989  1.2767  1.0230 -0.0258
   9623SM  C17S12993   3.038   7.263  13.942 -0.6126  0.7296 -0.6320
   9623SM  H17S12994   3.013   7.177  14.008  1.6889  0.4496 -0.0327
   9623SM  H17T12995   2.973   7.272  13.852  0.9628  1.8026 -1.7405
   9623SM  C18S12996   3.047   7.389  14.015  0.4481  0.1414 -0.5743
   9623SM  H18S12997   2.945   7.420  14.044  1.6317  1.4824  2.6416
   9623SM  H18T12998   3.091   7.470  13.952  1.1069 -0.6998 -1.2218
   9623SM  H18U12999   3.103   7.375  14.110  0.0606  1.8875 -0.0497
   9623SM   C1F13000   3.838   6.585  13.078 -0.6762 -0.8191  0.7837
   9623SM    OF13001   3.942   6.579  13.016 -0.0974 -0.1739  0.4008
   9623SM   C2F13002   3.836   6.612  13.227 -0.0700  0.1862 -0.4047
   9623SM   H2F13003   3.768   6.542  13.281 -0.3698 -0.1878 -1.2547
   9623SM   H2G13004   3.782   6.708  13.239 -0.5380 -0.1470  0.2666
   9623SM   C3F13005   3.977   6.619  13.289  0.4218  0.5761 -0.2207
   9623SM   H3F13006   4.023   6.714  13.256  0.7958 -0.0999 -1.7518
   9623SM   H3G13007   4.042   6.535  13.254 -0.7551 -0.2800 -0.4205
   9623SM   C4F13008   3.986   6.597  13.445 -1.1216 -0.4044  0.8326
   9623SM   H4F13009   4.085   6.642  13.466 -0.2791 -2.0909  0.6573
   9623SM   H4G13010   3.982   6.491  13.477  0.0686 -1.3119 -1.7312
   9623SM   C5F13011   3.886   6.681  13.526  1.1495 -0.4217 -0.0999
   9623SM   H5F13012   3.782   6.646  13.511  0.6531  0.3247  1.3933
   9623SM   H5G13013   3.884   6.785  13.486 -2.8291  0.3490  1.7201
   9623SM   C6F13014   3.921   6.686  13.678 -0.6352  0.0086  0.0612
   9623SM   H6F13015   3.858   6.766  13.724  0.7958  1.4053 -0.2999
   9623SM   H6G13016   4.027   6.711  13.698 -0.2908 -2.1626  1.3065
   9623SM   C7F13017   3.890   6.556  13.752 -0.7317 -0.0875 -0.0406
   9623SM   H7F13018   3.948   6.470  13.710  3.1630  2.5529 -0.6670
   9623SM   H7G13019   3.781   6.537  13.747 -0.6127 -0.9098  0.3143
   9623SM   C8F13020   3.925   6.573  13.900  1.5402  0.1658  0.4692
   9623SM   H8F13021   3.891   6.672  13.938  0.0184  0.3330 -1.1746
   9623SM   H8G13022   4.035   6.564  13.915  1.7833  0.5233 -0.9512
   9623SM   C9F13023   3.852   6.473  13.988 -0.4004  0.1851 -0.2902
   9623SM   H9F13024   3.901   6.373  13.985 -0.3058  0.1994  0.4771
   9623SM   H9G13025   3.749   6.460  13.949 -0.8402  0.8934  0.5838
   9623SM  C10F13026   3.856   6.523  14.139  0.0753  0.0448 -0.3305
   9623SM  H10F13027   3.787   6.610  14.147  0.4619  0.1792  2.1408
   9623SM  H10G13028   3.951   6.575  14.163  1.4080 -1.5900 -1.7962
   9623SM  C11F13029   3.813   6.417  14.245  0.7239  0.3434 -0.1234
   9623SM  H11F13030   3.895   6.342  14.239  0.0791 -0.3128 -1.0556
   9623SM  H11G13031   3.712   6.377  14.220  0.1134  1.0303  1.1510
   9623SM  C12F13032   3.806   6.460  14.394  0.0528  0.2929 -0.6002
   9623SM  H12F13033   3.748   6.554  14.407  3.2962  2.4237 -0.1409
   9623SM  H12G13034   3.911   6.490  14.416 -0.2631  0.5830  0.5567
   9623SM  C13F13035   3.759   6.361  14.497  0.4518  0.4366 -0.6990
   9623SM  H13F13036   3.797   6.259  14.476 -2.2405 -0.6052 -0.8076
   9623SM  H13G13037   3.649   6.357  14.486  0.5457  1.0961 -2.0385
   9623SM  C14F13038   3.782   6.411  14.638 -1.1111  0.5314  0.6369
   9623SM  H14F13039   3.726   6.505  14.657 -2.1571 -0.3758  2.2604
   9623SM  H14G13040   3.891   6.433  14.643 -1.1417  1.1477 -0.9673
   9623SM  C15F13041   3.726   6.323  14.745  0.1289 -0.4855  0.1040
   9623SM  H15F13042   3.776   6.224  14.745 -1.1960 -1.1693  0.4812
   9623SM  H15G13043   3.621   6.309  14.714  0.3688  0.3559 -1.1441
   9623SM  C16F13044   3.727   6.394  14.886  0.0067  0.3701 -0.4515
   9623SM  H16F13045   3.690   6.312  14.950  2.1470 -1.3909 -1.3493
   9623SM  H16G13046   3.645   6.469  14.876 -2.3560 -2.0390 -0.0892
   9623SM  C17F13047   3.857   6.426  14.953 -0.0238  0.1141  0.4974
   9623SM  H17F13048   3.908   6.477  14.868  0.0864 -1.4180 -0.4031
   9623SM  H17G13049   3.905   6.328  14.976  1.2134 -0.1935 -2.7900
   9623SM  C18F13050   3.843   6.513  15.081 -0.4317  0.3413  0.3430
   9623SM  H18F13051   3.793   6.467  15.169 -0.3145 -2.7146 -1.0216
   9623SM  H18G13052   3.758   6.580  15.057  0.8884  1.9498 -0.0484
   9623SM  C19F13053   3.982   6.576  15.107 -0.1364  0.0883  0.0583
   9623SM  H19F13054   3.961   6.670  15.163  0.4972  0.5507 -0.4624
   9623SM  H19G13055   4.021   6.595  15.005  0.2830 -0.6497  0.0781
   9623SM  C20F13056   4.076   6.481  15.188  0.5803  0.0334  0.2573
   9623SM  H20F13057   4.081   6.382  15.139  1.2011 -0.7455  1.8410
   9623SM  H20G13058   4.041   6.467  15.292 -2.0708  0.4275 -0.5170
   9623SM  C21F13059   4.226   6.532  15.202 -0.8192 -0.3334  0.8137
   9623SM  H21F13060   4.221   6.627  15.260  0.6264 -0.4727  1.2247
   9623SM  H21G13061   4.267   6.562  15.103 -0.1851 -0.2301  1.1006
   9623SM  C22F13062   4.320   6.443  15.285  0.0696 -0.7516 -0.1375
   9623SM  H22F13063   4.340   6.348  15.230  0.4607 -0.1736 -1.0174
   9623SM  H22G13064   4.267   6.422  15.380 -0.2549 -0.5463 -0.2700
   9623SM  C23F13065   4.460   6.511  15.327 -0.3559 -0.2132 -0.0552
   9623SM  H23F13066   4.526   6.529  15.239 -1.6081 -2.3534 -1.5329
   9623SM  H23G13067   4.514   6.443  15.395  0.8054  0.5034 -0.2344
   9623SM  H23H13068   4.440   6.609  15.376  0.3020  0.1780 -0.5534
   9723SM     N13069   4.356   7.565  12.116  0.2488  0.4552  0.4382
   9723SM   C1513070   4.488   7.637  12.086  0.4188  0.0130  0.8603
   9723SM  H15A13071   4.547   7.585  12.011 -1.2156 -1.7156  0.7054
   9723SM  H15B13072   4.544   7.653  12.176  1.0670 -0.1302  0.4905
   9723SM  H15C13073   4.481   7.736  12.043  2.8162 -1.0145 -2.3068
   9723SM   C1413074   4.281   7.557  11.983 -0.4889  0.2377  0.2342
   9723SM  H14A13075   4.194   7.493  11.991 -0.6857  0.7106  2.9351
   9723SM  H14B13076   4.341   7.505  11.910 -2.9455 -3.6120  0.6262
   9723SM  H14C13077   4.257   7.654  11.944 -2.3836 -1.0480 -2.0695
   9723SM   C1313078   4.386   7.428  12.162 -0.4756 -0.6744 -0.6130
   9723SM  H13A13079   4.291   7.380  12.182 -0.8697  1.0892  2.5454
   9723SM  H13B13080   4.460   7.436  12.241  0.2981  1.9170 -1.5091
   9723SM  H13C13081   4.441   7.361  12.098 -0.0760 -1.2846  0.3518
   9723SM   C1213082   4.279   7.637  12.226  0.5952 -0.3492  0.1988
   9723SM  H12A13083   4.209   7.566  12.267  2.4673 -1.1180  2.3336
   9723SM  H12B13084   4.217   7.711  12.178 -1.1537 -1.1411  1.1542
   9723SM   C1113085   4.359   7.702  12.336 -0.2129  0.3459 -0.2117
   9723SM  H11A13086   4.296   7.756  12.410  0.2025  0.4629  0.0628
   9723SM  H11B13087   4.419   7.791  12.310  0.4150  0.0560  0.2280
   9723SM     P13088   4.581   7.611  12.444  0.4229 -0.1669  0.2197
   9723SM   O1313089   4.616   7.471  12.466  0.3955 -0.5094 -0.2898
   9723SM   O1413090   4.656   7.670  12.324 -0.0087  0.6105 -0.1762
   9723SM   O1113091   4.593   7.688  12.580  0.0993 -0.8004  0.0466
   9723SM   O1213092   4.428   7.602  12.412  0.5686 -0.4490  0.0813
   9723SM   C1S13093   4.516   7.636  12.694  0.3870 -0.2893  0.7924
   9723SM   H1S13094   4.451   7.555  12.657  1.5855  0.1153 -2.4772
   9723SM   H1T13095   4.461   7.724  12.734  0.6238 -0.5608  1.7536
   9723SM    NF13096   4.522   7.532  12.919 -0.1763  0.4517  0.2739
   9723SM   HNF13097   4.511   7.604  12.987  0.2575  0.5370  0.2581
   9723SM   C2S13098   4.607   7.579  12.813 -0.4914  0.8306 -0.7192
   9723SM   H2S13099   4.663   7.490  12.777  1.5427  0.7920  2.1711
   9723SM   C3S13100   4.707   7.673  12.865  0.0552 -0.4816  0.0790
   9723SM   H3S13101   4.649   7.760  12.903  0.8360 -0.6636  1.7502
   9723SM    O313102   4.782   7.742  12.765  0.0146  0.1593  0.6374
   9723SM   HO313103   4.742   7.731  12.679  1.1694  0.1641  0.0962
   9723SM   C4S13104   4.807   7.621  12.962 -0.2886  0.4290  0.2492
   9723SM   H4S13105   4.843   7.522  12.928  0.0455  1.0472 -1.2976
   9723SM   C5S13106   4.835   7.660  13.084 -0.1435 -0.5005  0.1325
   9723SM   H5S13107   4.781   7.750  13.118  0.4980  0.1629 -0.5590
   9723SM   C6S13108   4.922   7.587  13.187 -0.0473  0.1786  0.1799
   9723SM   H6S13109   5.025   7.627  13.172  0.1836 -0.4167  0.1462
   9723SM   H6T13110   4.939   7.482  13.158 -0.0927  0.5647 -1.3482
   9723SM   C7S13111   4.873   7.570  13.335  0.2008 -0.7117  0.3435
   9723SM   H7S13112   4.762   7.567  13.326  0.3539 -1.0879 -2.8691
   9723SM   H7T13113   4.904   7.669  13.374  0.0587 -0.6230  0.2334
   9723SM   C8S13114   4.950   7.457  13.399  0.1487 -1.0072  0.3017
   9723SM   H8S13115   5.056   7.468  13.370 -0.1779  0.2224 -0.4810
   9723SM   H8T13116   4.906   7.360  13.367 -0.2865 -0.0857 -2.0660
   9723SM   C9S13117   4.932   7.471  13.550 -0.3762 -0.0665  0.2187
   9723SM   H9S13118   4.978   7.569  13.576  0.1658 -0.7962  2.1925
   9723SM   H9T13119   5.012   7.402  13.584 -0.3115  0.1747  0.5607
   9723SM  C10S13120   4.807   7.438  13.624 -0.1022 -0.3819 -0.1448
   9723SM  H10S13121   4.773   7.333  13.611 -0.4659  0.0747 -3.7560
   9723SM  H10T13122   4.721   7.495  13.586 -0.4809 -1.6754 -1.3033
   9723SM  C11S13123   4.817   7.482  13.774  0.1083  0.0769  0.2019
   9723SM  H11S13124   4.711   7.490  13.807  0.5530  0.9812  1.4975
   9723SM  H11T13125   4.864   7.582  13.775 -0.4666  0.3533 -0.2949
   9723SM  C12S13126   4.891   7.377  13.856  0.8669  0.1792  0.1041
   9723SM  H12S13127   5.001   7.395  13.847  0.8356  0.6423  0.5491
   9723SM  H12T13128   4.870   7.274  13.822 -1.4293 -0.6748  3.6071
   9723SM  C13S13129   4.861   7.379  14.000  0.2204 -0.3607 -0.3261
   9723SM  H13S13130   4.750   7.377  14.005  0.1835  0.5307 -0.5863
   9723SM  H13T13131   4.889   7.474  14.050  1.9315 -0.8688 -0.2726
   9723SM  C14S13132   4.925   7.265  14.079  1.3700 -0.2248  0.1329
   9723SM  H14S13133   5.035   7.260  14.062  1.4334  0.8820  0.0828
   9723SM  H14T13134   4.875   7.171  14.047 -1.2176  1.1505 -0.1517
   9723SM  C15S13135   4.887   7.285  14.229 -0.2008 -0.5986 -0.4518
   9723SM  H15S13136   4.776   7.279  14.240 -0.1591  0.4022  0.6312
   9723SM  H15T13137   4.900   7.386  14.272  0.6248 -0.7432 -0.3595
   9723SM  C16S13138   4.969   7.195  14.321  0.1317  0.4064 -0.7039
   9723SM  H16S13139   4.932   7.227  14.421  0.4340  3.2646 -1.4371
   9723SM  H16T13140   5.079   7.205  14.323  0.4616 -2.1602  1.7783
   9723SM  C17S13141   4.927   7.046  14.300 -0.2020 -0.1728 -0.2133
   9723SM  H17S13142   4.967   7.002  14.206  0.7623  2.4037 -1.0786
   9723SM  H17T13143   4.818   7.035  14.287 -0.1894  0.9641 -1.4080
   9723SM  C18S13144   4.963   6.948  14.409  0.6525  0.5733 -0.0403
   9723SM  H18S13145   4.931   6.980  14.511  0.2692 -2.5711  0.9073
   9723SM  H18T13146   5.071   6.931  14.427 -0.1308 -4.0846  1.6799
   9723SM  H18U13147   4.934   6.845  14.381  3.1814 -0.1329 -0.3354
   9723SM   C1F13148   4.448   7.426  12.908  0.3727  0.9002 -0.0302
   9723SM    OF13149   4.454   7.349  12.815 -0.4679  0.1722 -0.3490
   9723SM   C2F13150   4.357   7.408  13.034 -0.4412  0.7505 -0.7334
   9723SM   H2F13151   4.256   7.384  12.996 -0.9722  3.0980 -0.9426
   9723SM   H2G13152   4.365   7.500  13.096  2.7813  0.1234 -0.0144
   9723SM   C3F13153   4.403   7.284  13.126 -0.1435  0.2003 -0.6458
   9723SM   H3F13154   4.375   7.190  13.074 -0.1546 -0.2900  0.2374
   9723SM   H3G13155   4.338   7.278  13.216  1.2990  0.2180  0.4214
   9723SM   C4F13156   4.553   7.301  13.160  0.5283 -0.4316  1.0774
   9723SM   H4F13157   4.569   7.409  13.178  1.4957 -0.6332  1.5217
   9723SM   H4G13158   4.622   7.282  13.076  0.2289  0.3947  0.6369
   9723SM   C5F13159   4.592   7.228  13.288 -0.1246 -1.1172  0.0566
   9723SM   H5F13160   4.702   7.245  13.293 -0.4936  1.7228  0.1757
   9723SM   H5G13161   4.574   7.119  13.288 -3.2687 -0.8171  3.7663
   9723SM   C6F13162   4.525   7.281  13.415 -0.1810 -0.1096  0.3636
   9723SM   H6F13163   4.415   7.275  13.403 -0.4416  2.1441  1.0909
   9723SM   H6G13164   4.553   7.387  13.434  0.1170 -0.3190  1.1436
   9723SM   C7F13165   4.556   7.185  13.536 -0.3376  0.0760  0.4433
   9723SM   H7F13166   4.666   7.172  13.542 -0.3813 -0.0377  1.1467
   9723SM   H7G13167   4.507   7.089  13.511  1.0301 -0.5308  0.0057
   9723SM   C8F13168   4.493   7.243  13.661  0.5809  0.1502 -0.0658
   9723SM   H8F13169   4.382   7.237  13.653  0.4533 -0.7577  1.6832
   9723SM   H8G13170   4.514   7.352  13.665 -0.5660  0.4936 -2.1595
   9723SM   C9F13171   4.540   7.171  13.791  0.9072 -0.2150  0.1263
   9723SM   H9F13172   4.651   7.175  13.798  0.7976 -0.0862  2.7274
   9723SM   H9G13173   4.514   7.063  13.787  0.8958 -0.1780 -1.4706
   9723SM  C10F13174   4.488   7.234  13.923  0.1297  0.0770 -0.5149
   9723SM  H10F13175   4.385   7.272  13.906  0.7056  1.3666 -1.2281
   9723SM  H10G13176   4.548   7.326  13.940  0.2806  0.2035 -1.6247
   9723SM  C11F13177   4.490   7.134  14.043 -0.3924  0.1588 -0.3113
   9723SM  H11F13178   4.597   7.109  14.057 -0.3217 -0.1300 -1.3047
   9723SM  H11G13179   4.430   7.042  14.025  0.8078 -0.8188  0.4995
   9723SM  C12F13180   4.444   7.191  14.177  0.7319 -0.2743  0.4215
   9723SM  H12F13181   4.337   7.214  14.159  0.3349 -2.1239  0.2222
   9723SM  H12G13182   4.498   7.280  14.216  0.5198  0.1541 -0.2417
   9723SM  C13F13183   4.451   7.087  14.285 -0.0196  0.6991 -0.2367
   9723SM  H13F13184   4.558   7.096  14.314 -0.0264  1.1200 -0.3504
   9723SM  H13G13185   4.440   6.984  14.243 -0.1961  0.3870  0.5409
   9723SM  C14F13186   4.363   7.113  14.407 -0.4450 -0.2276  0.5130
   9723SM  H14F13187   4.255   7.110  14.382 -0.3513 -0.6741  0.1649
   9723SM  H14G13188   4.384   7.216  14.444  0.1236 -0.5875  1.2362
   9723SM  C15F13189   4.385   7.011  14.521  0.0112 -0.0753  0.6570
   9723SM  H15F13190   4.388   6.911  14.473 -0.7383 -0.6444  1.7643
   9723SM  H15G13191   4.298   7.019  14.589 -1.5311 -0.5315 -1.1971
   9723SM  C16F13192   4.509   7.050  14.604 -0.3447  0.2107  0.0218
   9723SM  H16F13193   4.502   7.160  14.619  0.1135  0.2315  0.1078
   9723SM  H16G13194   4.605   7.035  14.549  0.9399  0.3605  2.1043
   9723SM  C17F13195   4.529   6.975  14.733 -0.0919 -0.1896  0.3884
   9723SM  H17F13196   4.537   6.870  14.698 -1.7851 -0.0813 -0.4367
   9723SM  H17G13197   4.440   6.995  14.797  0.4800  1.0880  0.8290
   9723SM  C18F13198   4.665   7.024  14.793  0.4490 -0.9963  0.0642
   9723SM  H18F13199   4.635   7.131  14.803 -3.2468 -1.8359 -0.2824
   9723SM  H18G13200   4.757   7.014  14.732 -1.0010  0.6467 -2.6183
   9723SM  C19F13201   4.693   6.953  14.921  0.1325 -0.4016 -0.7278
   9723SM  H19F13202   4.691   6.843  14.912  0.4856 -0.5588  0.9081
   9723SM  H19G13203   4.617   6.976  14.999 -0.3060  0.0814 -1.2850
   9723SM  C20F13204   4.835   6.978  14.970  0.3280 -0.1075 -0.8400
   9723SM  H20F13205   4.847   7.088  14.966 -0.5024 -0.0061 -0.6247
   9723SM  H20G13206   4.914   6.930  14.908  2.1028  1.6854 -0.0862
   9723SM  C21F13207   4.848   6.920  15.114 -0.2261 -0.4698  0.0873
   9723SM  H21F13208   4.831   6.810  15.125 -1.7002 -0.1170  1.9200
   9723SM  H21G13209   4.768   6.966  15.175 -1.1567 -1.2915 -0.4794
   9723SM  C22F13210   4.977   6.954  15.179  0.3722 -0.3369 -0.1515
   9723SM  H22F13211   4.997   7.062  15.164  2.6214 -0.6178  0.5498
   9723SM  H22G13212   5.055   6.898  15.123  1.4781 -0.5163  1.5016
   9723SM  C23F13213   4.994   6.910  15.329 -0.0355  0.2561 -0.1329
   9723SM  H23F13214   4.973   6.801  15.328 -0.7472  0.3813 -1.7495
   9723SM  H23G13215   4.928   6.961  15.401 -0.7392  0.5329 -0.9596
   9723SM  H23H13216   5.101   6.918  15.359 -0.1867  0.7189  0.2917
   9823SM     N13217   7.072   7.152  12.168  0.2295  0.0089 -0.4172
   9823SM   C1513218   6.942   7.123  12.097 -0.1768 -0.5476  0.0364
   9823SM  H15A13219   6.932   7.019  12.071 -2.3064 -0.2078 -0.7128
   9823SM  H15B13220   6.946   7.188  12.010  2.0966 -1.2750 -0.4590
   9823SM  H15C13221   6.859   7.155  12.157  1.5415  2.1455  1.1540
   9823SM   C1413222   7.184   7.143  12.064  0.1861 -0.5718  0.0230
   9823SM  H14A13223   7.236   7.049  12.060  0.8908 -0.2995  1.8133
   9823SM  H14B13224   7.274   7.202  12.077  2.1145 -3.2117 -0.7036
   9823SM  H14C13225   7.135   7.168  11.971 -1.6376 -0.1967  1.0465
   9823SM   C1313226   7.077   7.292  12.214 -0.0606  0.2296  0.2295
   9823SM  H13A13227   6.988   7.300  12.274 -1.7130 -0.5200 -1.9755
   9823SM  H13B13228   7.070   7.363  12.133  3.2222 -1.3898 -1.6594
   9823SM  H13C13229   7.163   7.309  12.277 -0.5268 -1.4873  1.3831
   9823SM   C1213230   7.114   7.062  12.284 -0.0543 -0.2057  0.1196
   9823SM  H12A13231   7.217   7.084  12.308 -0.0173  0.6202 -0.7360
   9823SM  H12B13232   7.109   6.958  12.254 -0.5601 -0.3765  0.7707
   9823SM   C1113233   7.041   7.049  12.427 -0.8025 -0.1956  0.7254
   9823SM  H11A13234   7.033   7.152  12.467  1.5418  0.1742  0.3840
   9823SM  H11B13235   7.109   6.989  12.491 -2.4550 -0.7578  2.0277
   9823SM     P13236   6.889   6.842  12.453 -0.0149  0.0632  0.0382
   9823SM   O1313237   6.761   6.790  12.406  0.0109  0.2844 -0.2783
   9823SM   O1413238   7.003   6.757  12.417 -0.6453  0.3486  0.3199
   9823SM   O1113239   6.891   6.864  12.611 -0.2349 -0.5636 -0.2220
   9823SM   O1213240   6.918   6.987  12.401  0.6011  0.1249 -0.6649
   9823SM   C1S13241   6.831   6.982  12.663 -0.1905  0.0773 -0.6704
   9823SM   H1S13242   6.733   7.006  12.618 -0.2455 -0.3914 -0.8131
   9823SM   H1T13243   6.905   7.064  12.651  1.5586 -1.1105  1.2670
   9823SM    NF13244   6.744   7.090  12.874 -0.1023  0.3337 -0.0767
   9823SM   HNF13245   6.792   7.160  12.925  1.5286 -0.3793 -0.5683
   9823SM   C2S13246   6.807   6.971  12.819 -0.3245 -0.2566 -0.2746
   9823SM   H2S13247   6.741   6.883  12.830 -0.5898 -0.1090 -0.6589
   9823SM   C3S13248   6.940   6.924  12.894  0.0578 -0.4507 -0.3581
   9823SM   H3S13249   7.007   7.013  12.898  1.1950 -1.3141  0.4207
   9823SM    O313250   7.021   6.826  12.830 -0.2649 -0.7741  0.3363
   9823SM   HO313251   6.988   6.806  12.743  1.9377  0.1236 -0.7796
   9823SM   C4S13252   6.915   6.887  13.035 -0.1128 -0.1016  0.1514
   9823SM   H4S13253   6.915   6.971  13.106  2.1932  0.0439  0.0258
   9823SM   C5S13254   6.878   6.770  13.087  0.2288 -0.1217  0.3680
   9823SM   H5S13255   6.850   6.697  13.009 -1.6757  1.0727 -0.1289
   9823SM   C6S13256   6.835   6.749  13.226 -0.0261  0.4877 -0.2246
   9823SM   H6S13257   6.926   6.718  13.281 -0.8916 -0.8879  0.4981
   9823SM   H6T13258   6.770   6.660  13.240 -1.0711  1.1026 -0.9949
   9823SM   C7S13259   6.763   6.864  13.299  0.0566 -0.9189 -0.0143
   9823SM   H7S13260   6.674   6.881  13.234  0.4024  0.6911 -0.1275
   9823SM   H7T13261   6.840   6.944  13.307 -0.7834 -0.1160  0.4052
   9823SM   C8S13262   6.718   6.839  13.443 -0.0120  0.6071 -0.3148
   9823SM   H8S13263   6.712   6.932  13.503  2.2734  1.4672 -1.2900
   9823SM   H8T13264   6.798   6.781  13.494  1.7431  1.8021 -1.5994
   9823SM   C9S13265   6.583   6.769  13.452 -0.4526  0.7111  0.2408
   9823SM   H9S13266   6.577   6.708  13.360  2.0669  1.0315 -0.1982
   9823SM   H9T13267   6.508   6.851  13.452  1.2033  2.3281 -1.4233
   9823SM  C10S13268   6.573   6.680  13.573 -0.2748 -0.6955  0.1887
   9823SM  H10S13269   6.605   6.741  13.661 -1.9922 -0.0755  0.4104
   9823SM  H10T13270   6.654   6.604  13.568  1.5522  1.2053 -2.1328
   9823SM  C11S13271   6.431   6.629  13.602  0.2023  0.7370 -0.5385
   9823SM  H11S13272   6.393   6.572  13.515  1.5053 -0.8034 -0.1386
   9823SM  H11T13273   6.369   6.719  13.620  0.5607  0.4554  2.7638
   9823SM  C12S13274   6.426   6.543  13.732 -0.0554 -0.0036  0.1630
   9823SM  H12S13275   6.506   6.469  13.712  0.1707  0.4026 -0.4335
   9823SM  H12T13276   6.324   6.501  13.746  0.9147 -2.2412  0.9952
   9823SM  C13S13277   6.455   6.632  13.857  0.0077 -0.4269 -0.2084
   9823SM  H13S13278   6.435   6.740  13.837  0.1224 -0.7512 -2.2909
   9823SM  H13T13279   6.564   6.620  13.876 -0.0743 -0.7790  0.0488
   9823SM  C14S13280   6.385   6.586  13.981 -0.3246 -0.7014 -0.2933
   9823SM  H14S13281   6.431   6.499  14.033  1.3551  1.2841  1.7367
   9823SM  H14T13282   6.277   6.572  13.958 -0.1795  0.0541 -1.5623
   9823SM  C15S13283   6.383   6.702  14.091 -0.6022  0.0400 -0.5577
   9823SM  H15S13284   6.336   6.794  14.051  0.3815  0.8205  0.0429
   9823SM  H15T13285   6.491   6.707  14.114 -0.0683 -1.4494 -2.3977
   9823SM  C16S13286   6.308   6.652  14.214  0.0558 -0.2572 -0.1815
   9823SM  H16S13287   6.359   6.562  14.255  0.0440  0.7023  2.1111
   9823SM  H16T13288   6.211   6.609  14.179  0.6644 -0.6599 -1.4250
   9823SM  C17S13289   6.301   6.777  14.302 -0.1831  0.8393  0.1387
   9823SM  H17S13290   6.242   6.855  14.251  0.7186  2.0760  0.9250
   9823SM  H17T13291   6.401   6.823  14.321 -0.2559  0.5130  1.4176
   9823SM  C18S13292   6.242   6.751  14.441  0.0582 -0.0946 -0.0003
   9823SM  H18S13293   6.291   6.686  14.516 -0.9816 -0.5988  0.2690
   9823SM  H18T13294   6.138   6.712  14.429 -0.4444  0.6506  1.6465
   9823SM  H18U13295   6.237   6.850  14.490  1.8807 -0.4929  1.0998
   9823SM   C1F13296   6.622   7.123  12.841  0.1516  0.6738 -0.1815
   9823SM    OF13297   6.553   7.056  12.764  0.2017 -0.1027 -0.6754
   9823SM   C2F13298   6.559   7.244  12.909  0.1266 -0.4429 -0.0724
   9823SM   H2F13299   6.451   7.226  12.928  0.3889  0.0204  2.0813
   9823SM   H2G13300   6.575   7.336  12.848 -1.1448 -0.4626 -0.4812
   9823SM   C3F13301   6.613   7.292  13.043  0.1417 -0.0094  0.3237
   9823SM   H3F13302   6.553   7.375  13.087 -0.2764 -0.5262  0.7461
   9823SM   H3G13303   6.717   7.330  13.045 -0.2897  1.2273  2.2403
   9823SM   C4F13304   6.619   7.193  13.163  0.2117  0.3309  0.2080
   9823SM   H4F13305   6.650   7.253  13.251 -0.7145  2.2066 -0.6974
   9823SM   H4G13306   6.698   7.121  13.133 -0.2723 -0.1286 -0.0016
   9823SM   C5F13307   6.487   7.114  13.194  0.1706  0.3348  0.5614
   9823SM   H5F13308   6.507   7.007  13.213 -0.0134  0.3889  1.0621
   9823SM   H5G13309   6.423   7.110  13.103 -2.9234 -3.4252  2.5775
   9823SM   C6F13310   6.400   7.167  13.302  1.0783 -0.2520 -0.2582
   9823SM   H6F13311   6.306   7.108  13.311  0.7175  0.4661  0.8184
   9823SM   H6G13312   6.372   7.271  13.276 -0.6545 -0.7162 -0.3749
   9823SM   C7F13313   6.453   7.144  13.443  0.3422  0.4494 -0.7596
   9823SM   H7F13314   6.553   7.192  13.451  2.0499 -3.0634  3.4488
   9823SM   H7G13315   6.457   7.034  13.459 -3.6209 -0.0340 -2.0104
   9823SM   C8F13316   6.363   7.204  13.549  0.7435 -0.2397  0.0702
   9823SM   H8F13317   6.258   7.175  13.531  1.0779 -0.0070 -2.7650
   9823SM   H8G13318   6.366   7.315  13.546 -0.3580 -0.1890  0.5603
   9823SM   C9F13319   6.394   7.158  13.691  0.3723  0.6888 -0.1716
   9823SM   H9F13320   6.504   7.169  13.703  0.2857  1.5379 -0.0710
   9823SM   H9G13321   6.363   7.053  13.709  0.4267  0.6969 -0.0254
   9823SM  C10F13322   6.322   7.246  13.795 -0.4891 -0.9933  0.1222
   9823SM  H10F13323   6.214   7.228  13.775 -0.3303 -1.0156 -0.7525
   9823SM  H10G13324   6.360   7.350  13.780 -0.0979 -0.6141  3.0840
   9823SM  C11F13325   6.360   7.207  13.941  0.2298  0.2587  0.5802
   9823SM  H11F13326   6.470   7.214  13.958  0.3018 -0.6928  0.5691
   9823SM  H11G13327   6.339   7.099  13.955  1.5943  0.0268  0.9529
   9823SM  C12F13328   6.296   7.306  14.042  0.4530 -0.6423  0.2173
   9823SM  H12F13329   6.187   7.283  14.035  0.3452 -0.0860 -0.0534
   9823SM  H12G13330   6.314   7.411  14.012 -0.4354 -0.1501  1.3078
   9823SM  C13F13331   6.338   7.275  14.187  0.6333  0.3895 -0.8270
   9823SM  H13F13332   6.445   7.247  14.198  0.6344  0.4524 -0.6706
   9823SM  H13G13333   6.280   7.185  14.216  1.5155 -0.0286 -0.3051
   9823SM  C14F13334   6.292   7.386  14.289  0.1879  0.2656 -0.5181
   9823SM  H14F13335   6.183   7.390  14.268 -0.6034 -1.5422  2.6438
   9823SM  H14G13336   6.350   7.477  14.264  2.1390 -0.8073 -0.0492
   9823SM  C15F13337   6.296   7.348  14.433  0.4095  0.2901  0.4569
   9823SM  H15F13338   6.272   7.437  14.494  0.2118  1.8055 -1.7152
   9823SM  H15G13339   6.402   7.323  14.457  0.6351  0.7095 -0.0667
   9823SM  C16F13340   6.211   7.229  14.479  0.3781  0.2519 -0.9793
   9823SM  H16F13341   6.208   7.138  14.416 -0.1185 -1.1219  0.9337
   9823SM  H16G13342   6.104   7.259  14.473  0.5385  0.4917 -4.0814
   9823SM  C17F13343   6.242   7.190  14.625 -0.7903 -0.2182 -0.2951
   9823SM  H17F13344   6.234   7.283  14.685  1.4123 -0.3943  0.3565
   9823SM  H17G13345   6.342   7.142  14.633  0.4910  2.0803 -1.4814
   9823SM  C18F13346   6.136   7.094  14.678  0.2847  0.1257  0.4003
   9823SM  H18F13347   6.143   7.002  14.617 -0.7901  1.6055 -2.1298
   9823SM  H18G13348   6.042   7.145  14.648 -1.6880 -2.4800  1.8308
   9823SM  C19F13349   6.138   7.078  14.829 -0.0129 -0.2859  0.5695
   9823SM  H19F13350   6.112   7.172  14.883  2.0614  0.1411  0.9325
   9823SM  H19G13351   6.244   7.053  14.851  0.0440 -2.5233 -1.8677
   9823SM  C20F13352   6.039   6.973  14.863  0.4709  0.2536  0.0791
   9823SM  H20F13353   6.047   6.887  14.794 -2.8312 -1.4107  1.5304
   9823SM  H20G13354   5.939   7.022  14.854  1.0708  1.3225 -1.0623
   9823SM  C21F13355   6.035   6.932  15.010 -0.5349  0.5052 -0.0990
   9823SM  H21F13356   5.960   6.850  15.017  0.6471 -0.5857  0.2407
   9823SM  H21G13357   6.014   7.017  15.078 -0.0951  1.3056 -0.9415
   9823SM  C22F13358   6.171   6.861  15.050  1.0920  0.0938 -0.4558
   9823SM  H22F13359   6.232   6.948  15.083 -0.9291  2.0291 -1.5063
   9823SM  H22G13360   6.215   6.813  14.960 -1.1255 -0.3230 -1.3984
   9823SM  C23F13361   6.159   6.762  15.167  0.2950  1.1930 -0.1346
   9823SM  H23F13362   6.260   6.721  15.188  0.4200  0.6975 -1.5894
   9823SM  H23G13363   6.089   6.681  15.138 -0.8634  2.0903  0.0804
   9823SM  H23H13364   6.116   6.811  15.257 -2.2553  0.2663 -0.7659
   9923SM     N13365   1.736   5.982  12.505 -0.4529 -0.0710 -0.4498
   9923SM   C1513366   1.631   5.894  12.456  0.6814  0.0409 -0.3970
   9923SM  H15A13367   1.540   5.952  12.447  0.7797  0.5609  1.4814
   9923SM  H15B13368   1.608   5.815  12.526  0.2319  1.0125  0.5978
   9923SM  H15C13369   1.647   5.859  12.355 -0.4562  1.8014 -1.2451
   9923SM   C1413370   1.870   5.917  12.501  0.8280  0.1467  1.0795
   9923SM  H14A13371   1.865   5.814  12.534  1.4969 -1.0635 -2.1834
   9923SM  H14B13372   1.932   5.979  12.563 -0.4733  1.6605  0.9386
   9923SM  H14C13373   1.920   5.905  12.406  1.6514 -2.7240  1.7706
   9923SM   C1313374   1.744   6.118  12.424 -0.3026  0.1036 -0.1103
   9923SM  H13A13375   1.816   6.182  12.472  0.0567 -1.1349  1.0794
   9923SM  H13B13376   1.650   6.172  12.427  0.4994  1.5846  3.5300
   9923SM  H13C13377   1.771   6.102  12.320 -0.3382 -0.4765 -0.0367
   9923SM   C1213378   1.710   6.021  12.659 -0.6177 -0.0113  0.4370
   9923SM  H12A13379   1.792   6.084  12.691  0.1507 -0.7474 -0.0304
   9923SM  H12B13380   1.712   5.927  12.711  0.3328  0.0666  0.5580
   9923SM   C1113381   1.575   6.082  12.694  0.0104  0.1757  0.8482
   9923SM  H11A13382   1.570   6.165  12.621 -1.3877  1.0054  1.8357
   9923SM  H11B13383   1.562   6.127  12.795  2.5490 -0.2082  1.4096
   9923SM     P13384   1.412   5.891  12.752 -0.2873 -0.2635 -0.1305
   9923SM   O1313385   1.272   5.862  12.711  0.0552  0.5226 -0.2547
   9923SM   O1413386   1.517   5.789  12.757 -0.4353  0.0850 -0.3262
   9923SM   O1113387   1.399   5.968  12.893 -0.1653 -0.5421  0.2617
   9923SM   O1213388   1.462   6.002  12.659 -0.1743 -0.3161  0.2046
   9923SM   C1S13389   1.297   6.064  12.923  0.4910  0.2645  0.0728
   9923SM   H1S13390   1.193   6.027  12.910 -0.7871  3.8086 -0.9189
   9923SM   H1T13391   1.307   6.154  12.859  3.2007  0.2201  0.3242
   9923SM    NF13392   1.189   6.175  13.122 -0.6232 -0.3374  0.2191
   9923SM   HNF13393   1.188   6.273  13.140  2.6034 -0.0309 -0.6349
   9923SM   C2S13394   1.313   6.110  13.073 -0.2926  0.3072  0.0213
   9923SM   H2S13395   1.330   6.013  13.125 -0.2711  1.6369  2.6635
   9923SM   C3S13396   1.438   6.199  13.096 -0.3688  0.3541  0.4293
   9923SM   H3S13397   1.421   6.294  13.041 -0.3299  0.5088  0.6822
   9923SM    O313398   1.563   6.148  13.045  0.0215  0.1453  0.1200
   9923SM   HO313399   1.530   6.071  12.997 -3.8100  1.6023  0.0585
   9923SM   C4S13400   1.448   6.226  13.244  0.1459  0.5241  0.3058
   9923SM   H4S13401   1.456   6.136  13.308 -0.8521 -0.3262 -0.7206
   9923SM   C5S13402   1.451   6.351  13.295  0.3555  0.4736  0.7047
   9923SM   H5S13403   1.443   6.437  13.228 -2.2501 -1.1058 -1.2195
   9923SM   C6S13404   1.445   6.378  13.443  0.3767  0.2837 -1.1479
   9923SM   H6S13405   1.417   6.289  13.504 -1.3342  1.2778 -0.4124
   9923SM   H6T13406   1.377   6.463  13.464  3.8759  3.2051 -0.8006
   9923SM   C7S13407   1.575   6.434  13.496  0.9673 -0.6234 -0.0158
   9923SM   H7S13408   1.624   6.508  13.429 -0.5947 -1.1072 -1.7866
   9923SM   H7T13409   1.651   6.363  13.534  0.5416 -0.4342  1.2380
   9923SM   C8S13410   1.550   6.531  13.619  0.0517  0.0890  0.5586
   9923SM   H8S13411   1.508   6.624  13.574  1.1414  0.4102  0.1899
   9923SM   H8T13412   1.650   6.547  13.664  2.0377 -0.2738 -3.3172
   9923SM   C9S13413   1.450   6.481  13.726  0.8318 -0.6420  0.0014
   9923SM   H9S13414   1.472   6.373  13.742  2.0822 -0.3806  0.1611
   9923SM   H9T13415   1.345   6.480  13.690  0.0769  0.8313  1.9689
   9923SM  C10S13416   1.471   6.557  13.864  0.2103 -0.7185  0.6938
   9923SM  H10S13417   1.498   6.660  13.831  0.9324 -0.5806  1.6859
   9923SM  H10T13418   1.557   6.503  13.909  1.9889  1.3114 -0.0177
   9923SM  C11S13419   1.343   6.568  13.953 -0.0432 -0.4858 -0.3861
   9923SM  H11S13420   1.293   6.470  13.938  2.7386 -1.9626 -0.8368
   9923SM  H11T13421   1.281   6.647  13.905  0.1454 -0.2746 -0.2838
   9923SM  C12S13422   1.388   6.583  14.097 -0.1868 -0.6993  0.1820
   9923SM  H12S13423   1.485   6.637  14.091 -1.2203  1.1589 -0.8078
   9923SM  H12T13424   1.399   6.486  14.150  0.7280 -1.0588 -0.6221
   9923SM  C13S13425   1.290   6.681  14.164  0.1414  0.0372  0.0188
   9923SM  H13S13426   1.185   6.643  14.160 -0.4125  1.0790  2.6737
   9923SM  H13T13427   1.287   6.779  14.112 -1.8529 -0.6943 -1.3839
   9923SM  C14S13428   1.325   6.687  14.309 -0.3968 -0.1739 -0.6328
   9923SM  H14S13429   1.436   6.691  14.312 -0.4047  0.7030  2.6430
   9923SM  H14T13430   1.299   6.589  14.354 -0.1816 -0.1686 -0.4927
   9923SM  C15S13431   1.255   6.803  14.384 -0.6648 -0.1983  0.0335
   9923SM  H15S13432   1.150   6.771  14.404 -0.5438 -1.8034 -1.6523
   9923SM  H15T13433   1.246   6.892  14.317  3.7332  0.6259  0.2668
   9923SM  C16S13434   1.329   6.833  14.512  0.0692 -0.0832 -0.1922
   9923SM  H16S13435   1.432   6.871  14.497  0.4687 -0.0219  2.2377
   9923SM  H16T13436   1.348   6.738  14.567 -0.7440 -1.0928 -1.5893
   9923SM  C17S13437   1.242   6.919  14.613 -0.0437  0.5183 -0.0155
   9923SM  H17S13438   1.140   6.877  14.611  0.0672  0.2588 -0.1868
   9923SM  H17T13439   1.226   7.020  14.569 -0.1535  0.6193  0.2534
   9923SM  C18S13440   1.302   6.921  14.751  0.2406  0.3474 -0.1684
   9923SM  H18S13441   1.258   7.009  14.803 -2.1279  1.1499 -3.2547
   9923SM  H18T13442   1.412   6.933  14.750 -0.0159  3.6765  0.2659
   9923SM  H18U13443   1.272   6.824  14.795 -0.1058 -0.4503 -2.0529
   9923SM   C1F13444   1.080   6.101  13.148 -0.4123 -0.1808 -0.2154
   9923SM    OF13445   1.073   5.981  13.123  0.3662 -0.1470 -0.0293
   9923SM   C2F13446   0.968   6.182  13.206 -0.0006 -0.7898  0.1928
   9923SM   H2F13447   0.877   6.171  13.142  1.5147  1.5988 -2.6603
   9923SM   H2G13448   1.002   6.287  13.206  1.7478 -1.2201 -2.9007
   9923SM   C3F13449   0.960   6.136  13.356 -0.1710 -0.3029  0.3209
   9923SM   H3F13450   0.930   6.029  13.361 -2.7457  0.3634  0.1731
   9923SM   H3G13451   0.878   6.195  13.402 -0.5753 -0.9731  0.4810
   9923SM   C4F13452   1.095   6.156  13.433  0.2955 -0.0112  0.1262
   9923SM   H4F13453   1.152   6.251  13.424 -0.4747  0.4115 -0.3615
   9923SM   H4G13454   1.164   6.076  13.399 -0.6805 -1.3709  1.2273
   9923SM   C5F13455   1.079   6.131  13.583  0.5627  0.4640  0.0346
   9923SM   H5F13456   1.002   6.052  13.587 -0.3718  1.3456 -0.1113
   9923SM   H5G13457   1.032   6.222  13.627 -0.6222 -0.3252  0.4334
   9923SM   C6F13458   1.210   6.096  13.652  0.2074 -0.2932 -0.5398
   9923SM   H6F13459   1.274   6.186  13.641  0.4596 -0.2379  1.1330
   9923SM   H6G13460   1.249   6.010  13.593  0.7584  0.0572 -0.6961
   9923SM   C7F13461   1.194   6.059  13.798 -0.1161 -0.6757  0.3025
   9923SM   H7F13462   1.297   6.031  13.827 -0.6285 -3.2982 -0.1088
   9923SM   H7G13463   1.138   5.963  13.806 -1.6118  0.3112  2.9319
   9923SM   C8F13464   1.133   6.175  13.892  0.0663  0.4221 -0.2966
   9923SM   H8F13465   1.025   6.154  13.904 -0.7167  3.2104 -1.6081
   9923SM   H8G13466   1.157   6.274  13.849  2.5893  0.1533  0.3206
   9923SM   C9F13467   1.192   6.163  14.029  0.5547 -0.2925  0.5980
   9923SM   H9F13468   1.301   6.185  14.018  0.1410  1.8289  0.1924
   9923SM   H9G13469   1.181   6.060  14.069 -1.8670 -0.6304 -0.7974
   9923SM  C10F13470   1.121   6.263  14.127 -0.4040 -0.1881 -0.0718
   9923SM  H10F13471   1.010   6.248  14.124 -0.5281  0.6330  0.3545
   9923SM  H10G13472   1.138   6.367  14.093 -0.9056  1.0245  3.0526
   9923SM  C11F13473   1.160   6.223  14.272 -0.4838 -0.3431  0.3953
   9923SM  H11F13474   1.270   6.228  14.287 -0.5695  2.5689  0.6253
   9923SM  H11G13475   1.114   6.124  14.290 -0.8873 -0.3402 -0.5425
   9923SM  C12F13476   1.108   6.334  14.358 -0.7943  0.2718 -0.1913
   9923SM  H12F13477   0.998   6.323  14.374 -0.2629 -1.9850  2.7038
   9923SM  H12G13478   1.136   6.431  14.311 -3.1217  1.8201  1.3872
   9923SM  C13F13479   1.169   6.339  14.496 -0.1337 -0.3858 -0.0746
   9923SM  H13F13480   1.162   6.444  14.531 -0.5155 -1.0781  2.0871
   9923SM  H13G13481   1.273   6.300  14.489 -0.5379 -1.5132 -0.1203
   9923SM  C14F13482   1.100   6.246  14.601  0.2783 -0.5269 -0.6045
   9923SM  H14F13483   1.117   6.148  14.552  2.0494 -0.1017 -0.9083
   9923SM  H14G13484   0.992   6.271  14.596 -0.3656 -2.1832  2.5539
   9923SM  C15F13485   1.148   6.253  14.750 -0.1352 -0.0071 -0.3039
   9923SM  H15F13486   1.259   6.249  14.754 -0.0819 -1.6487 -2.0025
   9923SM  H15G13487   1.111   6.160  14.797 -1.1433  0.2555 -0.5474
   9923SM  C16F13488   1.099   6.371  14.827 -0.6068  0.8559 -0.4187
   9923SM  H16F13489   0.993   6.378  14.794 -0.6467  1.4737 -0.1680
   9923SM  H16G13490   1.139   6.471  14.802 -1.0292  0.8977 -0.9405
   9923SM  C17F13491   1.093   6.353  14.979 -0.3648  0.2067 -0.1192
   9923SM  H17F13492   1.198   6.352  15.014 -0.6072 -3.1342  0.8901
   9923SM  H17G13493   1.043   6.256  15.001 -0.7464  0.2807 -0.6253
   9923SM  C18F13494   1.015   6.467  15.042  0.0825  0.3228  0.2113
   9923SM  H18F13495   0.910   6.469  15.006 -0.1537 -1.8036  0.6112
   9923SM  H18G13496   1.069   6.562  15.025 -0.5401  0.5719 -0.4448
   9923SM  C19F13497   1.009   6.457  15.191  0.4826 -0.0464 -0.3341
   9923SM  H19F13498   1.108   6.438  15.237 -0.1996 -1.3589  0.6867
   9923SM  H19G13499   0.946   6.367  15.212 -2.3666  1.8453 -0.1953
   9923SM  C20F13500   0.949   6.589  15.248  0.3918  0.2574 -0.7743
   9923SM  H20F13501   0.846   6.605  15.209  0.2778 -0.0835 -0.6135
   9923SM  H20G13502   1.001   6.681  15.213 -0.5443  2.0810  2.2833
   9923SM  C21F13503   0.955   6.595  15.399  0.4410 -1.0336 -0.7069
   9923SM  H21F13504   0.868   6.549  15.450 -1.2786  1.1279 -1.5500
   9923SM  H21G13505   0.929   6.701  15.416 -0.6064 -0.9983 -2.3083
   9923SM  C22F13506   1.088   6.561  15.461  0.4725 -0.1473  0.1893
   9923SM  H22F13507   1.173   6.599  15.401 -0.1055 -2.0619 -2.0153
   9923SM  H22G13508   1.078   6.450  15.456 -1.9789 -0.0500  1.4718
   9923SM  C23F13509   1.109   6.600  15.605 -0.0631  0.8429 -0.2725
   9923SM  H23F13510   1.093   6.705  15.636 -0.5542  0.5776  0.3960
   9923SM  H23G13511   1.208   6.567  15.645 -0.7986 -0.9522  0.1874
   9923SM  H23H13512   1.035   6.540  15.662  0.5473 -0.5299 -0.8792
  10023SM     N13513   1.036   6.169  12.577  0.2221  0.1233  0.5287
  10023SM   C1513514   1.025   6.288  12.478  0.8774  0.2133  0.4491
  10023SM  H15A13515   0.918   6.303  12.467  0.7821 -0.8000 -0.1476
  10023SM  H15B13516   1.082   6.262  12.390  0.3367  1.1198 -0.1776
  10023SM  H15C13517   1.056   6.384  12.515  0.8523  0.2452  0.3886
  10023SM   C1413518   0.958   6.050  12.528  0.1984  0.1621 -0.2912
  10023SM  H14A13519   0.853   6.077  12.523  0.6948  2.0101 -1.1563
  10023SM  H14B13520   0.974   5.969  12.598  0.6522 -0.1157 -0.7180
  10023SM  H14C13521   0.996   6.013  12.434 -0.6879 -1.5212 -0.0420
  10023SM   C1313522   1.176   6.129  12.577 -0.8202 -0.1040  0.0261
  10023SM  H13A13523   1.187   6.034  12.626 -1.5302 -0.5681 -0.7051
  10023SM  H13B13524   1.238   6.206  12.622 -2.0314  1.9027 -1.5679
  10023SM  H13C13525   1.211   6.105  12.478  1.8425  1.9797  0.3224
  10023SM   C1213526   0.992   6.222  12.716  0.1525  0.2167  0.1790
  10023SM  H12A13527   1.034   6.144  12.778  1.9012 -2.3093 -3.7675
  10023SM  H12B13528   0.884   6.221  12.726  0.1233  3.9384  1.8876
  10023SM   C1113529   1.048   6.353  12.761  0.5562 -0.5282  0.1169
  10023SM  H11A13530   1.008   6.372  12.863 -1.4347 -1.4226 -0.4523
  10023SM  H11B13531   1.013   6.443  12.707  0.8166 -1.1548 -1.1280
  10023SM     P13532   1.268   6.488  12.766 -0.0537 -0.2675 -0.1058
  10023SM   O1313533   1.412   6.471  12.780 -0.1554  0.2304 -0.7175
  10023SM   O1413534   1.221   6.568  12.650 -0.2736  0.6886  0.2506
  10023SM   O1113535   1.211   6.551  12.901 -0.5686 -0.1952 -0.1897
  10023SM   O1213536   1.186   6.352  12.762 -0.7757  0.0283  0.7348
  10023SM   C1S13537   1.284   6.658  12.969 -0.2165 -0.5827 -0.8893
  10023SM   H1S13538   1.285   6.744  12.898 -2.0544 -0.6591 -1.0444
  10023SM   H1T13539   1.389   6.626  12.988 -0.0875 -0.1055 -0.7881
  10023SM    NF13540   1.263   6.842  13.133  0.3144 -0.2015  0.0128
  10023SM   HNF13541   1.350   6.845  13.182 -0.1286  1.5080  0.7858
  10023SM   C2S13542   1.209   6.712  13.093  0.8854  0.2197  0.4746
  10023SM   H2S13543   1.102   6.730  13.068  1.0740  1.1137  0.2909
  10023SM   C3S13544   1.226   6.600  13.194  0.3250  0.0684 -1.0187
  10023SM   H3S13545   1.335   6.600  13.215 -0.0831  0.2762  1.4369
  10023SM    O313546   1.190   6.475  13.138  0.7243  0.1249  0.5464
  10023SM   HO313547   1.203   6.503  13.047  1.5243  0.7540  0.8298
  10023SM   C4S13548   1.147   6.628  13.314  0.1308 -0.2234 -0.6445
  10023SM   H4S13549   1.037   6.626  13.312  0.0588 -1.6249  1.4108
  10023SM   C5S13550   1.205   6.684  13.421  0.0515 -0.0240 -0.7284
  10023SM   H5S13551   1.313   6.702  13.410 -0.5587  3.9323 -1.6172
  10023SM   C6S13552   1.139   6.709  13.554 -0.2763 -1.0770  0.4140
  10023SM   H6S13553   1.144   6.819  13.565  0.8142 -0.8162 -2.0573
  10023SM   H6T13554   1.203   6.653  13.627 -0.4495 -0.1140  1.3318
  10023SM   C7S13555   0.992   6.674  13.562  0.2455  0.3547  0.5095
  10023SM   H7S13556   0.974   6.565  13.546  2.1651  0.0182  0.3311
  10023SM   H7T13557   0.944   6.726  13.476  1.5766  0.7737 -0.0090
  10023SM   C8S13558   0.916   6.719  13.695 -0.0607  0.7322  0.0601
  10023SM   H8S13559   0.813   6.681  13.683  0.9527 -1.9527 -0.7163
  10023SM   H8T13560   0.893   6.828  13.697 -0.7446  0.6113 -0.7904
  10023SM   C9S13561   0.966   6.670  13.824 -0.4227  0.5929  0.6348
  10023SM   H9S13562   1.061   6.724  13.845  0.6074 -0.8271 -0.1720
  10023SM   H9T13563   1.004   6.565  13.817 -2.0203  0.0328 -0.0885
  10023SM  C10S13564   0.861   6.676  13.934 -0.0587  0.2574 -0.3137
  10023SM  H10S13565   0.798   6.584  13.931 -0.0009  0.2431 -1.9601
  10023SM  H10T13566   0.803   6.768  13.911  0.1150  0.5319  0.3147
  10023SM  C11S13567   0.917   6.676  14.072 -0.5569  0.4700  0.4416
  10023SM  H11S13568   0.960   6.777  14.092 -1.4737  0.7874  0.8860
  10023SM  H11T13569   0.996   6.599  14.066  0.2071  1.2523  0.1801
  10023SM  C12S13570   0.805   6.640  14.170  0.4745  0.5639  0.1440
  10023SM  H12S13571   0.773   6.537  14.145  0.9544 -0.1644  2.2800
  10023SM  H12T13572   0.720   6.710  14.153 -0.9544 -0.9661  0.7911
  10023SM  C13S13573   0.850   6.662  14.315 -0.5537 -0.1046  0.0140
  10023SM  H13S13574   0.878   6.768  14.336 -1.2932 -0.1762  1.4963
  10023SM  H13T13575   0.936   6.595  14.338 -0.7377 -0.1435  0.5958
  10023SM  C14S13576   0.750   6.622  14.421  0.0445  0.0185 -0.2561
  10023SM  H14S13577   0.713   6.520  14.396  1.5404 -0.8396  0.8547
  10023SM  H14T13578   0.671   6.699  14.409  0.3278  0.1284 -1.6096
  10023SM  C15S13579   0.794   6.612  14.567  0.4804 -0.1769  0.1286
  10023SM  H15S13580   0.878   6.544  14.592 -0.8394 -1.9315 -0.0293
  10023SM  H15T13581   0.705   6.579  14.624  0.0931 -0.8755 -0.8677
  10023SM  C16S13582   0.839   6.749  14.631  0.7584  0.2891  0.5984
  10023SM  H16S13583   0.761   6.826  14.612 -0.0179 -0.9904 -1.7866
  10023SM  H16T13584   0.930   6.778  14.574  0.3422 -0.7769 -0.6586
  10023SM  C17S13585   0.888   6.760  14.777  0.7011 -0.1341 -0.2789
  10023SM  H17S13586   0.927   6.860  14.805  0.5127 -0.3300  0.7430
  10023SM  H17T13587   0.969   6.685  14.789  1.6991  0.6295 -2.0353
  10023SM  C18S13588   0.772   6.733  14.885 -1.0170 -0.1745 -0.7030
  10023SM  H18S13589   0.715   6.642  14.856  1.6811 -2.2089 -0.1197
  10023SM  H18T13590   0.709   6.824  14.888  0.4982  0.9266  2.8659
  10023SM  H18U13591   0.808   6.707  14.987 -1.1476  0.1429 -0.5768
  10023SM   C1F13592   1.244   6.965  13.071  0.0479  0.2322  0.7843
  10023SM    OF13593   1.145   6.977  13.002  0.1615  0.1682  0.0848
  10023SM   C2F13594   1.340   7.073  13.084  0.0970 -0.2622 -0.0478
  10023SM   H2F13595   1.323   7.153  13.009  3.7688  0.9870  0.2288
  10023SM   H2G13596   1.434   7.028  13.045 -0.3185 -0.4635 -0.8313
  10023SM   C3F13597   1.343   7.129  13.226  0.3366 -0.7246  0.1523
  10023SM   H3F13598   1.432   7.196  13.225  0.2070 -0.5463 -1.3265
  10023SM   H3G13599   1.362   7.049  13.301 -1.6025  0.5487  2.1106
  10023SM   C4F13600   1.222   7.218  13.258 -0.2996  0.8206 -0.2802
  10023SM   H4F13601   1.193   7.287  13.176  1.2452  2.6409  0.6504
  10023SM   H4G13602   1.239   7.284  13.345  3.5895 -1.6909  1.1428
  10023SM   C5F13603   1.097   7.138  13.309  0.4941  0.5491 -0.1294
  10023SM   H5F13604   1.131   7.067  13.388  0.8047 -1.8631 -2.2794
  10023SM   H5G13605   1.056   7.088  13.218  0.8085  2.2838 -1.2563
  10023SM   C6F13606   0.983   7.227  13.368 -0.0250 -0.0398  0.8002
  10023SM   H6F13607   0.942   7.306  13.301 -1.0311 -1.4062 -0.2821
  10023SM   H6G13608   1.016   7.280  13.459 -0.5291 -1.6550  1.9608
  10023SM   C7F13609   0.864   7.138  13.410 -0.3568 -0.6641 -0.8864
  10023SM   H7F13610   0.886   7.050  13.475 -2.0762  1.6008  3.1791
  10023SM   H7G13611   0.820   7.106  13.314  2.1848  1.3368 -2.8749
  10023SM   C8F13612   0.761   7.208  13.503  0.5117 -0.1734 -0.1459
  10023SM   H8F13613   0.671   7.143  13.511  1.0824 -0.8575  0.9775
  10023SM   H8G13614   0.729   7.308  13.465 -1.5567 -1.1544 -1.1789
  10023SM   C9F13615   0.818   7.212  13.651  0.6627  0.0683  0.8257
  10023SM   H9F13616   0.912   7.268  13.634  0.9839 -1.1270 -1.9507
  10023SM   H9G13617   0.840   7.106  13.677  0.7383  0.2095  1.3507
  10023SM  C10F13618   0.722   7.258  13.769 -0.7692  0.3461  0.9191
  10023SM  H10F13619   0.762   7.218  13.865  1.4542 -1.5061 -0.6411
  10023SM  H10G13620   0.621   7.214  13.761 -1.4491  1.4106  3.0471
  10023SM  C11F13621   0.689   7.403  13.781  0.1212 -0.5231  0.3270
  10023SM  H11F13622   0.680   7.442  13.677  1.7899  0.1394  0.3965
  10023SM  H11G13623   0.785   7.448  13.813 -0.9051  0.4237  2.1830
  10023SM  C12F13624   0.576   7.443  13.878 -0.4692 -0.9258  0.2290
  10023SM  H12F13625   0.473   7.409  13.854 -1.5917  1.8121  0.7756
  10023SM  H12G13626   0.573   7.554  13.876 -0.6943 -0.9271 -1.9157
  10023SM  C13F13627   0.599   7.394  14.024  0.4041 -0.2423  0.8271
  10023SM  H13F13628   0.709   7.397  14.038  0.1194  2.9551  3.2302
  10023SM  H13G13629   0.561   7.289  14.030  1.3421 -0.5341  1.8607
  10023SM  C14F13630   0.511   7.473  14.125 -0.6373 -0.1990 -0.0227
  10023SM  H14F13631   0.409   7.439  14.096 -0.5602 -0.9106  0.5137
  10023SM  H14G13632   0.525   7.582  14.112 -0.6623 -0.0804  0.8912
  10023SM  C15F13633   0.538   7.430  14.278 -0.0639  0.1941  1.2120
  10023SM  H15F13634   0.646   7.458  14.285 -0.9233  3.7479  2.2337
  10023SM  H15G13635   0.526   7.320  14.276  0.0029  0.0759 -3.5173
  10023SM  C16F13636   0.454   7.500  14.380  0.0950 -0.1835 -0.7730
  10023SM  H16F13637   0.348   7.470  14.371 -0.2954  1.0549 -0.4924
  10023SM  H16G13638   0.455   7.611  14.381  0.7308 -0.1753  1.3421
  10023SM  C17F13639   0.503   7.461  14.525  0.6671 -0.5340 -0.0790
  10023SM  H17F13640   0.611   7.485  14.535  0.6626 -0.3078 -0.5333
  10023SM  H17G13641   0.495   7.352  14.539  0.5269 -0.7747 -1.8052
  10023SM  C18F13642   0.418   7.539  14.626  0.5315  0.4244  0.9733
  10023SM  H18F13643   0.309   7.525  14.611  0.4784  1.1327  0.6638
  10023SM  H18G13644   0.437   7.647  14.610 -0.1438  0.6127  1.4121
  10023SM  C19F13645   0.472   7.512  14.763  0.3274  0.2856 -0.4899
  10023SM  H19F13646   0.575   7.551  14.759  0.5013 -0.2512 -1.5158
  10023SM  H19G13647   0.482   7.407  14.797 -0.7710 -0.0779 -1.2429
  10023SM  C20F13648   0.412   7.600  14.874  0.2394  0.3242 -0.0926
  10023SM  H20F13649   0.302   7.589  14.885  0.2797 -1.4563 -0.9746
  10023SM  H20G13650   0.420   7.708  14.848  0.0603  0.6993  1.3690
  10023SM  C21F13651   0.474   7.563  15.007  0.0687 -0.4805  0.0236
  10023SM  H21F13652   0.498   7.454  15.013 -0.2590 -0.5606 -0.1034
  10023SM  H21G13653   0.399   7.598  15.080  1.8575 -1.7441  2.5994
  10023SM  C22F13654   0.604   7.639  15.037  0.7311  0.1596 -0.4021
  10023SM  H22F13655   0.572   7.745  15.042 -2.1960 -0.4236 -3.5162
  10023SM  H22G13656   0.681   7.628  14.957  1.7889 -0.1129  0.6179
  10023SM  C23F13657   0.662   7.588  15.174  0.0032  0.3437  0.3154
  10023SM  H23F13658   0.598   7.625  15.256  0.8520  2.3131  0.1321
  10023SM  H23G13659   0.773   7.599  15.178  0.2903 -0.7861 -2.3916
  10023SM  H23H13660   0.658   7.477  15.171  1.1948  0.2902  0.2075
  101CHL1    C313661   3.218   4.267  16.492  0.0669  0.7243 -0.1202
  101CHL1    H313662   3.192   4.160  16.508 -0.8084  0.6611 -1.7585
  101CHL1    O313663   3.246   4.324  16.621 -0.1792  0.0012 -0.0386
  101CHL1   H3'13664   3.240   4.416  16.593 -3.5983 -0.8638 -3.0582
  101CHL1    C413665   3.345   4.265  16.412 -0.1728  0.2189 -0.4274
  101CHL1   H4A13666   3.398   4.362  16.417 -0.8060  0.5482  0.0210
  101CHL1   H4B13667   3.418   4.202  16.467 -0.3888  1.8527  1.8546
  101CHL1    C513668   3.329   4.210  16.266  0.4744  0.2872 -0.2468
  101CHL1    C613669   3.404   4.104  16.226  0.5976 -0.2787  0.2049
  101CHL1    H613670   3.471   4.054  16.297 -0.9771 -1.3782  0.9770
  101CHL1    C713671   3.396   4.055  16.088 -0.2579 -0.2745 -0.1640
  101CHL1   H7A13672   3.496   4.046  16.042  0.3561 -1.7958  1.3568
  101CHL1   H7B13673   3.368   3.948  16.100 -0.5053  0.0832  3.5751
  101CHL1    C813674   3.314   4.129  15.990  0.4386 -0.1366  0.2609
  101CHL1    H813675   3.367   4.224  15.968  1.3279 -0.8655 -0.8503
  101CHL1   C1413676   3.286   4.038  15.873  0.2152 -0.4263  0.6749
  101CHL1   H1413677   3.226   3.951  15.905  1.1448 -0.6734  1.8283
  101CHL1   C1513678   3.398   3.964  15.795 -0.1281 -0.0249  0.6394
  101CHL1  H15A13679   3.480   4.028  15.757  0.5370 -2.0237 -1.5599
  101CHL1  H15B13680   3.440   3.870  15.838 -0.8708 -0.1051  1.2215
  101CHL1   C1613681   3.318   3.924  15.667  0.1419  0.1563  1.1123
  101CHL1  H16A13682   3.384   3.928  15.578  0.5758 -2.2036  1.2507
  101CHL1  H16B13683   3.299   3.814  15.669  2.1809 -0.2292  0.9350
  101CHL1   C1713684   3.187   4.005  15.656 -0.1581  1.2354  0.1444
  101CHL1   H1713685   3.112   3.930  15.689  0.9667 -0.3339 -0.7439
  101CHL1   C1313686   3.195   4.111  15.770 -0.4374 -0.3323 -0.1852
  101CHL1   C1813687   3.272   4.235  15.720 -1.0453  0.2009 -0.3791
  101CHL1  H18A13688   3.287   4.305  15.805 -2.3506 -1.8099  1.6482
  101CHL1  H18B13689   3.372   4.208  15.678 -1.1564  0.1096 -0.5874
  101CHL1  H18C13690   3.209   4.278  15.639 -1.1287  0.3182 -0.2526
  101CHL1   C1213691   3.060   4.156  15.835  0.3047  0.1082  0.6881
  101CHL1  H12A13692   2.984   4.206  15.771  3.2094  2.9109 -0.8592
  101CHL1  H12B13693   3.008   4.065  15.871 -2.7596  0.9153 -1.3057
  101CHL1   C1113694   3.087   4.243  15.955  0.1965  0.6407 -0.6011
  101CHL1  H11A13695   3.125   4.342  15.920 -2.4759  2.7454  1.8827
  101CHL1  H11B13696   2.989   4.267  16.003  0.1236  2.0551 -1.4005
  101CHL1    C913697   3.187   4.179  16.055  0.3076 -0.0615  0.4353
  101CHL1    H913698   3.130   4.088  16.083 -1.0437  0.5198 -0.3126
  101CHL1   C1013699   3.215   4.264  16.185  0.1859  0.3816 -0.2772
  101CHL1   C1913700   3.269   4.408  16.151  0.3484  0.6609  0.1363
  101CHL1  H19A13701   3.286   4.461  16.247 -3.0108 -1.3000  1.9914
  101CHL1  H19B13702   3.361   4.406  16.089  0.4950 -1.7484  0.3352
  101CHL1  H19C13703   3.198   4.456  16.080 -0.2993 -1.1655 -0.5064
  101CHL1    C113704   3.089   4.259  16.275 -1.1064 -0.5020 -0.3262
  101CHL1   H1A13705   3.009   4.317  16.224 -1.1919 -0.4897 -0.1806
  101CHL1   H1B13706   3.052   4.154  16.278  0.9208 -1.3037 -1.2870
  101CHL1    C213707   3.102   4.323  16.411  0.4396 -0.3480 -0.5496
  101CHL1   H2A13708   3.007   4.297  16.461  0.2199  0.1533 -0.6992
  101CHL1   H2B13709   3.102   4.434  16.409 -0.5007 -0.2812  1.3752
  101CHL1   C2013710   3.144   4.048  15.514  0.4957  0.3166 -0.7388
  101CHL1   H2013711   3.213   4.128  15.479  0.9887  0.7527  1.1290
  101CHL1   C2113712   3.004   4.113  15.512  0.0268  0.3612 -0.1488
  101CHL1  H21A13713   2.927   4.043  15.552 -0.2167  1.0935  0.6854
  101CHL1  H21B13714   2.959   4.152  15.418 -0.1742 -0.7031 -0.5184
  101CHL1  H21C13715   3.013   4.203  15.575  0.3649  0.7478 -0.7414
  101CHL1   C2213716   3.162   3.935  15.416 -0.3128  0.0913 -0.2801
  101CHL1  H22A13717   3.263   3.892  15.397 -0.2995  0.7120 -1.7104
  101CHL1  H22B13718   3.097   3.855  15.458 -1.5121  0.7695 -0.8262
  101CHL1   C2313719   3.110   3.969  15.279 -0.4170 -0.5036  0.2304
  101CHL1  H23A13720   3.002   3.942  15.278 -0.0523 -2.2467  1.8223
  101CHL1  H23B13721   3.111   4.073  15.239  1.4207 -0.7983 -0.5812
  101CHL1   C2413722   3.184   3.891  15.165 -0.6106 -0.9390 -0.1365
  101CHL1  H24A13723   3.291   3.920  15.177 -0.7679 -0.0596 -0.7646
  101CHL1  H24B13724   3.171   3.783  15.186 -2.7291 -1.1536 -2.1730
  101CHL1   C2513725   3.146   3.920  15.019 -0.0711  0.9280  0.4282
  101CHL1   H2513726   3.175   4.026  15.000  1.3097  0.3370 -1.0156
  101CHL1   C2613727   3.217   3.846  14.909 -1.1985 -0.9714  0.4116
  101CHL1  H26A13728   3.201   3.737  14.905  1.4919 -1.4109 -0.8755
  101CHL1  H26B13729   3.183   3.886  14.811 -1.2370  0.9179  1.1486
  101CHL1  H26C13730   3.325   3.866  14.925 -0.9987 -1.8469  0.2144
  101CHL1   C2713731   2.993   3.893  14.998 -0.1007  0.2590  0.5049
  101CHL1  H27A13732   2.944   3.904  15.097  0.0648  1.6731  0.4574
  101CHL1  H27B13733   2.960   3.957  14.913  0.9108  1.5404  1.0295
  101CHL1  H27C13734   2.980   3.786  14.969  2.1452 -0.1201  0.7179
  102CHL1    C313735   3.239   3.315  16.270 -0.6185  0.0777 -0.2149
  102CHL1    H313736   3.201   3.211  16.262  1.2294 -0.6467 -0.0206
  102CHL1    O313737   3.260   3.352  16.402 -0.1201 -0.9253 -0.1926
  102CHL1   H3'13738   3.173   3.377  16.432 -1.5015  0.9977 -4.8270
  102CHL1    C413739   3.374   3.322  16.197  0.4122 -0.4016 -0.7338
  102CHL1   H4A13740   3.425   3.416  16.225 -0.9575  0.0723  0.2292
  102CHL1   H4B13741   3.437   3.238  16.234  0.4246  0.8018  2.2235
  102CHL1    C513742   3.361   3.310  16.048  0.4508  0.6414  0.1808
  102CHL1    C613743   3.422   3.208  15.989 -0.0278 -0.8580  0.7940
  102CHL1    H613744   3.494   3.145  16.043  2.4751  0.8827 -0.3471
  102CHL1    C713745   3.406   3.181  15.846  0.6132 -0.0162 -0.0226
  102CHL1   H7A13746   3.503   3.151  15.801  1.5977  0.6926  1.5591
  102CHL1   H7B13747   3.345   3.090  15.827  2.8197 -1.3547 -1.1584
  102CHL1    C813748   3.353   3.301  15.768 -0.6667  0.0960 -0.2411
  102CHL1    H813749   3.423   3.386  15.784  1.2382 -1.8852  3.3476
  102CHL1   C1413750   3.330   3.268  15.617  0.0645 -0.0432  0.0504
  102CHL1   H1413751   3.250   3.191  15.609 -2.4853  2.6207 -2.1609
  102CHL1   C1513752   3.455   3.216  15.538  0.0277  0.0913  0.1496
  102CHL1  H15A13753   3.536   3.291  15.553  0.6732 -1.0332  2.8086
  102CHL1  H15B13754   3.486   3.117  15.577 -3.8760 -2.6826 -2.9000
  102CHL1   C1613755   3.409   3.232  15.390 -0.0522  0.0637  0.6715
  102CHL1  H16A13756   3.480   3.294  15.331 -1.0349 -1.1535 -1.9304
  102CHL1  H16B13757   3.395   3.125  15.364  1.1491 -0.3721  1.7306
  102CHL1   C1713758   3.274   3.310  15.387 -0.4765 -0.2287 -0.1073
  102CHL1   H1713759   3.195   3.231  15.382 -0.0897 -0.6538  0.3839
  102CHL1   C1313760   3.260   3.371  15.528  0.5231  1.2857  0.7575
  102CHL1   C1813761   3.344   3.499  15.520  0.6029  0.2957 -0.0987
  102CHL1  H18A13762   3.375   3.523  15.624 -0.3615  0.0495  0.2647
  102CHL1  H18B13763   3.439   3.492  15.464 -0.0794 -0.9722 -1.1567
  102CHL1  H18C13764   3.293   3.586  15.474  0.5776 -0.3697 -1.3767
  102CHL1   C1213765   3.124   3.392  15.591  0.0556 -0.4243  0.4298
  102CHL1  H12A13766   3.062   3.469  15.541  1.3794  1.4382  1.5017
  102CHL1  H12B13767   3.064   3.298  15.590 -1.2639  0.3570 -1.8455
  102CHL1   C1113768   3.144   3.454  15.734 -0.2319  0.1030 -0.3826
  102CHL1  H11A13769   3.182   3.558  15.724  0.7944 -0.1521  0.6422
  102CHL1  H11B13770   3.048   3.475  15.784  0.8346  1.5960  1.1488
  102CHL1    C913771   3.221   3.348  15.831 -0.2551  0.1402  0.5337
  102CHL1    H913772   3.159   3.256  15.828  1.1369 -0.8151  0.4889
  102CHL1   C1013773   3.244   3.395  15.977 -0.3200 -0.1006  0.4007
  102CHL1   C1913774   3.288   3.538  15.970 -0.8139  1.0533  0.6817
  102CHL1  H19A13775   3.305   3.576  16.073  0.5379  0.6373  0.6326
  102CHL1  H19B13776   3.386   3.545  15.919 -1.1488  3.0574  0.2356
  102CHL1  H19C13777   3.215   3.603  15.918  1.7876  0.6644 -3.9435
  102CHL1    C113778   3.116   3.379  16.060 -0.0146  0.2094 -0.3519
  102CHL1   H1A13779   3.031   3.439  16.021 -0.7936 -1.4398 -1.2823
  102CHL1   H1B13780   3.088   3.273  16.041 -0.0703  0.7730 -4.1724
  102CHL1    C213781   3.128   3.396  16.215  0.3009 -0.7588  0.2024
  102CHL1   H2A13782   3.029   3.365  16.255  0.0003 -1.2215 -0.8798
  102CHL1   H2B13783   3.148   3.505  16.228  2.2144 -1.2125  1.4245
  102CHL1   C2013784   3.233   3.389  15.259 -0.0313  0.2476 -0.0677
  102CHL1   H2013785   3.291   3.483  15.247  0.5879 -0.3973 -3.0858
  102CHL1   C2113786   3.088   3.440  15.260  0.2536 -0.3616  0.5735
  102CHL1  H21A13787   3.061   3.476  15.158  1.4294 -0.6040  0.1664
  102CHL1  H21B13788   3.079   3.527  15.329 -3.0603  0.8013 -1.0968
  102CHL1  H21C13789   3.016   3.363  15.295 -0.1143 -0.2191  0.1362
  102CHL1   C2213790   3.270   3.310  15.126 -0.4499 -0.0182  0.2448
  102CHL1  H22A13791   3.376   3.278  15.134  0.6462  2.2861 -3.0038
  102CHL1  H22B13792   3.212   3.215  15.130  0.6492 -0.6665  1.1695
  102CHL1   C2313793   3.251   3.399  15.002 -0.0404 -0.5253  0.2624
  102CHL1  H23A13794   3.146   3.434  14.989  0.0450 -0.2151  0.3868
  102CHL1  H23B13795   3.316   3.487  15.017 -0.8171  0.0158  0.5679
  102CHL1   C2413796   3.291   3.328  14.867 -0.6541 -0.5056 -0.2959
  102CHL1  H24A13797   3.393   3.284  14.867 -0.6009 -0.3946  0.2833
  102CHL1  H24B13798   3.216   3.247  14.858 -2.1863  0.7369  0.8002
  102CHL1   C2513799   3.280   3.419  14.747 -0.4527 -0.7367 -0.0637
  102CHL1   H2513800   3.335   3.512  14.772 -2.0892 -0.2602  2.1412
  102CHL1   C2613801   3.348   3.351  14.629  0.5738 -0.3270 -0.0592
  102CHL1  H26A13802   3.324   3.427  14.551 -2.2915 -1.3972 -0.3590
  102CHL1  H26B13803   3.458   3.349  14.641  0.6772  0.5547 -0.7850
  102CHL1  H26C13804   3.305   3.251  14.604 -0.7221  0.3558 -0.7123
  102CHL1   C2713805   3.131   3.454  14.717 -0.3344  0.0939  0.0448
  102CHL1  H27A13806   3.088   3.364  14.668  2.1548 -0.8998 -0.4355
  102CHL1  H27B13807   3.085   3.494  14.810  0.7728  1.9865 -0.1637
  102CHL1  H27C13808   3.121   3.540  14.647 -1.7976  0.7555  1.0048
  103CHL1    C313809   3.118   1.832  16.672 -0.0837 -0.1971 -0.6643
  103CHL1    H313810   3.052   1.915  16.705  3.4877  2.0953  1.3722
  103CHL1    O313811   3.168   1.774  16.797 -0.3128 -0.1813 -0.0436
  103CHL1   H3'13812   3.172   1.678  16.793 -0.3694 -0.1821 -0.0832
  103CHL1    C413813   3.035   1.729  16.593 -0.2002  0.2426  0.4679
  103CHL1   H4A13814   3.109   1.648  16.583  1.9570  1.5968  3.6287
  103CHL1   H4B13815   2.959   1.682  16.660 -1.7188 -4.1968 -3.8233
  103CHL1    C513816   2.981   1.782  16.465 -0.2949  0.0941  0.2489
  103CHL1    C613817   2.847   1.774  16.431  0.4220 -0.1469 -0.6450
  103CHL1    H613818   2.781   1.725  16.504 -0.7263  2.3589  0.1207
  103CHL1    C713819   2.794   1.816  16.299  0.3879  0.1302 -0.5354
  103CHL1   H7A13820   2.706   1.761  16.261  0.4846 -0.3138 -0.1329
  103CHL1   H7B13821   2.766   1.922  16.316  0.3335  0.2324 -1.2458
  103CHL1    C813822   2.904   1.830  16.197 -0.6036 -0.2099  0.0520
  103CHL1    H813823   2.942   1.730  16.167  1.1741  0.3985  0.1285
  103CHL1   C1413824   2.858   1.895  16.069  0.3181 -0.4439  0.0361
  103CHL1   H1413825   2.809   1.988  16.105  0.9458  0.0062 -0.2711
  103CHL1   C1513826   2.746   1.814  16.000  0.0196 -0.3380 -0.4194
  103CHL1  H15A13827   2.766   1.707  16.025 -0.1633  0.4093  3.7014
  103CHL1  H15B13828   2.642   1.820  16.040 -0.2579 -0.4793 -1.1095
  103CHL1   C1613829   2.759   1.860  15.856  0.1983 -0.3458  0.1965
  103CHL1  H16A13830   2.795   1.771  15.799  0.1693  0.2947 -0.8422
  103CHL1  H16B13831   2.662   1.885  15.808  1.6446  0.5000 -2.5264
  103CHL1   C1713832   2.870   1.968  15.849 -0.1019  0.3162 -0.8208
  103CHL1   H1713833   2.828   2.065  15.884  0.0924 -0.6916  2.5030
  103CHL1   C1313834   2.968   1.923  15.966  0.4521 -0.0316  0.4827
  103CHL1   C1813835   3.047   1.796  15.929  0.2584  0.0215  0.0997
  103CHL1  H18A13836   2.973   1.728  15.882 -1.4921  1.0105  1.2945
  103CHL1  H18B13837   3.130   1.811  15.856  1.3480 -1.3205  1.0062
  103CHL1  H18C13838   3.094   1.743  16.015 -2.0469 -1.8658  0.2985
  103CHL1   C1213839   3.053   2.038  16.030 -0.3180  0.4584 -0.5494
  103CHL1  H12A13840   3.124   2.073  15.952 -0.4728  0.5973 -0.6298
  103CHL1  H12B13841   2.992   2.121  16.073  0.7281  0.6760  0.5689
  103CHL1   C1113842   3.119   1.985  16.158 -0.1606 -0.1405 -0.3697
  103CHL1  H11A13843   3.193   1.907  16.131  0.6103  1.3020 -2.7815
  103CHL1  H11B13844   3.161   2.071  16.214 -2.4032  0.9410 -0.2234
  103CHL1    C913845   3.018   1.917  16.256 -0.1764  0.3389  0.4850
  103CHL1    H913846   2.967   2.008  16.294  0.4371  1.7108 -1.8202
  103CHL1   C1013847   3.085   1.841  16.371 -0.3624  0.2552 -0.2264
  103CHL1   C1913848   3.172   1.726  16.313 -0.8561  0.2371  0.2043
  103CHL1  H19A13849   3.246   1.761  16.238  2.3377 -1.4779  2.2932
  103CHL1  H19B13850   3.235   1.676  16.390  3.6252  1.7301 -2.1599
  103CHL1  H19C13851   3.112   1.652  16.257  0.3983 -0.9086  0.3372
  103CHL1    C113852   3.175   1.938  16.451  0.3089 -0.4663  0.1358
  103CHL1   H1A13853   3.262   1.969  16.390  0.3337  1.0405  0.8887
  103CHL1   H1B13854   3.117   2.032  16.459 -0.6511 -1.0886  0.6275
  103CHL1    C213855   3.227   1.892  16.593 -0.4910  0.7895  1.2509
  103CHL1   H2A13856   3.278   1.979  16.639 -3.2753  2.7787  0.8074
  103CHL1   H2B13857   3.315   1.825  16.584 -0.4899  0.8823  0.4731
  103CHL1   C2013858   2.926   1.970  15.708 -0.7009 -0.1470  0.0335
  103CHL1   H2013859   2.969   1.870  15.686 -0.9050 -0.1479 -0.3861
  103CHL1   C2113860   3.043   2.070  15.699 -0.2119  0.4250  0.6580
  103CHL1  H21A13861   3.016   2.163  15.753  2.4801  2.3978 -1.1842
  103CHL1  H21B13862   3.076   2.088  15.595 -2.2196  0.3305 -0.0492
  103CHL1  H21C13863   3.130   2.021  15.747 -1.5442 -0.5605  2.2067
  103CHL1   C2213864   2.818   2.003  15.610  0.4590 -0.0972  0.7557
  103CHL1  H22A13865   2.739   1.925  15.614  0.1868  0.0800 -0.6000
  103CHL1  H22B13866   2.758   2.092  15.639 -2.6553 -1.5000 -0.8368
  103CHL1   C2313867   2.878   2.003  15.473  0.6597  0.2725 -0.1733
  103CHL1  H23A13868   2.924   2.096  15.433 -2.5847  0.8912 -2.8681
  103CHL1  H23B13869   2.958   1.929  15.450  0.7287  0.3008 -0.0316
  103CHL1   C2413870   2.762   1.978  15.366 -0.3948  0.7892  0.1937
  103CHL1  H24A13871   2.747   1.868  15.363 -1.3418  0.9257 -0.4571
  103CHL1  H24B13872   2.664   2.020  15.398 -0.1322  1.8056 -0.2854
  103CHL1   C2513873   2.787   2.049  15.228 -0.1022  0.1840 -0.2068
  103CHL1   H2513874   2.820   2.152  15.250 -1.1423  0.4411  0.2145
  103CHL1   C2613875   2.900   1.991  15.147 -0.3597  0.1726 -0.3587
  103CHL1  H26A13876   2.915   2.057  15.059  3.4661  1.2091  0.8640
  103CHL1  H26B13877   2.996   1.993  15.202 -0.2467  2.9569 -0.5128
  103CHL1  H26C13878   2.884   1.884  15.119 -1.5783 -0.5828  2.8279
  103CHL1   C2713879   2.654   2.072  15.145  0.0403 -0.6438 -0.1905
  103CHL1  H27A13880   2.599   2.145  15.207  0.9085 -1.3465  1.4663
  103CHL1  H27B13881   2.679   2.120  15.049  1.6937 -0.3797  0.3483
  103CHL1  H27C13882   2.608   1.974  15.120 -1.1528  0.4177 -2.4617
  104CHL1    C313883   6.283   2.908  16.558 -0.7198  0.6200  0.3263
  104CHL1    H313884   6.378   2.967  16.560 -0.9469  1.0073 -0.2284
  104CHL1    O313885   6.222   2.911  16.685 -0.3634  0.4039  0.1001
  104CHL1   H3'13886   6.174   2.829  16.698 -0.2572  0.2850 -0.2532
  104CHL1    C413887   6.184   2.964  16.449 -0.2348 -0.1620  0.1657
  104CHL1   H4A13888   6.082   2.925  16.468  0.4359 -1.7322  0.6619
  104CHL1   H4B13889   6.173   3.074  16.458 -1.7315 -0.1513 -1.3331
  104CHL1    C513890   6.239   2.942  16.314  0.1871 -0.4734  0.0078
  104CHL1    C613891   6.244   3.036  16.222 -0.0674 -0.7009 -0.3079
  104CHL1    H613892   6.191   3.130  16.244  0.1994 -0.3353 -1.1713
  104CHL1    C713893   6.282   3.005  16.080  0.1503  0.2557 -1.0816
  104CHL1   H7A13894   6.231   3.075  16.010  3.6323  0.3039 -3.8525
  104CHL1   H7B13895   6.391   3.028  16.076  0.7037 -1.2154  2.2239
  104CHL1    C813896   6.265   2.859  16.045  0.0264  0.7670 -0.3416
  104CHL1    H813897   6.157   2.841  16.028  0.1117  1.5246 -1.8874
  104CHL1   C1413898   6.324   2.819  15.908  0.3485 -1.0632  1.0654
  104CHL1   H1413899   6.427   2.858  15.916 -0.2280  1.8598 -3.0003
  104CHL1   C1513900   6.277   2.906  15.787  0.3321 -0.2041  0.0583
  104CHL1  H15A13901   6.166   2.897  15.786  0.3591 -1.0527  1.7998
  104CHL1  H15B13902   6.295   3.013  15.812 -0.2175 -0.0537 -0.1833
  104CHL1   C1613903   6.351   2.836  15.672 -0.0381  0.5904 -0.1347
  104CHL1  H16A13904   6.287   2.829  15.582  0.8580  0.4835 -0.7743
  104CHL1  H16B13905   6.443   2.884  15.634  1.9484 -1.7391  1.3696
  104CHL1   C1713906   6.388   2.692  15.725 -0.6644 -0.0824 -0.2802
  104CHL1   H1713907   6.498   2.705  15.729 -0.3110 -0.1419 -4.7943
  104CHL1   C1313908   6.324   2.674  15.861  0.5346 -1.2302  0.6580
  104CHL1   C1813909   6.185   2.605  15.848  0.2200  0.2673 -0.0721
  104CHL1  H18A13910   6.190   2.497  15.824 -0.0424  0.5450 -1.4798
  104CHL1  H18B13911   6.129   2.611  15.944 -0.4750 -2.3404 -0.2314
  104CHL1  H18C13912   6.123   2.647  15.765  0.6469  1.3077  0.1176
  104CHL1   C1213913   6.410   2.604  15.965  0.0522 -0.2951 -0.0543
  104CHL1  H12A13914   6.408   2.495  15.946 -3.2503 -0.0587 -1.7257
  104CHL1  H12B13915   6.517   2.633  15.962  0.3977 -1.5595 -0.6994
  104CHL1   C1113916   6.350   2.616  16.107 -0.1581  0.5096  0.4166
  104CHL1  H11A13917   6.251   2.567  16.095  0.3699 -0.0602 -2.5179
  104CHL1  H11B13918   6.425   2.568  16.173 -0.9105  0.3418  1.1633
  104CHL1    C913919   6.331   2.769  16.149 -0.4345  0.6888  0.2700
  104CHL1    H913920   6.435   2.806  16.143 -0.1941  0.0927  0.6084
  104CHL1   C1013921   6.277   2.793  16.293  0.3032 -0.3304 -0.0004
  104CHL1   C1913922   6.135   2.728  16.296  0.0085  0.1799 -0.3052
  104CHL1  H19A13923   6.139   2.619  16.275 -1.4626 -0.0345  0.4572
  104CHL1  H19B13924   6.086   2.726  16.395 -0.8945 -2.6734 -0.7278
  104CHL1  H19C13925   6.061   2.772  16.226 -1.2300  0.9352  1.4420
  104CHL1    C113926   6.380   2.751  16.393  0.3636  0.0228 -0.0087
  104CHL1   H1A13927   6.399   2.642  16.380 -1.3255 -0.3717  0.5446
  104CHL1   H1B13928   6.462   2.819  16.363 -0.0238  0.2983 -0.4558
  104CHL1    C213929   6.328   2.763  16.538  0.4775  1.0657 -0.4655
  104CHL1   H2A13930   6.411   2.742  16.609  0.6449  1.8483 -0.4189
  104CHL1   H2B13931   6.243   2.694  16.551 -0.8716  1.9135 -3.6936
  104CHL1   C2013932   6.375   2.578  15.616 -0.4876  0.1216  0.0501
  104CHL1   H2013933   6.267   2.555  15.605 -0.3519  0.1558 -1.4801
  104CHL1   C2113934   6.445   2.450  15.662  0.2215  0.0303  0.6146
  104CHL1  H21A13935   6.548   2.474  15.696  0.9840  1.2376 -2.1706
  104CHL1  H21B13936   6.456   2.377  15.578  0.6327 -1.4020  1.8766
  104CHL1  H21C13937   6.388   2.402  15.744 -0.8251 -1.5760 -0.9743
  104CHL1   C2213938   6.432   2.621  15.481 -0.0723  0.3540  0.3313
  104CHL1  H22A13939   6.385   2.717  15.451 -1.2839 -0.1531  0.5367
  104CHL1  H22B13940   6.541   2.632  15.494  0.1908 -1.6825  0.1776
  104CHL1   C2313941   6.409   2.531  15.362 -0.6682  0.5731  0.8651
  104CHL1  H23A13942   6.464   2.560  15.269  1.4269 -1.1922  1.4608
  104CHL1  H23B13943   6.446   2.432  15.396  1.0474  0.8900  0.0836
  104CHL1   C2413944   6.261   2.520  15.310 -0.2846  0.0752  0.2104
  104CHL1  H24A13945   6.202   2.490  15.399  0.4453  0.6774  0.9084
  104CHL1  H24B13946   6.233   2.622  15.279 -3.1833 -0.9691 -0.9164
  104CHL1   C2513947   6.242   2.427  15.188 -0.2830  0.2837 -0.4574
  104CHL1   H2513948   6.312   2.456  15.107  1.2846 -2.1828 -0.0680
  104CHL1   C2613949   6.262   2.279  15.231 -0.0891  0.7966 -0.3392
  104CHL1  H26A13950   6.249   2.212  15.143  0.7308  0.5231 -0.2622
  104CHL1  H26B13951   6.366   2.275  15.271 -0.9806  0.1464  2.0387
  104CHL1  H26C13952   6.195   2.242  15.311 -0.0304 -3.4441 -1.9721
  104CHL1   C2713953   6.101   2.444  15.134 -0.4304  0.0029  1.0140
  104CHL1  H27A13954   6.071   2.542  15.092 -0.3811 -1.4342 -2.8223
  104CHL1  H27B13955   6.099   2.379  15.043 -3.0010  0.1428  0.8962
  104CHL1  H27C13956   6.022   2.414  15.206 -1.7011  1.1846  0.1600
  105CHL1    C313957   6.420   1.517  16.550 -0.2556 -0.2021  0.4679
  105CHL1    H313958   6.518   1.510  16.498 -0.7303  0.5824 -0.5688
  105CHL1    O313959   6.439   1.529  16.683 -0.0614  0.3892 -0.3915
  105CHL1   H3'13960   6.425   1.622  16.702 -1.1254  0.2668 -0.5227
  105CHL1    C413961   6.336   1.640  16.500  1.0734  0.1727 -0.4215
  105CHL1   H4A13962   6.245   1.639  16.564  0.4058  2.1404 -1.2504
  105CHL1   H4B13963   6.389   1.733  16.530 -0.5599  1.2307 -0.6633
  105CHL1    C513964   6.304   1.634  16.349  0.0892 -0.2181  0.2194
  105CHL1    C613965   6.355   1.721  16.265  0.0417  0.6999 -0.0417
  105CHL1    H613966   6.428   1.798  16.294  1.7512 -0.2205 -1.6898
  105CHL1    C713967   6.330   1.707  16.119  0.2142  0.0668 -0.3064
  105CHL1   H7A13968   6.301   1.810  16.089  3.3661  2.0592  2.7580
  105CHL1   H7B13969   6.420   1.683  16.057 -0.1211 -0.4975 -0.5822
  105CHL1    C813970   6.214   1.615  16.066  0.6702 -0.2462  0.4137
  105CHL1    H813971   6.121   1.671  16.088  0.9071 -0.1701  1.2629
  105CHL1   C1413972   6.223   1.574  15.919 -0.4023 -0.2766 -0.2553
  105CHL1   H1413973   6.319   1.520  15.907 -0.5778 -0.4999 -0.6884
  105CHL1   C1513974   6.236   1.687  15.815 -0.0507 -0.2370 -0.5959
  105CHL1  H15A13975   6.162   1.770  15.824  1.9106  1.5376  0.0046
  105CHL1  H15B13976   6.338   1.730  15.823 -0.4237  0.3567  2.3382
  105CHL1   C1613977   6.212   1.622  15.679 -0.4627  0.6874 -0.5284
  105CHL1  H16A13978   6.129   1.673  15.626 -2.4844  2.3994  3.8548
  105CHL1  H16B13979   6.311   1.618  15.628  0.2604  1.2390  0.7749
  105CHL1   C1713980   6.154   1.479  15.714 -0.3153  0.5409 -0.1858
  105CHL1   H1713981   6.241   1.409  15.707 -1.6439 -1.1300 -0.5626
  105CHL1   C1313982   6.109   1.488  15.860  0.7312  0.4112 -0.6932
  105CHL1   C1813983   5.971   1.557  15.870 -0.0892 -0.0402  0.8267
  105CHL1  H18A13984   5.952   1.591  15.974  0.1970  2.1814  0.1912
  105CHL1  H18B13985   5.964   1.639  15.796  1.9490 -0.4799  0.0739
  105CHL1  H18C13986   5.889   1.485  15.847 -1.9877  1.3827  2.7605
  105CHL1   C1213987   6.116   1.358  15.947  0.4842  0.8095  0.8259
  105CHL1  H12A13988   6.027   1.292  15.936 -0.3370  1.3657  3.4786
  105CHL1  H12B13989   6.205   1.298  15.922 -1.6039 -2.0866 -0.1292
  105CHL1   C1113990   6.109   1.389  16.096 -0.1440  0.1311  0.6993
  105CHL1  H11A13991   6.007   1.426  16.119 -0.2661 -0.5344  1.2750
  105CHL1  H11B13992   6.110   1.287  16.140  1.7974 -0.2381 -0.0933
  105CHL1    C913993   6.210   1.486  16.152  0.2646  0.1485  0.4487
  105CHL1    H913994   6.307   1.439  16.124 -0.1945 -2.0301  2.1505
  105CHL1   C1013995   6.218   1.507  16.308 -0.5622  0.4276 -0.1688
  105CHL1   C1913996   6.076   1.534  16.362  0.2819  0.3295  0.3382
  105CHL1  H19A13997   6.032   1.612  16.296 -1.0286 -0.6884 -0.0272
  105CHL1  H19B13998   6.009   1.447  16.347  1.3906 -0.1830 -2.0589
  105CHL1  H19C13999   6.080   1.567  16.468 -2.5420 -0.9831  0.9543
  105CHL1    C114000   6.281   1.380  16.374 -0.7317 -0.3611  0.0503
  105CHL1   H1A14001   6.201   1.303  16.367 -1.6192  0.5998 -0.4998
  105CHL1   H1B14002   6.368   1.341  16.316 -0.3015  1.4956 -0.6308
  105CHL1    C214003   6.335   1.391  16.519 -0.9535 -0.5329 -0.7989
  105CHL1   H2A14004   6.402   1.306  16.545  0.8241  1.3577  1.2293
  105CHL1   H2B14005   6.255   1.388  16.596  1.8159  0.4674  2.3747
  105CHL1   C2014006   6.056   1.433  15.611  0.1263  0.0504 -0.5432
  105CHL1   H2014007   5.970   1.504  15.610  1.6082  1.9300 -0.0312
  105CHL1   C2114008   6.008   1.293  15.645 -0.5338 -0.0787 -1.5295
  105CHL1  H21A14009   5.945   1.245  15.567 -0.8044  0.3197 -1.5553
  105CHL1  H21B14010   5.960   1.281  15.744  2.0231 -1.2327 -0.3298
  105CHL1  H21C14011   6.101   1.235  15.664  0.6207  2.1713  0.1505
  105CHL1   C2214012   6.117   1.429  15.472  0.4271  0.6568  0.2206
  105CHL1  H22A14013   6.173   1.520  15.441  1.7959 -0.6840 -1.4223
  105CHL1  H22B14014   6.192   1.348  15.465 -0.7514 -0.5221  0.7822
  105CHL1   C2314015   6.009   1.418  15.359 -0.0660 -0.1256  0.4653
  105CHL1  H23A14016   5.963   1.318  15.369  0.3636 -0.6994 -2.3648
  105CHL1  H23B14017   5.931   1.494  15.382  0.9182  0.4268  2.1393
  105CHL1   C2414018   6.058   1.426  15.212  0.2871 -0.1909 -0.3644
  105CHL1  H24A14019   6.115   1.519  15.194  2.0284 -1.3737 -1.2319
  105CHL1  H24B14020   6.139   1.350  15.208 -0.6369 -1.1610 -1.6845
  105CHL1   C2514021   5.948   1.405  15.111  0.5086  0.0022  0.3570
  105CHL1   H2514022   5.870   1.336  15.151  1.1072 -0.7014  0.3371
  105CHL1   C2614023   5.871   1.540  15.096 -0.5403 -0.2663 -0.1486
  105CHL1  H26A14024   5.828   1.572  15.194 -1.3448  2.0139 -1.1665
  105CHL1  H26B14025   5.941   1.615  15.054  0.0608 -0.9220 -0.3349
  105CHL1  H26C14026   5.801   1.518  15.012  2.3821 -2.2243 -2.2351
  105CHL1   C2714027   5.997   1.346  14.982 -0.2939  0.0338 -0.4591
  105CHL1  H27A14028   6.036   1.244  15.001 -1.8198 -0.7020 -1.0898
  105CHL1  H27B14029   5.910   1.322  14.916  0.5335 -2.1248 -0.8477
  105CHL1  H27C14030   6.075   1.413  14.942  0.4052 -0.0862  0.6772
  106CHL1    C314031   2.717   1.291  16.297  0.3350 -0.8363  0.3817
  106CHL1    H314032   2.818   1.244  16.309  0.5688 -0.2548  0.7086
  106CHL1    O314033   2.656   1.301  16.425  0.1844 -0.3158 -0.7264
  106CHL1   H3'14034   2.709   1.363  16.476 -3.1606  1.4685  0.8819
  106CHL1    C414035   2.743   1.435  16.237  0.1839 -0.3775  0.5503
  106CHL1   H4A14036   2.644   1.483  16.223  0.0289  1.1280  5.0853
  106CHL1   H4B14037   2.790   1.491  16.321  0.4897  1.1388 -0.5857
  106CHL1    C514038   2.810   1.416  16.100  0.5473  0.4195  0.4941
  106CHL1    C614039   2.931   1.460  16.085 -0.7939  0.5898  0.4182
  106CHL1    H614040   2.973   1.520  16.167 -1.5134  1.2554  0.3111
  106CHL1    C714041   3.011   1.437  15.960  0.1262  0.4599 -0.1193
  106CHL1   H7A14042   3.073   1.526  15.938  0.1406  0.3852 -0.3801
  106CHL1   H7B14043   3.080   1.349  15.964  1.4024  1.4461  0.0442
  106CHL1    C814044   2.910   1.412  15.838 -0.4355 -0.1711  0.0040
  106CHL1    H814045   2.853   1.505  15.818 -0.6483  0.3232  2.5883
  106CHL1   C1414046   2.987   1.382  15.712 -0.3477  0.1385  0.0530
  106CHL1   H1414047   3.058   1.299  15.731 -0.5445 -0.6055 -2.2301
  106CHL1   C1514048   3.083   1.489  15.667 -0.5110  0.3308  0.9637
  106CHL1  H15A14049   3.030   1.587  15.674 -0.5317  0.3375  0.7086
  106CHL1  H15B14050   3.177   1.495  15.726  0.7006 -1.6872 -0.6174
  106CHL1   C1614051   3.126   1.446  15.525  0.2466 -0.0156 -0.6363
  106CHL1  H16A14052   3.122   1.532  15.455 -1.0782  0.1156 -0.4312
  106CHL1  H16B14053   3.226   1.400  15.531  0.7532  0.9313 -1.4649
  106CHL1   C1714054   3.016   1.339  15.485  0.5248 -0.1135  0.4654
  106CHL1   H1714055   3.070   1.243  15.497 -0.1806 -0.7846 -1.3112
  106CHL1   C1314056   2.902   1.360  15.583 -0.5653 -0.1007  0.0081
  106CHL1   C1814057   2.811   1.481  15.546  0.3029  0.6274 -0.5037
  106CHL1  H18A14058   2.761   1.522  15.635  0.0396 -0.7778  0.0245
  106CHL1  H18B14059   2.871   1.562  15.500  1.5606 -1.0495 -1.9648
  106CHL1  H18C14060   2.731   1.452  15.475 -0.3393 -0.3875  0.6033
  106CHL1   C1214061   2.813   1.237  15.620 -0.9036 -0.1743 -0.2492
  106CHL1  H12A14062   2.736   1.221  15.542 -2.9722  3.1962  0.8626
  106CHL1  H12B14063   2.871   1.143  15.633 -2.5573 -1.0023  1.5119
  106CHL1   C1114064   2.729   1.256  15.749  0.3999  0.4544  0.2441
  106CHL1  H11A14065   2.649   1.327  15.719 -1.3045 -2.0528 -1.4525
  106CHL1  H11B14066   2.678   1.161  15.775  1.2851 -0.0929  0.0109
  106CHL1    C914067   2.812   1.302  15.873  0.6207 -0.8962 -0.1368
  106CHL1    H914068   2.874   1.212  15.897  0.7409 -0.8699 -0.3413
  106CHL1   C1014069   2.725   1.332  15.997  0.5358 -0.2002  0.5445
  106CHL1   C1914070   2.606   1.421  15.952  0.0227 -0.8909 -0.2059
  106CHL1  H19A14071   2.643   1.513  15.902  1.8744 -0.8944  1.0552
  106CHL1  H19B14072   2.540   1.358  15.889 -0.0957 -2.3438  1.3152
  106CHL1  H19C14073   2.548   1.453  16.041 -0.1224 -0.6762 -0.3781
  106CHL1    C114074   2.678   1.195  16.066  0.5617  0.1735 -0.5461
  106CHL1   H1A14075   2.604   1.142  16.002 -0.3670 -0.1271  0.7422
  106CHL1   H1B14076   2.771   1.134  16.069  0.1896 -0.4047 -0.6481
  106CHL1    C214077   2.627   1.205  16.207  0.4028 -0.1688  0.2629
  106CHL1   H2A14078   2.613   1.102  16.247 -1.4425 -0.2993 -0.6099
  106CHL1   H2B14079   2.524   1.246  16.201  0.3510 -0.3936 -0.5076
  106CHL1   C2014080   2.982   1.339  15.334 -0.2290 -0.8825 -0.4708
  106CHL1   H2014081   2.931   1.436  15.313  1.4107 -0.3463 -2.2593
  106CHL1   C2114082   2.888   1.218  15.304 -0.2570 -0.1097 -0.0985
  106CHL1  H21A14083   2.926   1.132  15.364  1.3836  0.2089 -0.6183
  106CHL1  H21B14084   2.873   1.191  15.197  1.7600  0.3335 -0.5290
  106CHL1  H21C14085   2.791   1.252  15.345  0.3823  1.1602  0.4075
  106CHL1   C2214086   3.110   1.333  15.246  0.6914 -0.5793 -0.0531
  106CHL1  H22A14087   3.174   1.420  15.271  0.1227 -0.0206 -0.5047
  106CHL1  H22B14088   3.155   1.236  15.276  0.9654 -0.0211  1.4418
  106CHL1   C2314089   3.077   1.343  15.093 -0.0351  0.6129  0.0498
  106CHL1  H23A14090   3.026   1.255  15.049 -0.7535 -0.4363  2.7412
  106CHL1  H23B14091   3.013   1.432  15.074 -1.3238 -0.6114 -1.5759
  106CHL1   C2414092   3.214   1.345  15.029 -0.7012  0.1478 -0.0257
  106CHL1  H24A14093   3.274   1.431  15.067  0.5484 -0.5242 -0.4169
  106CHL1  H24B14094   3.266   1.249  15.049  1.0937  0.9193 -0.6950
  106CHL1   C2514095   3.233   1.366  14.874 -0.1053  0.2810  0.2509
  106CHL1   H2514096   3.161   1.292  14.834  2.1936 -2.0424  0.2259
  106CHL1   C2614097   3.187   1.510  14.839  0.1143  0.1755 -0.8849
  106CHL1  H26A14098   3.258   1.591  14.865  1.4894 -1.8485  2.2295
  106CHL1  H26B14099   3.169   1.506  14.729 -0.8837  1.8797 -0.8229
  106CHL1  H26C14100   3.088   1.533  14.884  0.3563  1.4305 -0.9587
  106CHL1   C2714101   3.371   1.323  14.829 -0.4391  0.2748  0.5568
  106CHL1  H27A14102   3.375   1.358  14.724 -1.2382 -0.6106  0.2208
  106CHL1  H27B14103   3.446   1.385  14.883  0.7795  0.7875 -1.6207
  106CHL1  H27C14104   3.391   1.214  14.833 -3.9081 -0.5445 -1.0957
  107CHL1    C314105   5.157   6.343  16.228  0.0891 -0.7355 -0.1303
  107CHL1    H314106   5.183   6.438  16.177 -0.3175 -1.3636 -1.5514
  107CHL1    O314107   5.215   6.365  16.361 -0.0566  0.0235  0.3218
  107CHL1   H3'14108   5.132   6.371  16.409  0.1597 -0.0660  0.7067
  107CHL1    C414109   5.005   6.325  16.238  0.1261  0.3061 -0.0848
  107CHL1   H4A14110   4.992   6.232  16.297  1.2041 -1.5519 -2.5977
  107CHL1   H4B14111   4.961   6.411  16.293  0.7036 -0.1097  1.0472
  107CHL1    C514112   4.939   6.305  16.101 -0.9129 -0.7836  0.3256
  107CHL1    C614113   4.836   6.374  16.048  0.4885 -0.3101 -0.1197
  107CHL1    H614114   4.789   6.459  16.100 -0.9391 -0.9194 -0.3851
  107CHL1    C714115   4.777   6.354  15.914 -0.2936  0.9699  0.7616
  107CHL1   H7A14116   4.666   6.354  15.913 -0.3468 -1.2305  1.1662
  107CHL1   H7B14117   4.820   6.428  15.842 -1.9444  1.2828  0.0628
  107CHL1    C814118   4.809   6.211  15.864 -0.0037 -0.1251  0.1912
  107CHL1    H814119   4.751   6.142  15.930  0.8768 -0.6067  0.4899
  107CHL1   C1414120   4.752   6.193  15.725 -0.0907 -0.2429 -0.3761
  107CHL1   H1414121   4.812   6.269  15.670  0.7707 -0.3949  0.3271
  107CHL1   C1514122   4.601   6.231  15.699 -0.3481  0.1982  0.4390
  107CHL1  H15A14123   4.542   6.186  15.782  0.2700  1.4937  1.6236
  107CHL1  H15B14124   4.593   6.342  15.695  1.1793  0.3095 -0.0202
  107CHL1   C1614125   4.569   6.162  15.567  0.4406  0.1763  0.5357
  107CHL1  H16A14126   4.479   6.099  15.581  0.5517  0.3161  2.0248
  107CHL1  H16B14127   4.534   6.234  15.491  1.8794 -0.0953 -0.4369
  107CHL1   C1714128   4.704   6.088  15.524  0.4379 -0.1219 -0.4549
  107CHL1   H1714129   4.765   6.157  15.462  1.5262 -0.7248 -0.0745
  107CHL1   C1314130   4.792   6.061  15.651  0.1270 -0.1923  0.0772
  107CHL1   C1814131   4.727   5.947  15.719 -0.2014  0.5936  0.0256
  107CHL1  H18A14132   4.618   5.962  15.739  0.0413  0.2227  1.8351
  107CHL1  H18B14133   4.751   5.852  15.668  1.2337  0.8114  0.2619
  107CHL1  H18C14134   4.765   5.927  15.821 -0.3168  0.4411  0.0395
  107CHL1   C1214135   4.941   6.047  15.643 -0.3868  0.4450  0.3854
  107CHL1  H12A14136   4.982   5.952  15.603 -1.3648  0.9307 -1.9260
  107CHL1  H12B14137   4.975   6.140  15.591 -3.6101  1.1697 -0.6697
  107CHL1   C1114138   5.006   6.057  15.786  0.2113  0.4527  0.0709
  107CHL1  H11A14139   4.971   5.963  15.835  1.5816 -0.0583  0.1084
  107CHL1  H11B14140   5.116   6.057  15.773  0.5338  0.7849  2.4188
  107CHL1    C914141   4.957   6.180  15.873 -0.1056  0.0172  0.2043
  107CHL1    H914142   5.012   6.263  15.823  0.5462 -0.5743 -0.0861
  107CHL1   C1014143   5.000   6.184  16.027  0.5971 -0.3603 -0.1794
  107CHL1   C1914144   4.965   6.048  16.091 -0.0172  0.7652 -0.6942
  107CHL1  H19A14145   4.985   6.046  16.201 -3.5556 -0.5760  0.0609
  107CHL1  H19B14146   4.859   6.017  16.078  0.6277 -2.4797  0.6885
  107CHL1  H19C14147   5.036   5.975  16.047 -0.1380  0.1003  0.1777
  107CHL1    C114148   5.155   6.206  16.018 -0.1368  0.1378 -0.4854
  107CHL1   H1A14149   5.202   6.120  15.967  1.3287 -0.0928  1.1819
  107CHL1   H1B14150   5.179   6.293  15.953  2.4909  0.6739  1.0321
  107CHL1    C214151   5.215   6.231  16.158 -0.5260  1.2367  0.1791
  107CHL1   H2A14152   5.326   6.240  16.158 -0.3324 -0.5044 -1.1500
  107CHL1   H2B14153   5.202   6.140  16.220  0.6876  1.9439  1.5363
  107CHL1   C2014154   4.674   5.972  15.435 -0.3012 -0.2906  0.3783
  107CHL1   H2014155   4.608   5.894  15.478  0.2129 -2.2479 -2.0887
  107CHL1   C2114156   4.809   5.907  15.388 -0.3133 -0.0010  0.1148
  107CHL1  H21A14157   4.788   5.835  15.306 -3.4261  1.7743 -0.8414
  107CHL1  H21B14158   4.856   5.846  15.467 -0.1981 -1.9894 -1.4321
  107CHL1  H21C14159   4.876   5.990  15.356 -1.2511  0.8007  0.1514
  107CHL1   C2214160   4.598   6.019  15.302 -0.2011  0.7598  0.1083
  107CHL1  H22A14161   4.506   6.075  15.330  0.4087  1.5411  0.5753
  107CHL1  H22B14162   4.672   6.082  15.249  2.7372 -1.7718  0.8838
  107CHL1   C2314163   4.552   5.900  15.212  0.3154  0.4555 -0.1268
  107CHL1  H23A14164   4.647   5.863  15.168 -0.1493  1.8756 -2.5136
  107CHL1  H23B14165   4.497   5.826  15.273 -0.8485  0.4214 -1.1732
  107CHL1   C2414166   4.471   5.956  15.097 -0.0082 -0.3298  0.2038
  107CHL1  H24A14167   4.367   5.977  15.130  0.0226 -2.6016  1.9772
  107CHL1  H24B14168   4.519   6.052  15.068  0.7408 -1.1196 -1.2620
  107CHL1   C2514169   4.475   5.870  14.963 -0.0386 -0.4263  0.1524
  107CHL1   H2514170   4.418   5.777  14.981 -0.5308 -0.0046  0.8686
  107CHL1   C2614171   4.379   5.950  14.860 -0.5935  0.5188 -0.0416
  107CHL1  H26A14172   4.429   6.049  14.850  0.4342  0.2083  1.5452
  107CHL1  H26B14173   4.384   5.891  14.766  0.4639 -1.0639  0.9501
  107CHL1  H26C14174   4.278   5.953  14.906 -0.0327  0.0194  1.2706
  107CHL1   C2714175   4.617   5.850  14.906 -1.1033  0.5125  0.0291
  107CHL1  H27A14176   4.688   5.809  14.981 -0.5165 -0.2535 -0.9217
  107CHL1  H27B14177   4.626   5.772  14.828  2.9437  1.5153 -0.7515
  107CHL1  H27C14178   4.643   5.952  14.870  0.1942 -0.1540 -1.0328
  108CHL1    C314179   6.983   1.134  16.565  0.0752 -0.5360  0.3443
  108CHL1    H314180   7.057   1.198  16.512  0.2161 -1.3830 -0.5015
  108CHL1    O314181   7.029   1.141  16.701  0.3094  0.2638  0.2781
  108CHL1   H3'14182   6.977   1.073  16.744  1.2175  0.5503  1.8944
  108CHL1    C414183   6.842   1.185  16.553 -0.4442  0.5671  0.0186
  108CHL1   H4A14184   6.777   1.133  16.627 -0.1998  1.3307  0.7947
  108CHL1   H4B14185   6.850   1.292  16.580 -1.1376  0.6317 -0.0046
  108CHL1    C514186   6.787   1.177  16.413 -0.9829  0.5439  0.2589
  108CHL1    C614187   6.758   1.288  16.339  0.3927 -0.2304 -0.4478
  108CHL1    H614188   6.748   1.385  16.389 -0.9476 -0.9882  0.8540
  108CHL1    C714189   6.694   1.289  16.205  0.3626 -0.2548  0.6676
  108CHL1   H7A14190   6.601   1.348  16.196  0.4776 -0.3498 -2.5757
  108CHL1   H7B14191   6.771   1.337  16.140 -1.0410  1.8605  0.4785
  108CHL1    C814192   6.652   1.141  16.166 -0.0294 -0.2926  0.2383
  108CHL1    H814193   6.562   1.111  16.224 -0.2897 -2.0000 -0.9598
  108CHL1   C1414194   6.614   1.131  16.018 -0.2199  0.6377  0.3847
  108CHL1   H1414195   6.699   1.152  15.950  0.4183 -1.7571  0.3606
  108CHL1   C1514196   6.496   1.224  15.967 -0.0254 -0.0834 -0.0576
  108CHL1  H15A14197   6.406   1.214  16.032  0.0693  0.7971  0.2283
  108CHL1  H15B14198   6.526   1.331  15.966 -2.2969  0.5959 -0.0148
  108CHL1   C1614199   6.459   1.161  15.832 -0.1493  0.1190  0.2401
  108CHL1  H16A14200   6.351   1.153  15.809  0.0319 -1.1574 -0.3027
  108CHL1  H16B14201   6.514   1.232  15.766  0.9296 -0.2360  0.7257
  108CHL1   C1714202   6.534   1.024  15.826  0.1272  0.2278 -0.3191
  108CHL1   H1714203   6.629   1.032  15.768  0.3250 -1.3766 -0.2381
  108CHL1   C1314204   6.576   0.991  15.969  0.1742 -0.6871  0.5649
  108CHL1   C1814205   6.460   0.927  16.048 -0.1449 -0.4921 -0.1533
  108CHL1  H18A14206   6.466   0.922  16.159 -0.2837 -0.6695 -0.1536
  108CHL1  H18B14207   6.359   0.969  16.034 -0.3175 -1.2134 -1.2124
  108CHL1  H18C14208   6.451   0.822  16.013 -0.2058 -0.8266  0.8236
  108CHL1   C1214209   6.701   0.900  15.989  0.1612 -0.0444 -0.3843
  108CHL1  H12A14210   6.666   0.797  15.968 -0.4341 -0.2280  1.2887
  108CHL1  H12B14211   6.788   0.933  15.929  0.6198  0.6314  0.6150
  108CHL1   C1114212   6.751   0.898  16.131 -0.6395 -0.0567 -0.6151
  108CHL1  H11A14213   6.679   0.841  16.193 -2.2665 -0.3650 -2.6809
  108CHL1  H11B14214   6.846   0.840  16.137  1.0511  2.5577 -0.6044
  108CHL1    C914215   6.768   1.038  16.195 -0.4852 -0.1807  0.6301
  108CHL1    H914216   6.859   1.072  16.142 -0.7664 -1.5566 -0.8375
  108CHL1   C1014217   6.804   1.034  16.348 -0.1307  0.2807 -0.2755
  108CHL1   C1914218   6.707   0.958  16.440 -0.0775 -0.1093 -0.0496
  108CHL1  H19A14219   6.726   0.947  16.549 -0.9472 -1.0962  0.0188
  108CHL1  H19B14220   6.607   1.004  16.429 -0.3073 -0.6619 -0.2881
  108CHL1  H19C14221   6.694   0.853  16.405 -0.3591  0.2511 -1.0408
  108CHL1    C114222   6.943   0.978  16.368  0.1591  0.4869  0.4304
  108CHL1   H1A14223   6.963   0.876  16.329  0.7292  0.8410 -0.2228
  108CHL1   H1B14224   7.019   1.032  16.307  1.7917 -0.1204  1.8535
  108CHL1    C214225   6.989   0.988  16.513 -0.3950 -0.5278  0.3584
  108CHL1   H2A14226   7.097   0.960  16.510 -0.2456 -0.0845  1.4238
  108CHL1   H2B14227   6.934   0.919  16.580  0.7242 -1.8415 -0.0186
  108CHL1   C2014228   6.461   0.912  15.748  0.4633  0.4481 -0.7290
  108CHL1   H2014229   6.379   0.870  15.811  2.0904 -1.0911  0.4533
  108CHL1   C2114230   6.553   0.790  15.721  0.2443  0.1252 -0.8883
  108CHL1  H21A14231   6.562   0.726  15.811 -2.1866 -1.3459 -1.6060
  108CHL1  H21B14232   6.650   0.833  15.687  1.1324 -2.2766 -1.5846
  108CHL1  H21C14233   6.518   0.716  15.646 -0.9762  0.6921 -0.9119
  108CHL1   C2214234   6.405   0.974  15.616 -0.7466  0.3749 -0.9889
  108CHL1  H22A14235   6.368   0.890  15.553 -0.4127 -2.4452  2.2905
  108CHL1  H22B14236   6.318   1.038  15.638 -1.1988 -1.1748  2.3903
  108CHL1   C2314237   6.504   1.053  15.533  0.2540 -1.4583  0.1796
  108CHL1  H23A14238   6.529   1.145  15.590 -0.3618 -1.5716  0.6490
  108CHL1  H23B14239   6.596   0.994  15.508 -0.1991 -0.7441 -3.9095
  108CHL1   C2414240   6.436   1.096  15.398  0.1249 -0.2578  0.2947
  108CHL1  H24A14241   6.407   1.002  15.347 -0.2526  1.1135 -2.1852
  108CHL1  H24B14242   6.340   1.146  15.423 -0.9942 -1.6063 -1.0908
  108CHL1   C2514243   6.511   1.195  15.309 -0.1863 -1.0798  0.2842
  108CHL1   H2514244   6.529   1.287  15.368 -0.0879 -0.8105 -0.1588
  108CHL1   C2614245   6.646   1.149  15.260 -1.2244 -0.2102 -0.6388
  108CHL1  H26A14246   6.713   1.220  15.208  0.2729 -0.5389  0.7597
  108CHL1  H26B14247   6.701   1.110  15.348 -0.6787  0.9782 -0.4378
  108CHL1  H26C14248   6.643   1.059  15.194  2.2034 -0.5849 -0.4906
  108CHL1   C2714249   6.428   1.243  15.186  0.4213  0.1713  0.3310
  108CHL1  H27A14250   6.320   1.223  15.205  0.0204  0.9567 -1.0557
  108CHL1  H27B14251   6.440   1.350  15.161  2.3785 -0.4760 -1.9524
  108CHL1  H27C14252   6.470   1.191  15.097  0.6654  1.2038 -0.1708
  109CHL1    C314253   3.588   5.706  16.210 -0.4141  0.1596  0.2980
  109CHL1    H314254   3.671   5.661  16.152 -0.8444  1.6172 -1.5657
  109CHL1    O314255   3.564   5.639  16.329 -0.6054  0.1086  0.0414
  109CHL1   H3'14256   3.492   5.676  16.381 -0.9681 -0.7964  0.2075
  109CHL1    C414257   3.598   5.856  16.233  0.0645  0.2975  0.0597
  109CHL1   H4A14258   3.502   5.879  16.285 -1.0148 -1.7868 -0.8788
  109CHL1   H4B14259   3.679   5.890  16.301  0.0611  2.6466 -1.0110
  109CHL1    C514260   3.618   5.928  16.099 -0.7934 -0.1257 -0.9484
  109CHL1    C614261   3.728   6.004  16.066  0.5137  0.1448  0.4420
  109CHL1    H614262   3.799   6.018  16.149 -0.4998  0.3568  1.2981
  109CHL1    C714263   3.726   6.084  15.935 -0.2355  0.1623 -0.3426
  109CHL1   H7A14264   3.766   6.186  15.953 -0.6397 -0.2606  4.5087
  109CHL1   H7B14265   3.794   6.032  15.864  0.9587  1.0011  0.1468
  109CHL1    C814266   3.587   6.102  15.875  0.2611 -0.2767  0.1421
  109CHL1    H814267   3.522   6.173  15.931 -0.2997  0.6690 -1.6187
  109CHL1   C1414268   3.601   6.163  15.732 -0.0281 -0.0945 -0.5858
  109CHL1   H1414269   3.659   6.086  15.676  0.2849  0.2956 -0.8031
  109CHL1   C1514270   3.684   6.293  15.730 -0.0146 -0.5498 -0.5680
  109CHL1  H15A14271   3.639   6.352  15.812  0.1326 -1.0570 -0.1176
  109CHL1  H15B14272   3.795   6.284  15.737  0.1941  1.5099 -0.8138
  109CHL1   C1614273   3.646   6.342  15.587 -0.5933  0.1527 -0.3574
  109CHL1  H16A14274   3.617   6.447  15.607  2.4222  0.8722  0.8246
  109CHL1  H16B14275   3.732   6.349  15.517 -0.6476 -0.5254 -0.5033
  109CHL1   C1714276   3.525   6.256  15.538 -0.0863 -0.4517  0.2473
  109CHL1   H1714277   3.566   6.176  15.472  1.1154  0.7679 -0.5337
  109CHL1   C1314278   3.472   6.186  15.662  0.1093 -0.2999  0.2384
  109CHL1   C1814279   3.382   6.284  15.740  0.2393  0.2325  1.0177
  109CHL1  H18A14280   3.301   6.323  15.675  0.6382  2.7826  1.9361
  109CHL1  H18B14281   3.336   6.226  15.823  0.4595 -1.0950  0.2438
  109CHL1  H18C14282   3.432   6.378  15.774  0.8210  1.3447 -2.5004
  109CHL1   C1214283   3.413   6.046  15.650 -0.0595  0.3107 -0.1055
  109CHL1  H12A14284   3.320   6.047  15.589 -0.9939 -2.8571  1.0891
  109CHL1  H12B14285   3.484   5.983  15.591 -0.0864 -0.0218  0.2184
  109CHL1   C1114286   3.388   5.976  15.780  0.0214 -0.0838  0.7406
  109CHL1  H11A14287   3.299   6.024  15.827 -0.6288 -0.4078 -0.1349
  109CHL1  H11B14288   3.366   5.867  15.767  1.1434 -0.5057  2.1172
  109CHL1    C914289   3.517   5.969  15.865  0.0653 -0.6614 -0.1559
  109CHL1    H914290   3.588   5.903  15.810  2.3307 -0.1159  1.9356
  109CHL1   C1014291   3.494   5.906  16.003  0.4736 -0.3251 -0.1525
  109CHL1   C1914292   3.374   5.976  16.069  0.2161 -1.0658 -0.4219
  109CHL1  H19A14293   3.276   5.973  16.018 -0.5889 -1.0950  1.0618
  109CHL1  H19B14294   3.347   5.932  16.168 -1.0598  1.1899  0.2945
  109CHL1  H19C14295   3.402   6.081  16.091  2.3723 -1.8210  0.8221
  109CHL1    C114296   3.466   5.754  15.993  0.6200  0.5757 -0.5496
  109CHL1   H1A14297   3.374   5.737  15.933 -0.5357 -0.3578  1.3565
  109CHL1   H1B14298   3.543   5.698  15.936 -0.6162 -0.8617 -0.9119
  109CHL1    C214299   3.457   5.679  16.125  0.1667 -0.4557 -0.3330
  109CHL1   H2A14300   3.451   5.568  16.117 -1.5911 -0.3495 -1.0305
  109CHL1   H2B14301   3.368   5.698  16.190  0.0232 -0.5106 -0.5112
  109CHL1   C2014302   3.421   6.330  15.453 -0.3980  0.4241  0.4622
  109CHL1   H2014303   3.374   6.413  15.510  0.6673  1.4037 -0.0443
  109CHL1   C2114304   3.325   6.232  15.395  0.1904  0.9172  0.3597
  109CHL1  H21A14305   3.250   6.218  15.476 -0.9905  0.8208 -0.7149
  109CHL1  H21B14306   3.371   6.135  15.366 -1.1787  0.4816 -0.4444
  109CHL1  H21C14307   3.268   6.284  15.315 -0.6870 -0.3680  0.1133
  109CHL1   C2214308   3.499   6.405  15.333 -0.4964 -0.4642 -0.6913
  109CHL1  H22A14309   3.577   6.468  15.380 -1.6787  0.0056  0.7343
  109CHL1  H22B14310   3.536   6.328  15.262 -1.2045 -1.7768  0.3218
  109CHL1   C2314311   3.403   6.504  15.263 -0.3684  0.5954  0.1827
  109CHL1  H23A14312   3.335   6.438  15.204  2.4733 -0.6738 -1.9210
  109CHL1  H23B14313   3.353   6.560  15.345  0.1796 -0.1897  1.0886
  109CHL1   C2414314   3.496   6.595  15.176 -0.0126 -0.1739 -0.1021
  109CHL1  H24A14315   3.551   6.662  15.245  1.6469 -1.3059 -0.2660
  109CHL1  H24B14316   3.573   6.540  15.117 -0.0540  1.5317 -1.8556
  109CHL1   C2514317   3.427   6.673  15.068  0.0344  0.2721 -0.7338
  109CHL1   H2514318   3.374   6.614  14.990  0.9909  0.7334 -1.7681
  109CHL1   C2614319   3.333   6.767  15.135  0.2357 -0.0821 -0.3069
  109CHL1  H26A14320   3.376   6.818  15.223 -0.3125 -0.9082  0.4661
  109CHL1  H26B14321   3.288   6.847  15.073  2.8571  2.7216  1.1661
  109CHL1  H26C14322   3.256   6.702  15.183  2.5272 -2.8992 -0.1713
  109CHL1   C2714323   3.525   6.755  14.987  0.2870  0.8214 -0.4623
  109CHL1  H27A14324   3.592   6.821  15.047  0.2127  1.4691 -1.0891
  109CHL1  H27B14325   3.597   6.681  14.944  0.6612 -0.0277  1.4972
  109CHL1  H27C14326   3.467   6.811  14.912 -0.4434  0.1279 -0.4261
  110CHL1    C314327   1.664   5.142  16.244 -0.3939 -0.1175 -0.0149
  110CHL1    H314328   1.630   5.235  16.195 -0.7615 -1.6182 -2.8378
  110CHL1    O314329   1.582   5.102  16.355  0.3140 -0.0465  0.6547
  110CHL1   H3'14330   1.500   5.072  16.315  0.9601 -0.8020 -0.1286
  110CHL1    C414331   1.658   5.031  16.142  0.4944  0.3027 -0.5351
  110CHL1   H4A14332   1.690   4.941  16.198 -1.4613  0.0474  0.2353
  110CHL1   H4B14333   1.552   5.010  16.118 -0.0070  0.6817  1.1905
  110CHL1    C514334   1.742   5.075  16.019  0.1050  0.4315 -0.3724
  110CHL1    C614335   1.685   5.090  15.898 -0.2818 -0.1069  0.2645
  110CHL1    H614336   1.578   5.069  15.887 -0.4460  0.0532  1.4234
  110CHL1    C714337   1.765   5.132  15.780 -0.8556  0.0216  0.0600
  110CHL1   H7A14338   1.730   5.069  15.696  1.4581  1.4465 -2.1309
  110CHL1   H7B14339   1.735   5.236  15.755 -2.5339 -0.3842  0.2595
  110CHL1    C814340   1.919   5.099  15.803 -0.5591 -0.4299  0.4937
  110CHL1    H814341   1.940   4.990  15.801  0.1112 -0.2905 -1.4740
  110CHL1   C1414342   1.994   5.170  15.686  0.0960 -0.3552 -1.2879
  110CHL1   H1414343   1.972   5.278  15.699  2.4753  0.1462 -1.0792
  110CHL1   C1514344   1.961   5.134  15.542 -0.8833  0.0461  0.2717
  110CHL1  H15A14345   1.954   5.024  15.535  0.2292 -0.1201  1.4174
  110CHL1  H15B14346   1.868   5.177  15.498 -2.0844 -3.1871 -0.5913
  110CHL1   C1614347   2.078   5.198  15.466 -0.1889  0.4041  0.7131
  110CHL1  H16A14348   2.112   5.127  15.387 -1.7172  0.9038 -0.4289
  110CHL1  H16B14349   2.067   5.296  15.415 -0.5695 -0.4449 -0.9271
  110CHL1   C1714350   2.181   5.231  15.575 -0.3231  0.2101 -0.4033
  110CHL1   H1714351   2.170   5.338  15.605 -2.9508 -0.0344 -0.2301
  110CHL1   C1314352   2.142   5.155  15.692 -0.3070  0.2699 -0.1236
  110CHL1   C1814353   2.182   5.002  15.679  0.8745  0.7494 -0.2444
  110CHL1  H18A14354   2.287   4.997  15.716  0.0423  0.8395  2.3309
  110CHL1  H18B14355   2.119   4.930  15.736 -1.1751  1.6400 -1.2563
  110CHL1  H18C14356   2.166   4.969  15.574  0.9048  2.1047 -0.6910
  110CHL1   C1214357   2.194   5.206  15.829 -0.3955  0.0599  0.4796
  110CHL1  H12A14358   2.304   5.190  15.826  0.3820  4.0298  1.7283
  110CHL1  H12B14359   2.186   5.317  15.828  0.0308  0.0916 -0.2473
  110CHL1   C1114360   2.120   5.139  15.946  0.0210  0.0739 -0.7169
  110CHL1  H11A14361   2.155   5.034  15.941 -2.9913 -1.1421  1.2760
  110CHL1  H11B14362   2.157   5.178  16.043 -0.5955 -0.4429 -0.2723
  110CHL1    C914363   1.967   5.149  15.937 -0.0557 -0.0416 -0.0131
  110CHL1    H914364   1.945   5.257  15.931 -0.9340 -0.2919 -1.9084
  110CHL1   C1014365   1.893   5.091  16.055  0.0438  0.5882  0.4847
  110CHL1   C1914366   1.952   4.951  16.080  0.2009 -0.7372 -0.1490
  110CHL1  H19A14367   1.964   4.890  15.988 -0.1745 -3.3025  1.4130
  110CHL1  H19B14368   2.050   4.961  16.132 -0.5051  1.6473  0.8168
  110CHL1  H19C14369   1.880   4.894  16.142 -1.7171  0.0296 -1.5951
  110CHL1    C114370   1.910   5.180  16.176  0.0325  0.0028 -0.5706
  110CHL1   H1A14371   2.008   5.173  16.227 -0.5485  0.1748  0.5908
  110CHL1   H1B14372   1.900   5.285  16.141  0.6028  0.9235  1.8756
  110CHL1    C214373   1.809   5.150  16.289  0.2581 -0.2947 -0.2529
  110CHL1   H2A14374   1.816   5.219  16.376  1.5425 -2.6105  1.6033
  110CHL1   H2B14375   1.836   5.054  16.339 -1.7373  0.6233  2.9139
  110CHL1   C2014376   2.328   5.222  15.531 -0.2244  0.2555 -0.2655
  110CHL1   H2014377   2.392   5.172  15.607 -0.5140  1.9593  1.1499
  110CHL1   C2114378   2.398   5.361  15.530  0.7266  0.6205 -0.0298
  110CHL1  H21A14379   2.371   5.434  15.609 -0.5683 -0.0653  0.1905
  110CHL1  H21B14380   2.371   5.410  15.434  0.9762 -0.2036 -0.5388
  110CHL1  H21C14381   2.509   5.352  15.527  1.1147  4.0278  0.6481
  110CHL1   C2214382   2.366   5.143  15.400 -0.4078 -0.4315 -1.0874
  110CHL1  H22A14383   2.316   5.044  15.402  0.3529 -0.8771  2.5232
  110CHL1  H22B14384   2.329   5.205  15.315 -0.0027  0.3878 -0.6820
  110CHL1   C2314385   2.519   5.124  15.374 -0.0380 -0.4254 -0.3101
  110CHL1  H23A14386   2.587   5.211  15.375  2.3077 -2.1331 -0.9921
  110CHL1  H23B14387   2.561   5.063  15.456  0.6499 -0.2639 -0.5409
  110CHL1   C2414388   2.532   5.052  15.242 -0.2310  0.1120  0.4088
  110CHL1  H24A14389   2.475   4.959  15.223  1.0516 -0.5725 -0.2337
  110CHL1  H24B14390   2.497   5.128  15.169 -1.6902  0.1920  1.1576
  110CHL1   C2514391   2.683   5.028  15.199 -0.0180 -0.0255  0.3683
  110CHL1   H2514392   2.728   5.126  15.223  1.1992 -0.2467 -0.9058
  110CHL1   C2614393   2.748   4.921  15.280  0.1341 -0.0510 -0.5405
  110CHL1  H26A14394   2.856   4.904  15.258 -0.3426 -1.0381 -2.3275
  110CHL1  H26B14395   2.735   4.948  15.387 -1.7752 -0.6097 -0.5946
  110CHL1  H26C14396   2.704   4.821  15.260  1.1438 -0.7418  0.5393
  110CHL1   C2714397   2.706   5.009  15.041 -0.1144  0.3274 -0.5083
  110CHL1  H27A14398   2.643   4.929  14.997  1.0890 -0.9464  0.0344
  110CHL1  H27B14399   2.692   5.103  14.982  3.2464  1.2873  0.0274
  110CHL1  H27C14400   2.810   4.979  15.018  0.3219  0.7911  0.7927
  111CHL1    C314401   3.339   0.277  16.089  0.0538  0.4058  0.3753
  111CHL1    H314402   3.369   0.175  16.059  1.1473  0.7742  0.1683
  111CHL1    O314403   3.340   0.289  16.230 -0.1443  0.0967  0.0100
  111CHL1   H3'14404   3.274   0.354  16.255 -0.7835 -0.4377 -0.2555
  111CHL1    C414405   3.436   0.379  16.023 -0.2904  0.2822  0.2122
  111CHL1   H4A14406   3.400   0.483  16.041 -0.4891  0.3951 -0.7946
  111CHL1   H4B14407   3.533   0.378  16.079 -0.3841  1.3717  0.4229
  111CHL1    C514408   3.438   0.373  15.871 -1.0521  0.8185  1.0026
  111CHL1    C614409   3.550   0.342  15.801 -0.0745 -0.6418 -0.1306
  111CHL1    H614410   3.644   0.333  15.858 -1.3762  1.3327  2.5174
  111CHL1    C714411   3.552   0.323  15.654  0.5209  0.3396  0.6779
  111CHL1   H7A14412   3.646   0.371  15.620 -0.2163  0.7058 -0.9334
  111CHL1   H7B14413   3.568   0.216  15.629  0.5221  0.5733 -0.3487
  111CHL1    C814414   3.427   0.377  15.590 -0.1282 -0.2903  0.5902
  111CHL1    H814415   3.425   0.488  15.595  0.6507 -0.0691 -2.2487
  111CHL1   C1414416   3.419   0.332  15.446  0.1879  0.4945 -0.7145
  111CHL1   H1414417   3.428   0.221  15.453 -1.2452  0.3796 -0.4037
  111CHL1   C1514418   3.546   0.371  15.366  0.2664 -0.2823 -0.0599
  111CHL1  H15A14419   3.581   0.474  15.387  2.2515 -0.8688 -0.3136
  111CHL1  H15B14420   3.632   0.302  15.380  1.1171  1.0969  1.9024
  111CHL1   C1614421   3.496   0.357  15.225 -0.2541 -0.1013 -0.3600
  111CHL1  H16A14422   3.530   0.443  15.163 -2.0082 -0.3428 -1.7302
  111CHL1  H16B14423   3.534   0.268  15.170 -1.2533  0.4656 -2.0638
  111CHL1   C1714424   3.338   0.349  15.228 -0.0882 -0.1351  0.3745
  111CHL1   H1714425   3.317   0.241  15.212  1.4410 -0.1199 -2.3560
  111CHL1   C1314426   3.291   0.379  15.371 -0.4739  0.3254 -0.4311
  111CHL1   C1814427   3.256   0.533  15.376  0.4848  0.2332 -0.3101
  111CHL1  H18A14428   3.338   0.589  15.326  0.9729 -1.1733 -1.1467
  111CHL1  H18B14429   3.159   0.551  15.324  0.3678 -1.1328 -0.5895
  111CHL1  H18C14430   3.252   0.574  15.479  1.1331 -0.5356  0.0311
  111CHL1   C1214431   3.175   0.294  15.419  0.4055  0.6405 -0.2490
  111CHL1  H12A14432   3.076   0.306  15.371  0.0982 -0.2862  0.1328
  111CHL1  H12B14433   3.209   0.188  15.413  1.8031  1.0269  0.3479
  111CHL1   C1114434   3.169   0.330  15.573 -0.6040 -0.1498  0.0810
  111CHL1  H11A14435   3.115   0.427  15.580 -0.8152 -0.3034  0.6886
  111CHL1  H11B14436   3.101   0.260  15.626  0.7828 -1.2766  0.4241
  111CHL1    C914437   3.304   0.322  15.657  0.2893 -0.5854 -0.1246
  111CHL1    H914438   3.321   0.215  15.682  1.5317 -0.1753  0.8742
  111CHL1   C1014439   3.300   0.381  15.805  0.4148 -0.4037  0.6382
  111CHL1   C1914440   3.245   0.522  15.806  0.3323 -0.0654 -0.8059
  111CHL1  H19A14441   3.269   0.577  15.713  0.5172 -0.2886 -0.8927
  111CHL1  H19B14442   3.135   0.532  15.820  0.5754 -0.1049  1.4474
  111CHL1  H19C14443   3.283   0.576  15.895  1.3763 -0.8151 -0.7800
  111CHL1    C114444   3.201   0.289  15.886 -0.0716  0.0151  0.1714
  111CHL1   H1A14445   3.101   0.310  15.842 -0.0940 -2.4151 -1.0856
  111CHL1   H1B14446   3.217   0.181  15.866 -3.4449 -0.7970  1.1411
  111CHL1    C214447   3.199   0.301  16.039  0.0366  0.6771 -0.0068
  111CHL1   H2A14448   3.133   0.229  16.092 -0.2500  0.7357 -0.2850
  111CHL1   H2B14449   3.168   0.403  16.072  0.5213  0.5333  0.9264
  111CHL1   C2014450   3.269   0.422  15.114 -0.0897  0.3855 -0.0989
  111CHL1   H2014451   3.262   0.532  15.130  1.3869  0.1442  2.6496
  111CHL1   C2114452   3.119   0.369  15.106  0.0368  0.1216 -0.1256
  111CHL1  H21A14453   3.063   0.416  15.022 -0.7540  1.0810  0.9040
  111CHL1  H21B14454   3.063   0.406  15.195  0.4401  1.3350 -0.3499
  111CHL1  H21C14455   3.116   0.258  15.101 -1.3739  0.1979 -2.9871
  111CHL1   C2214456   3.328   0.388  14.980  0.1279 -0.2637 -0.1202
  111CHL1  H22A14457   3.439   0.393  14.976  0.0941  0.8392  0.1572
  111CHL1  H22B14458   3.305   0.282  14.955  0.7077 -0.2026 -0.9461
  111CHL1   C2314459   3.291   0.484  14.870  0.4809  0.7219  0.0023
  111CHL1  H23A14460   3.180   0.475  14.864  0.5632  0.3594 -1.3781
  111CHL1  H23B14461   3.321   0.583  14.909  0.2877  0.2718  1.3466
  111CHL1   C2414462   3.348   0.457  14.731  0.3917 -0.0891 -0.7119
  111CHL1  H24A14463   3.315   0.533  14.656 -2.1744 -1.0042 -0.6050
  111CHL1  H24B14464   3.457   0.454  14.752  0.3065  0.9939 -0.0957
  111CHL1   C2514465   3.327   0.311  14.683  0.0516 -0.2328  0.2400
  111CHL1   H2514466   3.375   0.239  14.753  1.3109 -0.2202 -0.5850
  111CHL1   C2614467   3.179   0.274  14.666  0.3280 -0.1788 -0.4616
  111CHL1  H26A14468   3.125   0.334  14.589  1.1132  1.5861  0.3212
  111CHL1  H26B14469   3.179   0.166  14.640  2.7195 -0.3468  0.0279
  111CHL1  H26C14470   3.123   0.281  14.762 -1.1139  1.8082 -1.3721
  111CHL1   C2714471   3.395   0.295  14.547  0.1399 -0.1598  0.3070
  111CHL1  H27A14472   3.332   0.340  14.467  0.6114 -0.0987 -0.0323
  111CHL1  H27B14473   3.495   0.343  14.550  0.4751 -0.6873 -1.2847
  111CHL1  H27C14474   3.399   0.186  14.524 -1.6542 -0.3899  0.9027
  112CHL1    C314475   4.767   0.542  16.510 -0.4163  0.7235 -0.2715
  112CHL1    H314476   4.815   0.464  16.448 -2.4921 -1.2838  0.5318
  112CHL1    O314477   4.815   0.516  16.640  0.3608 -0.0006  0.4639
  112CHL1   H3'14478   4.751   0.535  16.709 -0.2837  0.4906 -0.2624
  112CHL1    C414479   4.804   0.681  16.471  0.0662 -0.6310 -0.0717
  112CHL1   H4A14480   4.744   0.749  16.536 -0.1045  0.1852 -1.0505
  112CHL1   H4B14481   4.911   0.705  16.485  0.0741 -0.2376 -0.7714
  112CHL1    C514482   4.755   0.710  16.329 -0.1006  0.1524  0.0754
  112CHL1    C614483   4.848   0.754  16.239 -0.1478  0.4308  0.2162
  112CHL1    H614484   4.952   0.773  16.267 -0.3285  1.1787  0.3889
  112CHL1    C714485   4.810   0.790  16.099  0.2331 -0.6101  0.0588
  112CHL1   H7A14486   4.842   0.896  16.086  2.1398 -1.2228 -0.4625
  112CHL1   H7B14487   4.866   0.723  16.031  1.1210  0.0166  0.1560
  112CHL1    C814488   4.651   0.794  16.070 -0.2664  0.1349  0.5772
  112CHL1    H814489   4.625   0.893  16.112  0.0784  1.0679 -1.2801
  112CHL1   C1414490   4.621   0.788  15.920 -0.1661  0.1645  0.3865
  112CHL1   H1414491   4.648   0.684  15.891  0.6165  0.3687  0.3678
  112CHL1   C1514492   4.699   0.884  15.828  1.0695 -1.5565 -0.4436
  112CHL1  H15A14493   4.706   0.984  15.877  0.2472 -1.9647  0.5336
  112CHL1  H15B14494   4.803   0.849  15.807  1.0574 -1.1312 -1.2486
  112CHL1   C1614495   4.614   0.879  15.698 -0.1773  0.2165 -0.6548
  112CHL1  H16A14496   4.601   0.982  15.657  2.3913 -0.0215 -2.3108
  112CHL1  H16B14497   4.674   0.820  15.626 -1.4759  1.0405 -2.4700
  112CHL1   C1714498   4.481   0.808  15.730  0.3738  0.7762 -0.9740
  112CHL1   H1714499   4.489   0.700  15.703 -0.6889  0.5731 -0.5264
  112CHL1   C1314500   4.472   0.805  15.889 -0.2603 -0.0821 -0.4998
  112CHL1   C1814501   4.419   0.942  15.942  0.3460 -0.3603 -0.1410
  112CHL1  H18A14502   4.309   0.941  15.924  0.2939 -1.0105  0.1916
  112CHL1  H18B14503   4.435   0.958  16.051  1.7888  1.9937 -0.6329
  112CHL1  H18C14504   4.451   1.030  15.883 -4.7880  1.1752 -1.1834
  112CHL1   C1214505   4.395   0.685  15.954 -0.4604  0.5282  0.5313
  112CHL1  H12A14506   4.286   0.687  15.936  0.1153  1.0432 -4.2351
  112CHL1  H12B14507   4.432   0.590  15.910  1.5924  0.4046  2.3638
  112CHL1   C1114508   4.423   0.673  16.098  0.4918  0.1121 -0.1132
  112CHL1  H11A14509   4.358   0.739  16.158 -1.5440 -1.2721 -0.6807
  112CHL1  H11B14510   4.387   0.573  16.133  0.5066 -0.1198 -0.7505
  112CHL1    C914511   4.573   0.686  16.147 -0.6793  0.4543 -0.2149
  112CHL1    H914512   4.621   0.593  16.110 -0.4717  0.4682  0.0207
  112CHL1   C1014513   4.609   0.680  16.294  0.4980 -0.0764 -0.2542
  112CHL1   C1914514   4.519   0.776  16.375  0.0892  0.2078 -0.0503
  112CHL1  H19A14515   4.535   0.880  16.339 -1.2529 -0.0474 -1.4713
  112CHL1  H19B14516   4.414   0.749  16.350  0.7494 -0.4474 -2.3539
  112CHL1  H19C14517   4.534   0.769  16.485  3.0582 -1.5825 -0.4556
  112CHL1    C114518   4.568   0.539  16.355  0.1697  0.0268  0.1056
  112CHL1   H1A14519   4.460   0.517  16.341 -0.0208  0.0066  1.4687
  112CHL1   H1B14520   4.608   0.464  16.282 -0.4611 -1.2111  1.0078
  112CHL1    C214521   4.618   0.519  16.497 -0.9173 -0.0943  0.1218
  112CHL1   H2A14522   4.595   0.414  16.525  1.4280 -1.8893 -3.7031
  112CHL1   H2B14523   4.569   0.585  16.571 -0.4972 -1.1491  1.3753
  112CHL1   C2014524   4.357   0.857  15.663  0.1885 -0.6231  0.7519
  112CHL1   H2014525   4.326   0.956  15.703 -1.4009 -0.0245 -1.7046
  112CHL1   C2114526   4.237   0.770  15.696 -0.3498 -0.0250 -0.3392
  112CHL1  H21A14527   4.266   0.663  15.690 -0.7148 -0.0434 -2.4904
  112CHL1  H21B14528   4.170   0.792  15.611  0.2478 -1.4809 -1.2103
  112CHL1  H21C14529   4.190   0.797  15.793  0.5047  0.4929 -0.0505
  112CHL1   C2214530   4.368   0.885  15.507  0.3604  0.4355  0.4575
  112CHL1  H22A14531   4.267   0.921  15.479  0.7790  1.5315  0.3128
  112CHL1  H22B14532   4.451   0.955  15.484  1.5415 -0.6774  1.2346
  112CHL1   C2314533   4.389   0.760  15.422  0.9294  0.0789  0.9171
  112CHL1  H23A14534   4.485   0.708  15.440  0.8111 -0.0127  1.2773
  112CHL1  H23B14535   4.303   0.691  15.439  1.8019 -2.5198 -3.4584
  112CHL1   C2414536   4.381   0.795  15.269  0.3670 -0.1733  0.4384
  112CHL1  H24A14537   4.291   0.853  15.240  1.1834 -0.1611 -2.4472
  112CHL1  H24B14538   4.477   0.849  15.254 -0.2506  1.3611  1.8088
  112CHL1   C2514539   4.390   0.678  15.172 -0.1465 -0.8623  0.1292
  112CHL1   H2514540   4.304   0.611  15.193 -1.2913  0.2453 -0.8227
  112CHL1   C2614541   4.374   0.726  15.028 -0.0669 -0.4903  0.7353
  112CHL1  H26A14542   4.465   0.778  14.990  1.9345 -2.7991  2.0383
  112CHL1  H26B14543   4.369   0.641  14.956 -2.0834  1.0165 -1.0208
  112CHL1  H26C14544   4.283   0.788  15.020 -0.2138 -0.8310 -0.4079
  112CHL1   C2714545   4.519   0.590  15.187 -0.2340 -0.4930  0.6761
  112CHL1  H27A14546   4.601   0.665  15.179  0.1717 -0.7481  2.0701
  112CHL1  H27B14547   4.521   0.540  15.287  0.9749 -1.2638  0.2867
  112CHL1  H27C14548   4.531   0.525  15.098  0.0388 -0.9708  1.0541
  113CHL1    C314549   1.174   4.960  15.723 -0.3753  0.1096  0.8247
  113CHL1    H314550   1.174   5.066  15.689 -1.5324 -0.5822 -1.5517
  113CHL1    O314551   1.085   4.957  15.828  1.0535  0.3239 -0.1767
  113CHL1   H3'14552   1.092   4.867  15.860 -0.9570  0.1923 -0.0029
  113CHL1    C414553   1.119   4.874  15.606  0.3446 -0.1092  0.3419
  113CHL1   H4A14554   1.112   4.772  15.648 -0.1158 -0.3955 -0.4062
  113CHL1   H4B14555   1.016   4.916  15.599 -1.4390 -3.7256  2.3149
  113CHL1    C514556   1.204   4.883  15.484  0.3446 -0.8429  0.6159
  113CHL1    C614557   1.152   4.912  15.357 -0.1218  1.0128 -0.0597
  113CHL1    H614558   1.047   4.941  15.340  0.1413  1.3795 -1.0948
  113CHL1    C714559   1.241   4.919  15.231  0.3950  0.0025 -0.2009
  113CHL1   H7A14560   1.194   4.865  15.146 -1.8843 -1.2856  1.7572
  113CHL1   H7B14561   1.260   5.026  15.206  0.4206  0.0044 -0.1725
  113CHL1    C814562   1.383   4.856  15.258  0.9749 -0.1194 -0.8399
  113CHL1    H814563   1.363   4.747  15.247 -1.6613  0.2972 -0.7065
  113CHL1   C1414564   1.482   4.893  15.148  0.8759 -0.0327 -0.1474
  113CHL1   H1414565   1.490   5.002  15.170 -1.0385 -0.2918  2.3603
  113CHL1   C1514566   1.436   4.866  15.004 -0.1567 -0.2769  0.1056
  113CHL1  H15A14567   1.371   4.777  14.990  1.8173 -1.9454  1.0739
  113CHL1  H15B14568   1.376   4.950  14.963  2.0862  1.2435 -0.2905
  113CHL1   C1614569   1.568   4.854  14.924  0.0297 -0.3668 -0.0742
  113CHL1  H16A14570   1.569   4.753  14.877 -2.5327 -1.2061  1.4627
  113CHL1  H16B14571   1.573   4.935  14.848 -1.1139  0.0669  0.2968
  113CHL1   C1714572   1.683   4.869  15.023 -0.1720  0.1245  0.0466
  113CHL1   H1714573   1.705   4.978  15.033  1.9759 -0.2284 -0.3137
  113CHL1   C1314574   1.621   4.826  15.158  0.3589  0.4052  0.3720
  113CHL1   C1814575   1.610   4.672  15.162 -0.2318  0.2300  0.4058
  113CHL1  H18A14576   1.553   4.634  15.250  0.7108  1.2700  1.5017
  113CHL1  H18B14577   1.560   4.626  15.074 -0.5595 -2.2646  1.7936
  113CHL1  H18C14578   1.711   4.626  15.176 -0.9462 -2.1575 -1.5403
  113CHL1   C1214579   1.687   4.879  15.287  0.5773 -0.1889 -0.1364
  113CHL1  H12A14580   1.779   4.828  15.321 -0.8809 -2.2074  0.9610
  113CHL1  H12B14581   1.709   4.988  15.276  1.8105 -0.4583 -0.4700
  113CHL1   C1114582   1.589   4.850  15.407  0.2461 -0.1686  0.9096
  113CHL1  H11A14583   1.594   4.740  15.420  0.5984 -0.3873 -0.8481
  113CHL1  H11B14584   1.631   4.894  15.500 -0.1808  0.5812  0.7540
  113CHL1    C914585   1.445   4.901  15.400 -0.0905  1.0759 -0.2898
  113CHL1    H914586   1.444   5.012  15.396 -2.6680  1.1601  0.8071
  113CHL1   C1014587   1.351   4.850  15.514 -0.1900 -0.9581  0.0168
  113CHL1   C1914588   1.372   4.699  15.534 -0.4337 -0.3612 -0.6868
  113CHL1  H19A14589   1.371   4.641  15.440 -0.5263 -0.4991 -0.6003
  113CHL1  H19B14590   1.466   4.683  15.593 -1.7872  0.7998  1.9611
  113CHL1  H19C14591   1.292   4.666  15.603 -1.0934  3.6490  0.7664
  113CHL1    C114592   1.402   4.930  15.643  0.0023 -0.0150  0.0864
  113CHL1   H1A14593   1.507   4.903  15.667  1.2601  0.3582 -4.1099
  113CHL1   H1B14594   1.417   5.037  15.618 -1.4710  0.2508  0.2359
  113CHL1    C214595   1.316   4.918  15.770 -0.0167 -0.6919  0.1475
  113CHL1   H2A14596   1.369   4.995  15.829  0.1135  0.5854 -1.5593
  113CHL1   H2B14597   1.325   4.816  15.814 -1.1329 -0.9488 -0.1694
  113CHL1   C2014598   1.819   4.810  14.970  0.6934  0.4224  0.1786
  113CHL1   H2014599   1.814   4.699  14.967  0.4503  0.4526 -0.7696
  113CHL1   C2114600   1.936   4.845  15.069 -0.0607 -0.4136 -0.5298
  113CHL1  H21A14601   1.924   4.949  15.105  0.8070 -0.2260 -0.7646
  113CHL1  H21B14602   2.042   4.853  15.039  0.6682  0.7106  2.0586
  113CHL1  H21C14603   1.915   4.779  15.157 -1.2074  0.4935 -0.0871
  113CHL1   C2214604   1.864   4.853  14.825  0.0054  0.0078  0.3341
  113CHL1  H22A14605   1.961   4.807  14.798 -0.7350 -0.4675 -1.6935
  113CHL1  H22B14606   1.794   4.815  14.748  1.6717  1.2458 -1.9067
  113CHL1   C2314607   1.883   5.004  14.810  0.2196 -0.0253  0.6607
  113CHL1  H23A14608   1.792   5.058  14.844  0.8750  0.4775  1.7097
  113CHL1  H23B14609   1.962   5.040  14.880  0.4698 -0.6714  0.7122
  113CHL1   C2414610   1.929   5.051  14.675  0.2659  0.0614  0.1789
  113CHL1  H24A14611   2.019   4.998  14.638 -0.7201 -1.0157 -0.7391
  113CHL1  H24B14612   1.851   5.045  14.596 -1.1324  0.5617  1.4695
  113CHL1   C2514613   1.972   5.196  14.669  0.1665  0.1048 -0.2630
  113CHL1   H2514614   2.031   5.205  14.762  1.6771 -0.9016 -1.1023
  113CHL1   C2614615   2.045   5.244  14.543 -0.0176  0.0960 -0.3000
  113CHL1  H26A14616   1.980   5.260  14.455  0.8717  2.6869 -0.5779
  113CHL1  H26B14617   2.082   5.343  14.577  1.0564 -0.5882  0.6256
  113CHL1  H26C14618   2.128   5.175  14.515  0.1562  0.1481  0.0762
  113CHL1   C2714619   1.855   5.294  14.696  0.2510  1.1660  0.0888
  113CHL1  H27A14620   1.813   5.278  14.798 -0.5528  0.2334 -0.3772
  113CHL1  H27B14621   1.880   5.402  14.687  2.5376  0.7010  0.1751
  113CHL1  H27C14622   1.780   5.273  14.618 -1.3713 -0.7785  2.0337
  114CHL1    C314623   5.708   7.394  16.534 -0.5981  0.1248 -0.7532
  114CHL1    H314624   5.705   7.502  16.509 -1.7232  0.6847  1.5192
  114CHL1    O314625   5.728   7.381  16.673 -0.1128  0.5222  0.2360
  114CHL1   H3'14626   5.720   7.288  16.695  2.0006  0.6048  1.5996
  114CHL1    C414627   5.577   7.309  16.498  0.1691  0.2282  0.4960
  114CHL1   H4A14628   5.589   7.208  16.543 -0.3105 -0.9724 -1.9033
  114CHL1   H4B14629   5.492   7.358  16.549 -0.2963 -1.6130  1.5710
  114CHL1    C514630   5.562   7.300  16.348 -0.2289  0.4579 -0.8424
  114CHL1    C614631   5.452   7.346  16.286  0.0242  0.2634  0.7440
  114CHL1    H614632   5.377   7.398  16.347 -0.9206 -1.3563  1.0276
  114CHL1    C714633   5.434   7.327  16.141 -0.0879  0.3162  1.0370
  114CHL1   H7A14634   5.329   7.301  16.115  1.1807 -2.8034 -1.7190
  114CHL1   H7B14635   5.451   7.426  16.093  1.0887  0.4505  1.6965
  114CHL1    C814636   5.525   7.216  16.074  0.1124 -0.1763 -0.6734
  114CHL1    H814637   5.491   7.115  16.105 -1.3921  0.4477 -0.2196
  114CHL1   C1414638   5.525   7.216  15.924  0.0172 -0.2701 -0.3061
  114CHL1   H1414639   5.575   7.312  15.899  2.5060 -1.4465 -0.1670
  114CHL1   C1514640   5.394   7.218  15.856 -0.0902 -0.7185  0.1035
  114CHL1  H15A14641   5.321   7.140  15.886  1.7012 -3.1040 -1.2872
  114CHL1  H15B14642   5.355   7.322  15.863  0.5172 -0.3664 -1.3947
  114CHL1   C1614643   5.428   7.192  15.706 -0.3185 -0.3017  0.3454
  114CHL1  H16A14644   5.384   7.099  15.666  2.0419 -1.6444  0.6569
  114CHL1  H16B14645   5.398   7.284  15.652 -0.7484  0.1175  1.2760
  114CHL1   C1714646   5.585   7.162  15.701  1.0609  0.0761 -0.0790
  114CHL1   H1714647   5.626   7.263  15.676  0.9096  0.3110  0.6026
  114CHL1   C1314648   5.621   7.127  15.845 -0.6040  0.3743  0.3962
  114CHL1   C1814649   5.590   6.974  15.858 -0.4679  0.4950 -0.6371
  114CHL1  H18A14650   5.488   6.944  15.825 -0.8383  1.0338 -0.0232
  114CHL1  H18B14651   5.667   6.915  15.805 -0.7971  0.9355 -1.6195
  114CHL1  H18C14652   5.606   6.950  15.966  1.9054  0.4644 -0.9365
  114CHL1   C1214653   5.770   7.149  15.892  0.0230 -0.1118 -0.3563
  114CHL1  H12A14654   5.828   7.067  15.845  1.4110  0.9864 -0.6591
  114CHL1  H12B14655   5.804   7.241  15.839 -1.2591 -0.1798 -1.3540
  114CHL1   C1114656   5.768   7.144  16.045  0.0578  1.0169  0.1274
  114CHL1  H11A14657   5.749   7.038  16.072  0.9321  1.2406  1.7562
  114CHL1  H11B14658   5.867   7.177  16.082 -0.3809  0.8881  1.4529
  114CHL1    C914659   5.666   7.234  16.124 -0.8412 -0.4992 -0.7157
  114CHL1    H914660   5.675   7.340  16.090  0.2996 -0.6883 -1.0366
  114CHL1   C1014661   5.681   7.229  16.277  0.0098  0.3026 -0.5786
  114CHL1   C1914662   5.698   7.082  16.321  0.3850 -0.5814  0.1277
  114CHL1  H19A14663   5.705   7.067  16.431  1.8010 -0.7063  0.0400
  114CHL1  H19B14664   5.614   7.035  16.267 -0.3597  0.7383  0.1087
  114CHL1  H19C14665   5.789   7.033  16.280 -0.9840 -1.9819 -1.3587
  114CHL1    C114666   5.811   7.312  16.318 -0.1586 -0.4109  0.4633
  114CHL1   H1A14667   5.900   7.254  16.286 -1.3792 -3.8421  2.8054
  114CHL1   H1B14668   5.810   7.412  16.270 -0.8360 -0.5084  0.2679
  114CHL1    C214669   5.831   7.323  16.470  0.2486 -0.2330 -0.1899
  114CHL1   H2A14670   5.924   7.375  16.500  0.1243 -0.5427  0.7899
  114CHL1   H2B14671   5.837   7.220  16.513  2.6255  0.9423  2.6100
  114CHL1   C2014672   5.622   7.072  15.576 -0.7917 -0.1647 -0.0164
  114CHL1   H2014673   5.587   6.967  15.585  0.1542 -0.3924  1.1307
  114CHL1   C2114674   5.775   7.085  15.566 -0.0628  0.1635  0.1741
  114CHL1  H21A14675   5.786   7.195  15.555 -3.1247  0.5381  0.2470
  114CHL1  H21B14676   5.824   7.041  15.476  1.2123 -0.8735  1.3262
  114CHL1  H21C14677   5.837   7.044  15.649  0.2847 -1.0280 -0.6419
  114CHL1   C2214678   5.557   7.124  15.445 -0.4279  0.2058 -0.3634
  114CHL1  H22A14679   5.449   7.148  15.453 -0.6143 -0.6873 -0.1074
  114CHL1  H22B14680   5.617   7.213  15.416  0.2654 -0.9486 -2.8008
  114CHL1   C2314681   5.565   7.017  15.334 -0.0566  0.5197 -0.0967
  114CHL1  H23A14682   5.673   6.991  15.327  0.0955  1.1982 -0.3107
  114CHL1  H23B14683   5.511   6.929  15.374  1.0196  0.4406  1.2925
  114CHL1   C2414684   5.503   7.048  15.196 -0.2212  0.2244  0.7398
  114CHL1  H24A14685   5.395   7.047  15.221 -0.3416 -2.0688  0.3964
  114CHL1  H24B14686   5.537   7.145  15.155 -0.5501 -0.6502 -1.7862
  114CHL1   C2514687   5.514   6.933  15.099 -0.8808  0.3429 -0.2536
  114CHL1   H2514688   5.471   6.839  15.139  0.1881  0.3649  1.0386
  114CHL1   C2614689   5.442   6.961  14.970  1.3713 -0.1470 -0.0038
  114CHL1  H26A14690   5.449   7.070  14.948  0.3154  0.0978  0.7740
  114CHL1  H26B14691   5.480   6.904  14.883  1.3047  1.7827 -1.3584
  114CHL1  H26C14692   5.334   6.935  14.974  1.3039  0.2727  1.2295
  114CHL1   C2714693   5.667   6.894  15.069  0.2211 -0.6466  0.2826
  114CHL1  H27A14694   5.729   6.980  15.033  0.7789 -1.2266 -0.1791
  114CHL1  H27B14695   5.729   6.847  15.148 -0.1314 -1.6533 -0.0263
  114CHL1  H27C14696   5.665   6.818  14.987 -1.3640  1.6534 -1.9646
  115CHL1    C314697   1.994   0.371  15.955  0.3342 -0.4678  0.2121
  115CHL1    H314698   2.097   0.330  15.960  0.5893  0.2042  0.6143
  115CHL1    O314699   1.946   0.379  16.091 -0.2408  0.1342 -0.1366
  115CHL1   H3'14700   2.009   0.439  16.133 -0.5745  1.6095 -1.6338
  115CHL1    C414701   1.980   0.512  15.893 -0.0916 -0.4262  0.1714
  115CHL1   H4A14702   1.870   0.529  15.885  0.1497  0.4450 -2.0544
  115CHL1   H4B14703   2.023   0.590  15.959  2.3601 -1.2364 -0.3745
  115CHL1    C514704   2.036   0.524  15.751 -0.2834 -0.3227  0.9090
  115CHL1    C614705   2.141   0.601  15.717  0.4158 -0.3340  0.0240
  115CHL1    H614706   2.190   0.668  15.790  1.0458 -2.2813  1.4875
  115CHL1    C714707   2.206   0.608  15.586  0.7331  0.6529  0.8218
  115CHL1   H7A14708   2.231   0.712  15.556 -0.8303  1.0258  0.7470
  115CHL1   H7B14709   2.300   0.548  15.590  0.3474 -0.0130  0.2058
  115CHL1    C814710   2.121   0.544  15.470  0.0959  0.5072 -0.0254
  115CHL1    H814711   2.034   0.610  15.449  0.2813  0.3235 -1.5091
  115CHL1   C1414712   2.210   0.526  15.345 -0.3071 -0.6158  0.2756
  115CHL1   H1414713   2.294   0.462  15.380  0.2687 -1.3466 -2.2353
  115CHL1   C1514714   2.263   0.646  15.282 -0.4978 -0.2292  0.9008
  115CHL1  H15A14715   2.187   0.727  15.279 -1.0960 -0.8137 -0.0936
  115CHL1  H15B14716   2.349   0.703  15.325  0.1316  1.2918 -2.0685
  115CHL1   C1614717   2.290   0.598  15.138 -0.2948 -0.7903  0.7096
  115CHL1  H16A14718   2.232   0.664  15.070 -1.2874  1.9257  3.8964
  115CHL1  H16B14719   2.400   0.605  15.121 -0.5618 -2.1982 -2.0499
  115CHL1   C1714720   2.246   0.452  15.126 -0.4110  0.5568  0.3428
  115CHL1   H1714721   2.331   0.385  15.152 -1.0503 -0.6112 -0.5015
  115CHL1   C1314722   2.142   0.445  15.234  0.6352  0.3958  0.7193
  115CHL1   C1814723   2.012   0.520  15.191  0.1787 -0.3134 -0.0782
  115CHL1  H18A14724   1.945   0.460  15.126  0.6913 -2.0130  0.9025
  115CHL1  H18B14725   1.951   0.546  15.281  0.8403 -2.1366  0.9630
  115CHL1  H18C14726   2.030   0.616  15.139 -0.4064  0.7041  1.5221
  115CHL1   C1214727   2.113   0.304  15.297 -0.1787  0.7606  0.7880
  115CHL1  H12A14728   2.058   0.235  15.228 -0.8783 -0.4523  2.4802
  115CHL1  H12B14729   2.209   0.252  15.318 -0.2679 -0.1072 -0.7640
  115CHL1   C1114730   2.022   0.310  15.421 -0.6013 -0.4869 -0.0267
  115CHL1  H11A14731   1.920   0.336  15.387 -0.1451  0.5521 -0.6634
  115CHL1  H11B14732   2.020   0.208  15.465  0.8222 -0.4979  0.0782
  115CHL1    C914733   2.068   0.409  15.528 -0.5273 -1.4885 -0.1884
  115CHL1    H914734   2.164   0.369  15.566  0.4301  0.9878  0.1915
  115CHL1   C1014735   1.978   0.418  15.649 -0.2746  0.5751  0.5146
  115CHL1   C1914736   1.836   0.468  15.604  0.3399 -0.2909  0.1264
  115CHL1  H19A14737   1.754   0.442  15.675  1.0041 -0.7417  0.7468
  115CHL1  H19B14738   1.847   0.576  15.582  1.9405 -0.4083  0.2258
  115CHL1  H19C14739   1.794   0.409  15.519 -1.5133 -0.5168  1.1501
  115CHL1    C114740   1.977   0.273  15.716 -0.0831 -0.3710  0.5860
  115CHL1   H1A14741   1.923   0.189  15.667  1.4335 -1.9026  1.4354
  115CHL1   H1B14742   2.083   0.243  15.725  0.1485 -0.1124 -1.0026
  115CHL1    C214743   1.926   0.268  15.861  0.1047 -0.0822 -0.2804
  115CHL1   H2A14744   1.937   0.172  15.916  0.0666 -1.1375 -2.0434
  115CHL1   H2B14745   1.822   0.305  15.865  1.1586  3.5818 -1.8911
  115CHL1   C2014746   2.208   0.420  14.980  0.0827 -0.1904  0.2315
  115CHL1   H2014747   2.139   0.499  14.944 -0.8315 -1.1191 -0.0764
  115CHL1   C2114748   2.147   0.281  14.963 -0.1733  0.0028  0.2574
  115CHL1  H21A14749   2.168   0.224  14.870  1.3865 -1.0670  1.2215
  115CHL1  H21B14750   2.041   0.286  14.996 -0.6552 -1.4841 -0.9228
  115CHL1  H21C14751   2.196   0.212  15.034  2.6675  1.6903  0.0672
  115CHL1   C2214752   2.332   0.428  14.886 -0.8835 -0.1807 -0.2718
  115CHL1  H22A14753   2.424   0.387  14.933 -0.2522  0.8143 -0.5958
  115CHL1  H22B14754   2.316   0.370  14.793  0.7447  0.3656 -0.9383
  115CHL1   C2314755   2.362   0.565  14.819  0.5215  0.5998 -0.1738
  115CHL1  H23A14756   2.346   0.644  14.895 -1.6315 -0.3810  0.4838
  115CHL1  H23B14757   2.469   0.566  14.789  0.6158 -1.2355 -0.0384
  115CHL1   C2414758   2.285   0.585  14.687 -0.7554  0.4453 -0.2142
  115CHL1  H24A14759   2.317   0.501  14.623  0.0924 -0.9640  1.9215
  115CHL1  H24B14760   2.174   0.586  14.696 -0.7276  0.8557  0.1300
  115CHL1   C2514761   2.312   0.727  14.629 -0.5454 -0.4879  0.0646
  115CHL1   H2514762   2.422   0.733  14.623 -0.4066 -1.7327  0.9005
  115CHL1   C2614763   2.242   0.747  14.493 -0.2493 -0.1812 -0.1519
  115CHL1  H26A14764   2.264   0.664  14.422 -0.9691 -0.2708 -0.2795
  115CHL1  H26B14765   2.133   0.748  14.515  0.1088  1.4242  1.9076
  115CHL1  H26C14766   2.263   0.846  14.448 -0.7960 -0.6141 -1.3941
  115CHL1   C2714767   2.260   0.835  14.730  0.7101 -0.2289  0.2117
  115CHL1  H27A14768   2.284   0.938  14.695  0.1779 -0.7766 -1.9678
  115CHL1  H27B14769   2.149   0.828  14.736  0.7188 -0.8347 -0.2605
  115CHL1  H27C14770   2.299   0.824  14.833  0.9363  1.5324  0.3485
  116CHL1    C314771   2.444   0.220  16.255  0.0104  0.6734 -0.2222
  116CHL1    H314772   2.499   0.124  16.240  1.6746  1.6503 -0.5738
  116CHL1    O314773   2.409   0.255  16.383 -0.0870  0.1560  0.0154
  116CHL1   H3'14774   2.351   0.331  16.377 -1.5108 -0.9736 -1.1619
  116CHL1    C414775   2.531   0.331  16.204 -0.1979  0.0667  0.3889
  116CHL1   H4A14776   2.495   0.434  16.221 -0.3923 -0.1083  1.0804
  116CHL1   H4B14777   2.623   0.325  16.267 -0.7051  0.3493  1.1686
  116CHL1    C514778   2.569   0.309  16.058 -0.3209 -0.3548 -0.0522
  116CHL1    C614779   2.701   0.309  16.030  0.7513  0.0120 -0.2894
  116CHL1    H614780   2.770   0.318  16.116 -0.7021  1.4467  0.7747
  116CHL1    C714781   2.758   0.284  15.892  0.0868 -0.5008  0.4896
  116CHL1   H7A14782   2.820   0.373  15.868 -1.0701  0.2212  0.1113
  116CHL1   H7B14783   2.808   0.185  15.883  2.2088  0.3700  1.9362
  116CHL1    C814784   2.646   0.288  15.784  0.4428 -0.3963  0.4265
  116CHL1    H814785   2.635   0.394  15.755  1.7914  0.2140  2.0338
  116CHL1   C1414786   2.690   0.215  15.656 -0.3715 -0.3003 -1.0835
  116CHL1   H1414787   2.690   0.105  15.676  0.1322 -0.1546 -0.2129
  116CHL1   C1514788   2.824   0.257  15.594 -0.4956  0.1200 -0.0242
  116CHL1  H15A14789   2.821   0.368  15.597 -4.1453  0.1026  1.4933
  116CHL1  H15B14790   2.908   0.213  15.651 -0.1970 -0.1083 -0.6362
  116CHL1   C1614791   2.821   0.201  15.452 -0.1891  0.6312 -0.3238
  116CHL1  H16A14792   2.862   0.276  15.380  1.6729 -1.5978 -1.7125
  116CHL1  H16B14793   2.889   0.114  15.459 -1.2914 -0.4090 -2.1023
  116CHL1   C1714794   2.678   0.151  15.433  0.2268  0.3903 -0.7117
  116CHL1   H1714795   2.687   0.044  15.465 -2.3568  0.6829  1.3516
  116CHL1   C1314796   2.591   0.225  15.543  0.6039 -0.2595  0.3090
  116CHL1   C1814797   2.557   0.358  15.490  0.1034 -0.4883  0.2992
  116CHL1  H18A14798   2.490   0.354  15.402  1.3056 -1.1036 -0.6161
  116CHL1  H18B14799   2.507   0.427  15.562 -0.8740 -0.7842 -0.0844
  116CHL1  H18C14800   2.649   0.409  15.456 -0.3314  1.4053  1.7743
  116CHL1   C1214801   2.459   0.164  15.586  0.2072  0.1087 -0.5280
  116CHL1  H12A14802   2.385   0.173  15.504  0.0097  1.9844 -0.1920
  116CHL1  H12B14803   2.488   0.058  15.603  2.7029  0.9568  0.9991
  116CHL1   C1114804   2.408   0.225  15.716 -0.0076  0.0590 -1.3645
  116CHL1  H11A14805   2.375   0.327  15.685 -0.7231  0.0783 -0.5875
  116CHL1  H11B14806   2.315   0.174  15.749  0.7344 -1.7148 -1.9069
  116CHL1    C914807   2.513   0.231  15.832  0.3563 -0.1987 -0.1459
  116CHL1    H914808   2.545   0.126  15.850 -0.3305 -0.3292  0.3706
  116CHL1   C1014809   2.455   0.279  15.961 -0.5983  0.1621  0.5225
  116CHL1   C1914810   2.378   0.412  15.946 -0.2007  0.5908 -0.7329
  116CHL1  H19A14811   2.279   0.387  15.902 -0.8193 -0.2538  1.0379
  116CHL1  H19B14812   2.354   0.466  16.040  1.6723  1.4478 -0.6967
  116CHL1  H19C14813   2.431   0.487  15.883  1.8549  0.3865  0.6690
  116CHL1    C114814   2.364   0.169  16.028  0.5150  0.1778  0.5127
  116CHL1   H1A14815   2.282   0.156  15.954  2.4016  0.4738 -1.7310
  116CHL1   H1B14816   2.428   0.078  16.028  1.3445  0.7472  0.3665
  116CHL1    C214817   2.315   0.205  16.163 -0.0962 -1.2776 -0.0584
  116CHL1   H2A14818   2.248   0.128  16.207  0.8557 -1.0471  1.8873
  116CHL1   H2B14819   2.269   0.306  16.155  1.7040 -0.5131 -1.5720
  116CHL1   C2014820   2.645   0.139  15.276 -0.3979  0.0909 -0.6051
  116CHL1   H2014821   2.658   0.240  15.233 -1.8626 -0.4320 -2.4094
  116CHL1   C2114822   2.497   0.096  15.253 -0.1844  0.2764 -0.6842
  116CHL1  H21A14823   2.425   0.167  15.300 -0.6018 -0.7681  0.2867
  116CHL1  H21B14824   2.482  -0.005  15.297 -0.6213  1.8488  3.2069
  116CHL1  H21C14825   2.476   0.078  15.146  0.4706 -2.4338 -0.4171
  116CHL1   C2214826   2.746   0.047  15.212 -0.4841  0.8509 -0.2438
  116CHL1  H22A14827   2.851   0.073  15.239  0.0196  0.3984 -1.6501
  116CHL1  H22B14828   2.734  -0.055  15.254 -1.0061  0.7290 -0.6699
  116CHL1   C2314829   2.731   0.047  15.059  0.7243  0.7897 -0.3959
  116CHL1  H23A14830   2.628   0.030  15.024 -0.4767  1.3152  2.5720
  116CHL1  H23B14831   2.751   0.153  15.033 -0.9965  1.6497  1.5265
  116CHL1   C2414832   2.844  -0.039  15.000 -0.5959  0.4875  0.4260
  116CHL1  H24A14833   2.937   0.016  15.023 -1.4171  1.5378  1.3714
  116CHL1  H24B14834   2.852  -0.138  15.051  0.7403  0.6646  0.5983
  116CHL1   C2514835   2.827  -0.060  14.843 -0.2408  0.5341  0.4257
  116CHL1   H2514836   2.729  -0.111  14.829 -0.5518  1.0546  0.6822
  116CHL1   C2614837   2.815   0.073  14.771  0.0185 -0.5881  0.5214
  116CHL1  H26A14838   2.774   0.066  14.668 -1.9360 -0.8283  1.2678
  116CHL1  H26B14839   2.749   0.145  14.824  1.5160  0.3421  1.1842
  116CHL1  H26C14840   2.916   0.117  14.764  0.3483 -1.2526  1.0498
  116CHL1   C2714841   2.929  -0.151  14.776 -0.0613 -0.7875  0.1996
  116CHL1  H27A14842   2.935  -0.247  14.832  1.5028  0.0937  1.6504
  116CHL1  H27B14843   2.896  -0.159  14.670  2.0138 -0.4871 -0.5252
  116CHL1  H27C14844   3.033  -0.110  14.778 -0.1558 -0.4581 -0.8464
  117CHL1    C314845   5.909   0.262  16.462 -0.2907 -0.7520  0.6387
  117CHL1    H314846   5.821   0.322  16.429  1.2787  1.2107 -0.2416
  117CHL1    O314847   5.934   0.285  16.597 -0.1174  0.1936  0.0745
  117CHL1   H3'14848   6.004   0.351  16.591  0.0055 -0.0377 -1.8665
  117CHL1    C414849   5.888   0.115  16.434  0.0704  0.0615 -0.4459
  117CHL1   H4A14850   5.976   0.062  16.476 -1.1102 -0.5173  1.4220
  117CHL1   H4B14851   5.798   0.096  16.496  0.2284  1.9720  0.4328
  117CHL1    C514852   5.863   0.084  16.288 -0.1078  0.9190  0.3330
  117CHL1    C614853   5.748   0.026  16.250 -0.1750  0.2664  0.3209
  117CHL1    H614854   5.668   0.005  16.322  1.4523  3.1353  3.2170
  117CHL1    C714855   5.720  -0.008  16.108  0.2410  0.3700  0.2395
  117CHL1   H7A14856   5.691  -0.115  16.107  0.7176  0.0215  4.5903
  117CHL1   H7B14857   5.628   0.046  16.077 -0.2375 -1.2198 -1.2743
  117CHL1    C814858   5.842  -0.003  16.016  0.1099  0.3053  0.3562
  117CHL1    H814859   5.905  -0.093  16.030 -0.8567 -0.4525 -0.0575
  117CHL1   C1414860   5.798  -0.007  15.870  0.6791 -0.2230 -0.3131
  117CHL1   H1414861   5.756   0.093  15.849 -0.1933 -0.3012  0.9445
  117CHL1   C1514862   5.694  -0.115  15.818 -0.6803 -0.0038  0.1681
  117CHL1  H15A14863   5.738  -0.204  15.867  0.6274  0.5984  0.1321
  117CHL1  H15B14864   5.594  -0.095  15.860 -0.4402 -0.2238  0.8481
  117CHL1   C1614865   5.713  -0.110  15.669 -0.0475 -0.3230  0.3423
  117CHL1  H16A14866   5.745  -0.206  15.622 -3.4676 -0.3440 -2.3817
  117CHL1  H16B14867   5.623  -0.071  15.617  0.7830  0.6514 -0.4107
  117CHL1   C1714868   5.834  -0.025  15.640  0.6403  0.5834  0.0848
  117CHL1   H1714869   5.790   0.077  15.632 -1.2833 -0.0639  1.7687
  117CHL1   C1314870   5.913  -0.005  15.770 -0.0157 -0.3866  0.1242
  117CHL1   C1814871   6.002  -0.130  15.793  0.6863  0.2557  0.1323
  117CHL1  H18A14872   5.942  -0.219  15.765 -0.0454  1.4265 -2.3308
  117CHL1  H18B14873   6.093  -0.119  15.731  1.2671  0.4479  1.0124
  117CHL1  H18C14874   6.044  -0.125  15.895  1.4051  0.6012 -0.1741
  117CHL1   C1214875   5.985   0.130  15.792 -1.0549  0.9416  0.4430
  117CHL1  H12A14876   6.068   0.138  15.719 -0.9263  1.1444  0.6117
  117CHL1  H12B14877   5.910   0.209  15.771 -0.7031  1.1768  0.0666
  117CHL1   C1114878   6.041   0.139  15.937  0.4810  0.1698  0.7296
  117CHL1  H11A14879   6.121   0.063  15.936  0.3409 -0.1896 -3.6215
  117CHL1  H11B14880   6.078   0.243  15.949 -0.2779  0.3243  1.9739
  117CHL1    C914881   5.929   0.120  16.037  0.1994 -0.6178  0.1340
  117CHL1    H914882   5.870   0.213  16.024 -0.0708 -0.9459 -1.1236
  117CHL1   C1014883   5.972   0.127  16.185 -0.0359  0.6086 -0.1129
  117CHL1   C1914884   6.085   0.023  16.212 -0.1156  0.0118 -0.0198
  117CHL1  H19A14885   6.175   0.051  16.153  0.1320 -2.4313 -0.9045
  117CHL1  H19B14886   6.112   0.028  16.320  1.0271 -1.8458 -0.1644
  117CHL1  H19C14887   6.056  -0.081  16.185 -0.5157 -0.5171  2.2423
  117CHL1    C114888   6.007   0.278  16.216  0.5524  0.2495  0.5561
  117CHL1   H1A14889   6.095   0.302  16.153  0.3227 -0.9533 -0.2603
  117CHL1   H1B14890   5.923   0.344  16.185 -0.2117 -0.1298  1.7619
  117CHL1    C214891   6.025   0.308  16.367  0.8900 -0.5753  0.5215
  117CHL1   H2A14892   6.043   0.416  16.387 -2.4571  0.1503  0.2610
  117CHL1   H2B14893   6.119   0.254  16.387  1.6176  0.2503 -0.5505
  117CHL1   C2014894   5.904  -0.063  15.510  0.7635 -0.1586  0.3615
  117CHL1   H2014895   5.946  -0.164  15.529  1.1197  0.3657  2.6139
  117CHL1   C2114896   6.017   0.029  15.481 -0.1804  0.5068  0.2967
  117CHL1  H21A14897   5.990   0.134  15.506  1.3315  0.5278  2.0444
  117CHL1  H21B14898   6.048   0.010  15.376 -1.0475  0.6910 -0.0049
  117CHL1  H21C14899   6.099   0.007  15.552  0.6094  1.3667 -0.3264
  117CHL1   C2214900   5.806  -0.077  15.387  0.3391  0.0187 -0.1375
  117CHL1  H22A14901   5.858  -0.135  15.307  0.8101 -1.7026  1.3617
  117CHL1  H22B14902   5.722  -0.137  15.428  1.1758  0.3496  2.1551
  117CHL1   C2314903   5.763   0.054  15.322 -0.0668  0.2986 -0.2781
  117CHL1  H23A14904   5.712   0.127  15.387 -0.9496 -1.1678  0.7273
  117CHL1  H23B14905   5.858   0.106  15.298 -0.3136  0.6044 -0.5964
  117CHL1   C2414906   5.687   0.055  15.187  0.0740  0.5377 -0.8218
  117CHL1  H24A14907   5.658   0.160  15.168  0.8235  1.3401  2.0496
  117CHL1  H24B14908   5.765   0.026  15.113  0.7069 -0.6632  0.2693
  117CHL1   C2514909   5.563  -0.042  15.181 -0.2782 -0.1020  0.5838
  117CHL1   H2514910   5.603  -0.144  15.200  1.4051  0.3828 -0.2475
  117CHL1   C2614911   5.460  -0.032  15.299  0.3885  0.2200  0.3780
  117CHL1  H26A14912   5.380  -0.108  15.285 -0.3538  0.9392  0.6500
  117CHL1  H26B14913   5.503  -0.050  15.399  4.0593  1.3837 -0.8411
  117CHL1  H26C14914   5.412   0.069  15.294 -0.1124 -0.0260 -3.6376
  117CHL1   C2714915   5.502  -0.032  15.045 -0.4051  0.3222 -0.1488
  117CHL1  H27A14916   5.402  -0.081  15.043 -0.0850 -0.4089 -3.0188
  117CHL1  H27B14917   5.484   0.068  15.001  0.1418  1.4008  1.9366
  117CHL1  H27C14918   5.561  -0.103  14.983 -2.4844 -0.6572 -1.1060
  118CHL1    C314919   0.343   0.088  16.605 -0.1696  0.2979 -0.5796
  118CHL1    H314920   0.439   0.035  16.622 -1.7178 -2.8565 -1.0952
  118CHL1    O314921   0.286   0.118  16.740  0.0374 -0.2409  0.2480
  118CHL1   H3'14922   0.349   0.187  16.763  0.4199 -0.4857 -0.0383
  118CHL1    C414923   0.359   0.223  16.541  0.9321  0.0607  0.2231
  118CHL1   H4A14924   0.266   0.278  16.568  2.2209  2.5290 -0.0527
  118CHL1   H4B14925   0.435   0.276  16.602  0.1439 -0.1835  1.4579
  118CHL1    C514926   0.388   0.212  16.394  0.3399  0.0058  0.2174
  118CHL1    C614927   0.490   0.277  16.332 -0.1834  0.3700 -0.5419
  118CHL1    H614928   0.543   0.356  16.387 -1.9462  0.7191  0.7524
  118CHL1    C714929   0.508   0.283  16.182  0.0462  0.4296 -0.0331
  118CHL1   H7A14930   0.551   0.384  16.169  1.9089 -0.2455  0.5370
  118CHL1   H7B14931   0.596   0.221  16.153  0.2998  1.1195 -0.7578
  118CHL1    C814932   0.386   0.245  16.100 -0.1020 -0.4971  0.0526
  118CHL1    H814933   0.315   0.330  16.110  0.2748 -0.0606 -0.8895
  118CHL1   C1414934   0.427   0.230  15.951  0.5924 -0.2930  0.2917
  118CHL1   H1414935   0.510   0.157  15.956 -2.0905 -3.4825  3.2041
  118CHL1   C1514936   0.486   0.353  15.874  0.2032 -1.0039  0.3103
  118CHL1  H15A14937   0.420   0.443  15.879  1.1060 -0.3681  1.3778
  118CHL1  H15B14938   0.582   0.379  15.924 -0.1147 -0.9657  0.9132
  118CHL1   C1614939   0.480   0.299  15.733 -0.4918 -0.2150  0.5823
  118CHL1  H16A14940   0.449   0.374  15.658  0.1038  0.2481  0.7931
  118CHL1  H16B14941   0.585   0.269  15.711 -0.8928 -0.8056 -0.6820
  118CHL1   C1714942   0.386   0.171  15.724 -0.3065  0.2073 -1.0657
  118CHL1   H1714943   0.453   0.083  15.726  0.3706  0.7226  0.0754
  118CHL1   C1314944   0.319   0.168  15.858 -0.5733  0.5221  0.3061
  118CHL1   C1814945   0.197   0.261  15.859  0.1316 -0.3898  0.4603
  118CHL1  H18A14946   0.115   0.215  15.800 -0.0888 -0.5935  0.9198
  118CHL1  H18B14947   0.160   0.282  15.962 -3.4791 -0.2548 -0.7298
  118CHL1  H18C14948   0.218   0.358  15.809 -0.3950  0.5094  1.9063
  118CHL1   C1214949   0.282   0.032  15.922  0.4971  0.1205  0.0328
  118CHL1  H12A14950   0.193  -0.003  15.866  0.7901  1.7955 -1.5942
  118CHL1  H12B14951   0.362  -0.044  15.910  0.3078 -0.1059  0.2109
  118CHL1   C1114952   0.234   0.043  16.066 -0.0579 -0.3904 -0.3427
  118CHL1  H11A14953   0.143   0.106  16.076 -0.4515  0.1668 -5.1474
  118CHL1  H11B14954   0.212  -0.059  16.103 -0.4739 -0.4020 -0.6150
  118CHL1    C914955   0.337   0.115  16.164 -0.3410 -0.3538 -0.1295
  118CHL1    H914956   0.429   0.054  16.155 -1.3802 -2.0894  0.3120
  118CHL1   C1014957   0.285   0.128  16.312  0.5341  0.2017 -0.7319
  118CHL1   C1914958   0.136   0.183  16.309 -0.8024  0.5089  0.7643
  118CHL1  H19A14959   0.059   0.118  16.262 -0.0402  0.8015 -0.9698
  118CHL1  H19B14960   0.108   0.213  16.412  0.3331  0.2222  1.1721
  118CHL1  H19C14961   0.133   0.279  16.254 -2.2513 -1.2980 -2.6112
  118CHL1    C114962   0.291  -0.006  16.384  0.5068  0.1645  0.0628
  118CHL1   H1A14963   0.222  -0.087  16.352  1.6726  0.0053 -2.1590
  118CHL1   H1B14964   0.393  -0.047  16.374  1.1500  2.0881 -2.2219
  118CHL1    C214965   0.246  -0.004  16.532  0.3329 -0.0513  0.2158
  118CHL1   H2A14966   0.243  -0.106  16.576  1.3500  0.1404  0.7491
  118CHL1   H2B14967   0.139   0.025  16.539  0.9846  2.4777  0.6607
  118CHL1   C2014968   0.307   0.150  15.593 -0.4134 -0.4494 -0.3118
  118CHL1   H2014969   0.235   0.234  15.590  0.6015  0.4182 -1.1772
  118CHL1   C2114970   0.234   0.017  15.585  0.2768  0.9379 -0.4248
  118CHL1  H21A14971   0.301  -0.072  15.578 -1.9424 -0.7236 -1.8316
  118CHL1  H21B14972   0.163   0.021  15.499 -2.7084  0.3044  1.8342
  118CHL1  H21C14973   0.171   0.009  15.676 -0.1674 -0.4077 -0.8231
  118CHL1   C2214974   0.383   0.151  15.458 -0.0010 -0.3562  0.0716
  118CHL1  H22A14975   0.482   0.199  15.475 -0.0359 -0.0411 -0.5840
  118CHL1  H22B14976   0.412   0.045  15.441  1.4344 -0.0382  0.3758
  118CHL1   C2314977   0.304   0.211  15.342  0.3389  0.0628  0.1003
  118CHL1  H23A14978   0.225   0.136  15.318  1.7609 -1.2362 -0.6554
  118CHL1  H23B14979   0.260   0.299  15.395 -1.0470 -1.3958  1.4738
  118CHL1   C2414980   0.395   0.253  15.222  0.3147  0.1954  0.2034
  118CHL1  H24A14981   0.464   0.332  15.258  1.0429  0.7297 -2.1609
  118CHL1  H24B14982   0.445   0.160  15.188  1.2460  0.9183 -0.4414
  118CHL1   C2514983   0.318   0.299  15.095  0.1089 -0.3698 -0.1305
  118CHL1   H2514984   0.250   0.216  15.067 -0.3804 -0.6678  1.7915
  118CHL1   C2614985   0.233   0.420  15.141 -0.2235 -0.2453 -0.9891
  118CHL1  H26A14986   0.159   0.394  15.220  2.6735 -1.6940  1.4441
  118CHL1  H26B14987   0.300   0.497  15.186  0.8213 -1.2220 -0.8436
  118CHL1  H26C14988   0.183   0.461  15.051 -0.7554  1.4166  0.0132
  118CHL1   C2714989   0.411   0.323  14.969 -0.8570 -0.0616  0.4620
  118CHL1  H27A14990   0.346   0.350  14.883  2.4339  0.5645 -2.0325
  118CHL1  H27B14991   0.487   0.403  14.986 -0.0377 -1.1192  2.1562
  118CHL1  H27C14992   0.474   0.233  14.954 -1.1534 -0.2683  0.4493
  119CHL1    C314993   1.669   7.502  16.269  0.2895 -0.0944 -0.4165
  119CHL1    H314994   1.624   7.592  16.317 -1.1126  0.0846 -1.9466
  119CHL1    O314995   1.728   7.429  16.380 -0.1489 -0.0999  0.1569
  119CHL1   H3'14996   1.810   7.475  16.396 -0.2011 -0.3996  1.4328
  119CHL1    C414997   1.565   7.425  16.196  0.0670  0.8912  0.0620
  119CHL1   H4A14998   1.620   7.331  16.173  0.7753  0.8688  1.6804
  119CHL1   H4B14999   1.479   7.403  16.262  0.6006  0.4875  0.6347
  119CHL1    C515000   1.522   7.487  16.063  0.2160  0.3646 -0.0230
  119CHL1    C615001   1.395   7.512  16.045 -0.1285 -0.7758 -0.6840
  119CHL1    H615002   1.325   7.487  16.125  0.9349 -0.7743  0.2657
  119CHL1    C715003   1.344   7.579  15.918  0.3485  0.6422 -0.0426
  119CHL1   H7A15004   1.242   7.546  15.889 -0.2372  0.1650  2.3204
  119CHL1   H7B15005   1.336   7.688  15.939  0.4546  1.0240 -1.8071
  119CHL1    C815006   1.443   7.587  15.799  0.0164 -0.0579  0.1978
  119CHL1    H815007   1.445   7.489  15.747  1.4573  0.4302 -0.7285
  119CHL1   C1415008   1.409   7.691  15.693  0.1793 -0.0562 -0.0504
  119CHL1   H1415009   1.412   7.791  15.740  0.1470 -0.0907  0.0262
  119CHL1   C1515010   1.271   7.673  15.630  0.0594  0.1229  0.5273
  119CHL1  H15A15011   1.259   7.567  15.601  2.2650  0.1095 -0.5264
  119CHL1  H15B15012   1.186   7.704  15.695  0.2223  1.0480  0.3149
  119CHL1   C1615013   1.287   7.768  15.508  0.2095  0.0234  0.1112
  119CHL1  H16A15014   1.252   7.700  15.427 -0.3867 -0.0530  0.4227
  119CHL1  H16B15015   1.211   7.848  15.520  0.5583  0.2502  0.8530
  119CHL1   C1715016   1.435   7.817  15.496 -0.0054  0.4019  0.1589
  119CHL1   H1715017   1.447   7.912  15.553 -1.5253  0.8309 -0.1916
  119CHL1   C1315018   1.513   7.708  15.576  0.2560  0.8888 -0.6985
  119CHL1   C1815019   1.527   7.578  15.491  0.2227 -0.3470  0.2713
  119CHL1  H18A15020   1.427   7.556  15.450 -0.2591  1.9005  0.1272
  119CHL1  H18B15021   1.594   7.576  15.402 -0.3181 -1.9277 -0.1370
  119CHL1  H18C15022   1.547   7.491  15.558 -2.5395  0.0839  1.7967
  119CHL1   C1215023   1.650   7.739  15.635 -0.5300  0.2213  0.1637
  119CHL1  H12A15024   1.725   7.747  15.554 -0.3950 -0.0782  0.2557
  119CHL1  H12B15025   1.647   7.838  15.685 -4.0335  1.2176 -1.6715
  119CHL1   C1115026   1.699   7.644  15.748 -0.2088  0.2495 -0.3062
  119CHL1  H11A15027   1.731   7.558  15.685 -0.6713 -0.4616  0.4173
  119CHL1  H11B15028   1.783   7.699  15.795 -1.8612  3.3223 -0.6346
  119CHL1    C915029   1.583   7.618  15.853 -0.0929  0.1589  0.5197
  119CHL1    H915030   1.566   7.724  15.883 -0.2004  0.3144 -0.0720
  119CHL1   C1015031   1.633   7.527  15.964 -0.0381  0.0217 -0.5943
  119CHL1   C1915032   1.699   7.398  15.913  0.4910  0.4556  1.0146
  119CHL1  H19A15033   1.792   7.419  15.856 -0.7276  3.4929 -0.0357
  119CHL1  H19B15034   1.728   7.329  15.996  0.3038 -0.7190  0.1314
  119CHL1  H19C15035   1.631   7.347  15.842  1.7641  1.3661 -0.9547
  119CHL1    C115036   1.746   7.599  16.047  0.2762  0.6887 -0.4483
  119CHL1   H1A15037   1.834   7.620  15.984  0.2224 -2.0548 -1.6077
  119CHL1   H1B15038   1.714   7.704  16.064 -1.3273  0.0923  0.5012
  119CHL1    C215039   1.787   7.530  16.183  0.2467 -0.5874 -0.4305
  119CHL1   H2A15040   1.871   7.579  16.238  1.1023 -2.1206 -0.3122
  119CHL1   H2B15041   1.829   7.435  16.145 -0.1109  0.0635 -2.5983
  119CHL1   C2015042   1.493   7.849  15.351  0.2181  0.3031  0.5968
  119CHL1   H2015043   1.520   7.751  15.307  0.6513  0.1358  1.2396
  119CHL1   C2115044   1.615   7.939  15.361 -0.6882  0.1203 -0.1334
  119CHL1  H21A15045   1.601   8.031  15.421  1.3343  0.4638 -0.1246
  119CHL1  H21B15046   1.650   7.959  15.258 -1.4032  0.5937 -0.2950
  119CHL1  H21C15047   1.705   7.890  15.404  1.2411  2.1127 -1.6367
  119CHL1   C2215048   1.385   7.911  15.257  0.5028 -0.0971  0.4909
  119CHL1  H22A15049   1.299   7.841  15.255  2.4255 -2.6390  1.5602
  119CHL1  H22B15050   1.346   8.010  15.290 -1.3830  0.4403 -2.8171
  119CHL1   C2315051   1.424   7.923  15.107  0.4424 -0.0526  0.3352
  119CHL1  H23A15052   1.522   7.973  15.091  1.4177 -1.2791  2.1873
  119CHL1  H23B15053   1.419   7.819  15.070 -2.1769 -0.8000  2.5005
  119CHL1   C2415054   1.310   7.992  15.026  0.2739 -0.8225 -0.1045
  119CHL1  H24A15055   1.210   7.962  15.063 -0.7927  2.2137 -0.2353
  119CHL1  H24B15056   1.323   8.099  15.051  0.5633 -1.0982  0.9823
  119CHL1   C2515057   1.315   7.960  14.873  0.0744  0.2980 -0.2943
  119CHL1   H2515058   1.340   7.855  14.848 -0.3734  0.1815 -0.2647
  119CHL1   C2615059   1.173   8.006  14.814 -0.1421  0.9400  0.0014
  119CHL1  H26A15060   1.190   7.999  14.705 -0.4724 -2.3183  0.0767
  119CHL1  H26B15061   1.099   7.927  14.839  1.5158 -0.9852 -0.9840
  119CHL1  H26C15062   1.148   8.109  14.850 -2.2598  1.4529 -2.5835
  119CHL1   C2715063   1.428   8.051  14.811  0.5485  0.0511 -0.0586
  119CHL1  H27A15064   1.527   8.020  14.849  0.6421 -1.5607 -1.4895
  119CHL1  H27B15065   1.436   8.054  14.700 -1.3550 -1.8523 -0.3242
  119CHL1  H27C15066   1.414   8.157  14.842 -2.0973 -0.0232 -0.7106
  120CHL1    C315067   1.262   7.079  16.369  0.4459 -0.2399  0.5372
  120CHL1    H315068   1.281   7.189  16.370  1.0126 -0.2052 -2.8585
  120CHL1    O315069   1.251   7.013  16.497  0.0392 -0.5956 -0.4733
  120CHL1   H3'15070   1.180   6.951  16.480  0.4566 -0.7559 -1.7326
  120CHL1    C415071   1.133   7.057  16.284  0.0354 -0.0184  0.0470
  120CHL1   H4A15072   1.103   6.950  16.281 -1.1144  0.2646  0.5215
  120CHL1   H4B15073   1.044   7.110  16.326 -0.6919  0.3320 -1.8430
  120CHL1    C515074   1.148   7.106  16.143  0.5514  0.1166 -0.0316
  120CHL1    C615075   1.046   7.177  16.088 -0.2644  0.4579  0.4337
  120CHL1    H615076   0.956   7.206  16.145 -0.7192 -0.8363  0.4233
  120CHL1    C715077   1.045   7.225  15.941  0.4102  0.5768 -1.5964
  120CHL1   H7A15078   0.946   7.198  15.899  0.1887 -0.3616 -0.5309
  120CHL1   H7B15079   1.053   7.335  15.947  1.8144  0.4609 -0.9211
  120CHL1    C815080   1.161   7.156  15.854  0.2682 -0.3711  0.3787
  120CHL1    H815081   1.126   7.056  15.820  0.4073 -0.4570  0.4874
  120CHL1   C1415082   1.179   7.235  15.723  0.5332 -0.4501 -0.0557
  120CHL1   H1415083   1.219   7.337  15.737 -1.0639  0.1427  0.4555
  120CHL1   C1515084   1.044   7.248  15.643  0.0531  0.1075 -0.5907
  120CHL1  H15A15085   0.990   7.155  15.617  0.0145 -0.0585  0.0876
  120CHL1  H15B15086   0.975   7.318  15.695 -0.8967  0.2041 -1.9102
  120CHL1   C1615087   1.099   7.304  15.513  0.0958 -0.1884  0.0953
  120CHL1  H16A15088   1.054   7.260  15.422  1.2157  0.3713 -0.7464
  120CHL1  H16B15089   1.091   7.415  15.513  0.0243 -0.1910  0.4447
  120CHL1   C1715090   1.255   7.265  15.513  0.1193  0.5276  0.2286
  120CHL1   H1715091   1.316   7.355  15.536  0.2021  0.3584  0.6899
  120CHL1   C1315092   1.275   7.169  15.633 -0.5155  0.1817  0.8825
  120CHL1   C1815093   1.224   7.028  15.584 -0.7624 -0.0618  0.9225
  120CHL1  H18A15094   1.151   7.045  15.502  0.6097  1.1757 -0.1119
  120CHL1  H18B15095   1.307   6.986  15.524 -0.6483  0.5946  0.6028
  120CHL1  H18C15096   1.195   6.957  15.664 -2.4178  0.5778  0.9327
  120CHL1   C1215097   1.415   7.163  15.700  0.0834 -0.2598 -0.5927
  120CHL1  H12A15098   1.498   7.112  15.646 -0.0895 -1.3171  0.1027
  120CHL1  H12B15099   1.431   7.270  15.723 -0.4960 -0.2945 -0.0100
  120CHL1   C1115100   1.413   7.096  15.838 -0.1127 -0.5119 -0.1551
  120CHL1  H11A15101   1.409   6.986  15.830 -2.7930 -0.4838 -0.4179
  120CHL1  H11B15102   1.504   7.136  15.888 -0.3205  1.2888 -1.1062
  120CHL1    C915103   1.293   7.142  15.927  0.5460  0.0232 -0.1957
  120CHL1    H915104   1.314   7.245  15.963 -2.7524  0.2991  1.3874
  120CHL1   C1015105   1.279   7.066  16.066  0.1743 -0.4886  0.0449
  120CHL1   C1915106   1.248   6.914  16.030  1.0762 -0.7880  0.6190
  120CHL1  H19A15107   1.211   6.848  16.111 -1.2494  0.1470  0.3829
  120CHL1  H19B15108   1.169   6.912  15.952  0.6150  1.4830  0.9560
  120CHL1  H19C15109   1.337   6.872  15.978 -0.2302 -0.3638 -2.1766
  120CHL1    C115110   1.404   7.074  16.154  0.1932  0.1655  0.1200
  120CHL1   H1A15111   1.488   7.018  16.107 -1.2015 -3.1041  1.1894
  120CHL1   H1B15112   1.432   7.181  16.163  0.0232  0.1111  1.4481
  120CHL1    C215113   1.388   7.017  16.297 -0.2407  0.0900 -0.1455
  120CHL1   H2A15114   1.477   7.040  16.358 -0.7624 -0.6780  0.9261
  120CHL1   H2B15115   1.380   6.906  16.296  1.5697 -0.0725  0.1709
  120CHL1   C2015116   1.311   7.229  15.369 -0.1355 -0.3088 -0.1801
  120CHL1   H2015117   1.246   7.145  15.336 -2.6453  0.9875  1.1979
  120CHL1   C2115118   1.465   7.198  15.372 -0.1773  0.2841 -0.1271
  120CHL1  H21A15119   1.508   7.272  15.444 -1.3177 -0.1529  1.0345
  120CHL1  H21B15120   1.518   7.197  15.274  2.9502  0.0822  1.4382
  120CHL1  H21C15121   1.485   7.099  15.419  0.8884  0.8153  0.5852
  120CHL1   C2215122   1.292   7.341  15.269 -0.1858  0.2979  0.0703
  120CHL1  H22A15123   1.197   7.399  15.274 -0.5951 -0.2241 -1.2804
  120CHL1  H22B15124   1.382   7.406  15.282 -0.7904  1.3225 -0.7148
  120CHL1   C2315125   1.304   7.288  15.117 -0.0510  0.6839 -0.7642
  120CHL1  H23A15126   1.404   7.243  15.099  1.1703  3.4589 -1.3677
  120CHL1  H23B15127   1.225   7.211  15.100  1.2869 -1.4607  1.8665
  120CHL1   C2415128   1.286   7.396  15.010  0.7359  0.6097  0.4455
  120CHL1  H24A15129   1.205   7.467  15.035 -0.1955 -0.2559 -0.0305
  120CHL1  H24B15130   1.385   7.447  15.012  0.9683  0.1526  2.2829
  120CHL1   C2515131   1.263   7.344  14.867 -0.0138  0.2935 -0.6550
  120CHL1   H2515132   1.183   7.266  14.868  1.2579 -1.0777 -1.4363
  120CHL1   C2615133   1.228   7.458  14.776  0.4915  0.0705 -0.3271
  120CHL1  H26A15134   1.144   7.527  14.799 -0.5689 -0.8305 -1.3944
  120CHL1  H26B15135   1.322   7.516  14.762 -0.7015  2.1369 -0.2513
  120CHL1  H26C15136   1.208   7.409  14.679  0.7209 -1.9100  0.5823
  120CHL1   C2715137   1.372   7.253  14.806 -0.5994 -0.4032  0.0238
  120CHL1  H27A15138   1.345   7.212  14.706  1.3261 -1.3987 -0.1351
  120CHL1  H27B15139   1.473   7.299  14.797  0.0777 -1.6517  0.9389
  120CHL1  H27C15140   1.408   7.166  14.864  0.1346 -0.4629 -0.5063
  121CHL1    C315141   3.620   2.331  13.521  0.4375  0.2240 -0.0348
  121CHL1    H315142   3.516   2.294  13.504 -0.4751  2.7463 -0.2580
  121CHL1    O315143   3.666   2.326  13.392 -0.0537  0.2677  0.4190
  121CHL1   H3'15144   3.748   2.376  13.388 -0.3892  0.7349 -1.6342
  121CHL1    C415145   3.613   2.476  13.566  0.5226  0.3102  0.0568
  121CHL1   H4A15146   3.712   2.522  13.544  1.3893 -1.0199  1.0136
  121CHL1   H4B15147   3.538   2.526  13.501 -0.8562 -2.2720 -0.4341
  121CHL1    C515148   3.573   2.488  13.708 -1.0879  0.4560  0.0891
  121CHL1    C615149   3.467   2.557  13.753 -0.0659  0.2688 -0.0068
  121CHL1    H615150   3.409   2.621  13.685 -1.3840 -0.5254  0.3362
  121CHL1    C715151   3.438   2.576  13.898 -0.0307 -0.3076 -0.8076
  121CHL1   H7A15152   3.414   2.680  13.927  1.3922 -0.6814  2.0078
  121CHL1   H7B15153   3.356   2.507  13.928 -1.0499  0.5730 -1.4626
  121CHL1    C815154   3.558   2.550  13.993 -0.0745  0.1822  0.1902
  121CHL1    H815155   3.628   2.636  13.989 -0.6749  0.6331 -1.4374
  121CHL1   C1415156   3.502   2.539  14.134 -0.4625 -0.1799 -0.0599
  121CHL1   H1415157   3.422   2.462  14.130  0.2427 -0.9292 -0.0659
  121CHL1   C1515158   3.428   2.667  14.190  0.3297  0.3651 -0.3936
  121CHL1  H15A15159   3.494   2.752  14.162 -1.4368  0.8801 -3.5391
  121CHL1  H15B15160   3.335   2.702  14.140  1.0814  1.0493 -1.3692
  121CHL1   C1615161   3.407   2.637  14.339  0.0784  0.1493  0.4211
  121CHL1  H16A15162   3.437   2.729  14.394 -2.6163  0.4572  1.4949
  121CHL1  H16B15163   3.307   2.601  14.368  0.6904 -0.6695  1.6087
  121CHL1   C1715164   3.506   2.512  14.368  0.2054 -0.5126  0.2688
  121CHL1   H1715165   3.431   2.430  14.368 -1.4804  0.9574  0.9799
  121CHL1   C1315166   3.599   2.498  14.244 -0.2895  0.2355  0.0916
  121CHL1   C1815167   3.717   2.594  14.257 -0.1879  0.1779  0.3786
  121CHL1  H18A15168   3.681   2.683  14.313 -0.1875 -0.2605  1.0866
  121CHL1  H18B15169   3.798   2.551  14.320  2.0186  0.1757 -2.3030
  121CHL1  H18C15170   3.760   2.621  14.159  0.7610 -0.7032  0.5403
  121CHL1   C1215171   3.646   2.353  14.201  0.0501 -0.0296  0.1143
  121CHL1  H12A15172   3.724   2.328  14.275  0.2066  1.6650  0.5638
  121CHL1  H12B15173   3.562   2.286  14.229 -1.7101  2.0772  0.2137
  121CHL1   C1115174   3.703   2.349  14.059 -0.1892 -0.0379 -0.4077
  121CHL1  H11A15175   3.801   2.402  14.057 -0.6277  0.8741  0.8169
  121CHL1  H11B15176   3.715   2.240  14.046 -1.5682 -0.4898  1.6106
  121CHL1    C915177   3.614   2.410  13.959  0.1237  1.0123  0.5573
  121CHL1    H915178   3.529   2.338  13.953  0.2870  0.8433  0.2343
  121CHL1   C1015179   3.663   2.402  13.807  0.5514 -0.6973  1.0623
  121CHL1   C1915180   3.802   2.466  13.806 -1.0212 -0.2975  0.0223
  121CHL1  H19A15181   3.798   2.571  13.841 -1.9930 -0.5819  0.8289
  121CHL1  H19B15182   3.873   2.414  13.873  0.8680  1.7534 -0.2925
  121CHL1  H19C15183   3.847   2.462  13.705  0.2964 -1.9428  0.6191
  121CHL1    C115184   3.662   2.260  13.752 -0.1451  0.0453 -0.3103
  121CHL1   H1A15185   3.730   2.197  13.812  0.2494  0.3578 -0.4284
  121CHL1   H1B15186   3.556   2.228  13.768 -0.5898  1.9077  0.6949
  121CHL1    C215187   3.702   2.251  13.608 -0.1812  0.7427 -0.2491
  121CHL1   H2A15188   3.716   2.149  13.566  1.1433  0.8418 -0.0919
  121CHL1   H2B15189   3.806   2.291  13.607  1.0877 -2.2702  0.1332
  121CHL1   C2015190   3.573   2.525  14.515  0.1258  0.0907  0.4882
  121CHL1   H2015191   3.636   2.616  14.512 -1.4350  1.1967 -0.4150
  121CHL1   C2115192   3.647   2.393  14.540  0.0513  0.5352  0.0697
  121CHL1  H21A15193   3.748   2.391  14.494 -0.9427 -1.4241 -2.2205
  121CHL1  H21B15194   3.587   2.310  14.496  0.9915 -0.0555 -0.1286
  121CHL1  H21C15195   3.646   2.372  14.649 -0.6761 -0.8285 -0.1845
  121CHL1   C2215196   3.467   2.550  14.627 -0.3950  0.0844 -0.0207
  121CHL1  H22A15197   3.527   2.552  14.721  1.6354 -0.0378 -1.2688
  121CHL1  H22B15198   3.422   2.651  14.616 -1.0851 -0.0603  1.1909
  121CHL1   C2315199   3.364   2.440  14.655  0.3238 -0.4941  0.0761
  121CHL1  H23A15200   3.303   2.431  14.562 -0.3440 -0.4867  0.5018
  121CHL1  H23B15201   3.408   2.343  14.686  0.0390 -1.2135 -1.6541
  121CHL1   C2415202   3.266   2.484  14.762  0.1120 -0.0227 -0.2201
  121CHL1  H24A15203   3.323   2.498  14.856  0.3291  2.9581 -0.6995
  121CHL1  H24B15204   3.229   2.585  14.734  0.5578  0.3469  0.4930
  121CHL1   C2515205   3.142   2.396  14.779  0.0789  0.3180 -0.1097
  121CHL1   H2515206   3.083   2.383  14.685  2.0753  0.1250 -1.4038
  121CHL1   C2615207   3.173   2.251  14.817 -0.1671 -0.0799  0.4270
  121CHL1  H26A15208   3.252   2.200  14.759  0.0737 -0.6507  1.2454
  121CHL1  H26B15209   3.223   2.241  14.916  0.9348 -2.2524 -0.2833
  121CHL1  H26C15210   3.078   2.194  14.819  0.1433 -0.5898  1.6444
  121CHL1   C2715211   3.059   2.454  14.892 -0.1005 -0.0003 -1.0382
  121CHL1  H27A15212   2.960   2.405  14.903  0.3787 -0.6679  0.6812
  121CHL1  H27B15213   3.113   2.424  14.985  1.6435 -0.1596 -2.0483
  121CHL1  H27C15214   3.053   2.565  14.898 -0.5221 -0.0315 -0.8412
  122CHL1    C315215   2.549   2.716  13.701 -0.0758 -0.8051  0.0952
  122CHL1    H315216   2.631   2.755  13.765  1.4864 -1.5343 -1.4024
  122CHL1    O315217   2.594   2.681  13.565  0.3204 -0.0912 -0.5421
  122CHL1   H3'15218   2.653   2.610  13.590  0.7678  0.6149  0.5054
  122CHL1    C415219   2.487   2.586  13.758  0.4697 -0.4012 -0.5337
  122CHL1   H4A15220   2.399   2.559  13.695  0.3513  0.5481 -0.7837
  122CHL1   H4B15221   2.554   2.497  13.751 -1.5062 -1.9295 -1.2093
  122CHL1    C515222   2.444   2.614  13.899 -0.3127 -0.7503 -0.1093
  122CHL1    C615223   2.500   2.553  14.001  0.0866  0.1345 -0.0423
  122CHL1    H615224   2.568   2.470  13.974 -0.0470 -0.5888  1.7010
  122CHL1    C715225   2.483   2.583  14.146 -0.3844  0.1239  0.7760
  122CHL1   H7A15226   2.458   2.491  14.203 -0.5437  1.0091  2.1912
  122CHL1   H7B15227   2.569   2.636  14.192  0.1542 -0.2437  0.2132
  122CHL1    C815228   2.347   2.666  14.160 -1.6579  0.0202  0.3323
  122CHL1    H815229   2.262   2.597  14.139 -0.5010 -1.8416  1.4992
  122CHL1   C1415230   2.323   2.705  14.304 -0.3099  0.1261 -0.2004
  122CHL1   H1415231   2.407   2.771  14.333 -0.5605  0.5689 -0.4642
  122CHL1   C1515232   2.319   2.603  14.412  0.4966  0.0998  0.2544
  122CHL1  H15A15233   2.243   2.525  14.386  1.6864 -0.8803 -0.3767
  122CHL1  H15B15234   2.423   2.568  14.427  0.8070  0.8346 -0.1520
  122CHL1   C1615235   2.290   2.689  14.538  0.7225  0.3260  0.3289
  122CHL1  H16A15236   2.229   2.629  14.608 -0.5148 -0.0693 -1.0393
  122CHL1  H16B15237   2.384   2.714  14.591  0.2120 -1.9968  2.4993
  122CHL1   C1715238   2.211   2.811  14.486 -0.2367 -1.0582  1.0396
  122CHL1   H1715239   2.291   2.888  14.495 -1.1892  0.0924 -0.0228
  122CHL1   C1315240   2.201   2.788  14.331 -0.2838  0.5350 -0.5702
  122CHL1   C1815241   2.068   2.703  14.306  0.5120  0.4105  0.4064
  122CHL1  H18A15242   1.991   2.783  14.299 -0.8556 -0.9174 -0.1772
  122CHL1  H18B15243   2.070   2.644  14.212  3.4309 -2.0452  1.8205
  122CHL1  H18C15244   2.047   2.628  14.385 -0.4699  0.2426 -0.0052
  122CHL1   C1215245   2.203   2.915  14.238 -0.2639  0.6135  0.0332
  122CHL1  H12A15246   2.114   2.976  14.261 -0.2724 -0.1919  2.4751
  122CHL1  H12B15247   2.291   2.975  14.269 -0.1490  0.4020  0.1220
  122CHL1   C1115248   2.214   2.872  14.092  0.2931  0.3765  0.8293
  122CHL1  H11A15249   2.127   2.808  14.068  1.6754 -0.9908 -0.8293
  122CHL1  H11B15250   2.203   2.964  14.031 -1.8179  0.3053  1.0369
  122CHL1    C915251   2.337   2.780  14.064  0.5247  0.0669  0.2232
  122CHL1    H915252   2.428   2.844  14.070  1.0209 -0.4509 -1.2872
  122CHL1   C1015253   2.350   2.739  13.919 -1.2152  1.2307  0.4766
  122CHL1   C1915254   2.214   2.698  13.849  0.2437  0.3849 -0.2730
  122CHL1  H19A15255   2.222   2.641  13.754 -0.5580 -1.3027  0.6056
  122CHL1  H19B15256   2.154   2.629  13.914 -1.2601  1.1327 -0.8285
  122CHL1  H19C15257   2.148   2.787  13.843 -0.1106  0.0718 -1.1179
  122CHL1    C115258   2.394   2.861  13.829 -0.8332  0.2988  0.4017
  122CHL1   H1A15259   2.303   2.920  13.803 -0.5421  0.3068 -0.6357
  122CHL1   H1B15260   2.475   2.917  13.880  0.0952  1.5283 -2.2321
  122CHL1    C215261   2.449   2.827  13.688  0.7607  0.3135  0.0342
  122CHL1   H2A15262   2.490   2.918  13.639  1.6322 -1.3859 -2.6332
  122CHL1   H2B15263   2.375   2.777  13.622  2.7054 -2.2268 -0.3890
  122CHL1   C2015264   2.096   2.854  14.576  0.1391 -0.4326  0.1544
  122CHL1   H2015265   2.004   2.793  14.568 -1.0579  1.4451 -1.2142
  122CHL1   C2115266   2.048   2.993  14.535 -0.1039  0.4300 -0.2188
  122CHL1  H21A15267   1.962   3.020  14.600  0.2372  1.4296 -0.1722
  122CHL1  H21B15268   2.026   2.998  14.426  4.1627  2.3487 -1.2171
  122CHL1  H21C15269   2.123   3.074  14.546  0.0494  0.4070 -1.0134
  122CHL1   C2215270   2.152   2.859  14.733  0.3999 -1.1355  0.2639
  122CHL1  H22A15271   2.168   2.760  14.780  0.0561 -0.2911  2.2872
  122CHL1  H22B15272   2.246   2.917  14.723  0.6891 -1.5215  0.7515
  122CHL1   C2315273   2.056   2.935  14.834 -0.4455  0.2988  0.0144
  122CHL1  H23A15274   2.110   2.947  14.931  0.3726 -1.2235 -0.2322
  122CHL1  H23B15275   2.029   3.038  14.801  1.9815  0.4201 -1.8182
  122CHL1   C2415276   1.931   2.850  14.864 -0.0852  0.7361  0.2406
  122CHL1  H24A15277   1.866   2.846  14.774 -1.1768 -1.0017  1.0545
  122CHL1  H24B15278   1.960   2.745  14.886 -2.4184  0.1368  0.7178
  122CHL1   C2515279   1.849   2.903  14.988 -0.2543  0.3107 -0.8359
  122CHL1   H2515280   1.917   2.909  15.076  0.3664  0.9766 -1.3512
  122CHL1   C2615281   1.809   3.050  14.961  0.1185  0.3963 -0.6417
  122CHL1  H26A15282   1.728   3.082  15.030 -0.0319 -5.2389  2.3412
  122CHL1  H26B15283   1.901   3.114  14.961 -1.3942  2.8179  1.8024
  122CHL1  H26C15284   1.770   3.053  14.857  0.5098 -1.9737 -0.9152
  122CHL1   C2715285   1.729   2.808  15.017  0.5974 -0.5024  0.3278
  122CHL1  H27A15286   1.662   2.859  15.090 -1.0858 -0.9997 -0.8201
  122CHL1  H27B15287   1.660   2.799  14.930 -0.5028  0.7134  1.0381
  122CHL1  H27C15288   1.756   2.711  15.065  2.1727 -0.3516 -0.2013
  123CHL1    C315289   6.271   2.843  13.909 -0.5088  0.7723 -0.0957
  123CHL1    H315290   6.291   2.736  13.886 -0.7973  0.5901  0.4802
  123CHL1    O315291   6.256   2.906  13.786  0.2062 -0.0157  0.4691
  123CHL1   H3'15292   6.298   2.991  13.797 -1.3902  0.7215  1.2710
  123CHL1    C415293   6.139   2.851  13.996 -0.5409  0.2318 -0.0995
  123CHL1   H4A15294   6.100   2.955  13.995 -2.4568 -0.4519  0.2188
  123CHL1   H4B15295   6.056   2.797  13.945  0.0939 -0.9045  0.0452
  123CHL1    C515296   6.160   2.808  14.140  0.1650 -0.1182  0.0962
  123CHL1    C615297   6.091   2.710  14.193 -0.0479 -0.1450 -0.0241
  123CHL1    H615298   6.006   2.663  14.141 -0.7998  0.0159  1.0326
  123CHL1    C715299   6.104   2.669  14.333 -0.2447 -0.0926  0.0155
  123CHL1   H7A15300   5.999   2.665  14.369 -0.4504  0.9590 -0.4403
  123CHL1   H7B15301   6.144   2.565  14.337 -0.6210 -0.2218  0.6811
  123CHL1    C815302   6.178   2.774  14.422 -0.5076 -0.6163 -0.5099
  123CHL1    H815303   6.116   2.865  14.431  2.7098  1.6075  0.8839
  123CHL1   C1415304   6.209   2.716  14.559  0.3955  0.5883  0.2028
  123CHL1   H1415305   6.267   2.623  14.541 -1.9112 -0.8206 -0.3235
  123CHL1   C1515306   6.094   2.656  14.652 -0.6767 -0.1641 -0.8900
  123CHL1  H15A15307   6.005   2.722  14.646  0.8588  2.6478  2.7851
  123CHL1  H15B15308   6.079   2.552  14.615 -0.9722  0.0671 -1.4282
  123CHL1   C1615309   6.156   2.648  14.799 -0.2065 -0.2353 -0.6288
  123CHL1  H16A15310   6.090   2.705  14.868 -0.6387  3.5935 -3.8320
  123CHL1  H16B15311   6.165   2.549  14.847  0.2720  1.0538  2.1023
  123CHL1   C1715312   6.289   2.720  14.776 -0.4850 -0.4743  0.7115
  123CHL1   H1715313   6.356   2.638  14.740 -0.0518 -0.0539  0.5435
  123CHL1   C1315314   6.283   2.805  14.652  0.2459 -0.1945  0.1339
  123CHL1   C1815315   6.212   2.940  14.678 -0.4191  0.0390 -0.3079
  123CHL1  H18A15316   6.216   3.007  14.589  1.1424 -0.1051 -0.3882
  123CHL1  H18B15317   6.106   2.930  14.709  0.0870  0.5244  1.7148
  123CHL1  H18C15318   6.259   2.999  14.759 -0.8464  0.3987 -0.3185
  123CHL1   C1215319   6.417   2.833  14.588 -0.8643 -0.3969  0.6285
  123CHL1  H12A15320   6.491   2.879  14.658 -0.8406  0.3093  0.1508
  123CHL1  H12B15321   6.464   2.734  14.570  0.3593 -0.2883  2.8286
  123CHL1   C1115322   6.411   2.892  14.450 -0.3113  0.1281  0.7734
  123CHL1  H11A15323   6.395   3.002  14.448  3.5654  0.8353 -1.0800
  123CHL1  H11B15324   6.513   2.877  14.408 -1.4550 -0.3724 -2.0148
  123CHL1    C915325   6.312   2.809  14.354 -0.0477  0.7571  0.2258
  123CHL1    H915326   6.361   2.712  14.331  0.5513  1.1711 -0.2681
  123CHL1   C1015327   6.273   2.879  14.218 -0.5330  0.1545 -0.2782
  123CHL1   C1915328   6.240   3.027  14.240  0.5963  0.3524 -0.1688
  123CHL1  H19A15329   6.189   3.031  14.339 -0.0711 -0.4148 -0.4656
  123CHL1  H19B15330   6.323   3.101  14.239 -0.4579  1.5609 -0.5011
  123CHL1  H19C15331   6.166   3.058  14.164  1.3726 -1.7170 -1.8598
  123CHL1    C115332   6.404   2.856  14.129 -0.4783  0.6438 -0.1570
  123CHL1   H1A15333   6.477   2.918  14.185  0.8518 -1.9202  1.1485
  123CHL1   H1B15334   6.442   2.752  14.140  1.5318  1.2925 -0.4269
  123CHL1    C215335   6.392   2.898  13.981 -0.5649  0.0978 -0.0636
  123CHL1   H2A15336   6.488   2.870  13.931 -0.2070 -0.5919  0.9950
  123CHL1   H2B15337   6.373   3.008  13.975  2.2720  0.6432 -0.5080
  123CHL1   C2015338   6.370   2.784  14.897  0.4782 -0.3722 -0.0500
  123CHL1   H2015339   6.431   2.869  14.858 -0.7803  1.2360  1.3754
  123CHL1   C2115340   6.477   2.681  14.949 -0.7976 -0.0911 -0.1616
  123CHL1  H21A15341   6.437   2.581  14.973  1.6944 -0.3371  3.8638
  123CHL1  H21B15342   6.535   2.719  15.035 -0.1429 -0.6961 -0.3190
  123CHL1  H21C15343   6.552   2.660  14.869  0.4789 -1.9548  1.4435
  123CHL1   C2215344   6.276   2.841  15.003  0.4321  0.1287  0.7105
  123CHL1  H22A15345   6.190   2.895  14.958  1.8600  1.1182 -0.9704
  123CHL1  H22B15346   6.225   2.767  15.068 -0.2816  0.8950  1.0458
  123CHL1   C2315347   6.354   2.935  15.092  0.6830  0.5714 -0.8265
  123CHL1  H23A15348   6.441   2.880  15.135  1.1506  2.2735  0.5330
  123CHL1  H23B15349   6.397   3.027  15.047  3.3017  0.5114  1.2991
  123CHL1   C2415350   6.258   2.980  15.206  0.1861  0.6774 -0.4259
  123CHL1  H24A15351   6.190   3.053  15.158  0.3156  1.9267  1.2002
  123CHL1  H24B15352   6.201   2.897  15.254  3.2190 -1.0040  0.6241
  123CHL1   C2515353   6.334   3.057  15.316  0.2232 -0.0834 -0.1929
  123CHL1   H2515354   6.415   2.988  15.347  2.0688  0.4075 -3.4095
  123CHL1   C2615355   6.387   3.191  15.274  0.2100  0.1615 -0.2319
  123CHL1  H26A15356   6.418   3.247  15.365  1.4278 -1.6456  0.5050
  123CHL1  H26B15357   6.476   3.184  15.209  0.4501  1.3333 -0.0573
  123CHL1  H26C15358   6.319   3.258  15.216  0.2981  0.8634  0.4510
  123CHL1   C2715359   6.245   3.094  15.433  0.3978 -0.4171 -0.0517
  123CHL1  H27A15360   6.300   3.148  15.513  2.9301  0.9498 -2.4892
  123CHL1  H27B15361   6.166   3.165  15.398  0.7384 -0.5985 -1.2296
  123CHL1  H27C15362   6.189   3.013  15.483  0.3750 -0.8733 -0.7896
  124CHL1    C315363   4.145   4.688  13.659 -0.6662 -0.4306 -0.0584
  124CHL1    H315364   4.056   4.624  13.675 -0.5284 -1.3232 -2.4975
  124CHL1    O315365   4.170   4.727  13.525  0.3901  0.0208  0.0955
  124CHL1   H3'15366   4.230   4.662  13.488  1.5267  0.8148  0.5063
  124CHL1    C415367   4.124   4.812  13.756 -0.0415  0.3344 -0.1660
  124CHL1   H4A15368   4.212   4.880  13.760 -0.8926  1.4345 -0.0081
  124CHL1   H4B15369   4.033   4.867  13.725  0.5524  0.6783 -1.3778
  124CHL1    C515370   4.125   4.769  13.904  0.2293  0.2217  0.5089
  124CHL1    C615371   4.024   4.804  13.983 -0.2529 -0.8400  0.3231
  124CHL1    H615372   3.950   4.876  13.947 -0.3823 -2.0620 -2.0832
  124CHL1    C715373   4.012   4.774  14.133  0.7616  0.1336  0.0728
  124CHL1   H7A15374   3.961   4.851  14.196  0.5066 -0.4754  0.6322
  124CHL1   H7B15375   3.949   4.683  14.140 -1.7506  1.4385 -2.8113
  124CHL1    C815376   4.152   4.737  14.195  0.1805  0.2427  0.0557
  124CHL1    H815377   4.217   4.826  14.207  0.3803 -0.2052  2.8177
  124CHL1   C1415378   4.132   4.665  14.329 -0.1098  0.4571 -0.7832
  124CHL1   H1415379   4.067   4.578  14.304  0.2810 -0.0082 -0.1774
  124CHL1   C1515380   4.047   4.738  14.437 -0.4834 -0.6905  0.3495
  124CHL1  H15A15381   4.096   4.838  14.442  0.5544 -1.1924  0.6668
  124CHL1  H15B15382   3.942   4.752  14.405 -0.7528 -0.5016  1.3009
  124CHL1   C1615383   4.070   4.649  14.558  0.3563  0.1002 -0.2718
  124CHL1  H16A15384   4.093   4.714  14.645 -2.9024  0.5367  0.3958
  124CHL1  H16B15385   3.975   4.598  14.585  1.2206  0.2534  3.5887
  124CHL1   C1715386   4.182   4.547  14.526 -0.3967  0.3818 -0.2984
  124CHL1   H1715387   4.128   4.457  14.493 -0.2880 -1.0149  2.9532
  124CHL1   C1315388   4.251   4.606  14.397 -0.0586 -1.4274 -0.2923
  124CHL1   C1815389   4.351   4.710  14.443 -0.1273  0.2743  0.3515
  124CHL1  H18A15390   4.315   4.800  14.497  0.2216  0.7598 -0.2132
  124CHL1  H18B15391   4.433   4.661  14.499 -1.2058  0.8795  2.5669
  124CHL1  H18C15392   4.389   4.755  14.348  0.2430 -0.4886  0.1371
  124CHL1   C1215393   4.317   4.504  14.300  0.2700  0.3605 -0.1179
  124CHL1  H12A15394   4.411   4.460  14.339 -0.5268 -0.6823  0.6684
  124CHL1  H12B15395   4.248   4.421  14.275  0.9505  0.4826 -2.6229
  124CHL1   C1115396   4.346   4.576  14.165  0.1094 -0.5127  0.1281
  124CHL1  H11A15397   4.424   4.654  14.178 -1.9110  1.6337  0.0079
  124CHL1  H11B15398   4.388   4.500  14.095 -0.6228 -0.2882 -0.5719
  124CHL1    C915399   4.219   4.632  14.103  0.3732 -0.3354 -0.7323
  124CHL1    H915400   4.144   4.550  14.099  0.1444 -0.1984  0.3558
  124CHL1   C1015401   4.244   4.682  13.957 -0.8141  0.2839  0.2423
  124CHL1   C1915402   4.369   4.766  13.962  0.2030 -0.0748 -0.1638
  124CHL1  H19A15403   4.383   4.826  13.870 -3.5717  0.1670 -0.7138
  124CHL1  H19B15404   4.357   4.842  14.042  1.3963  2.6138 -2.3619
  124CHL1  H19C15405   4.463   4.707  13.971  0.0689 -0.4844 -1.3224
  124CHL1    C115406   4.256   4.565  13.850 -0.3051 -0.2215  0.3362
  124CHL1   H1A15407   4.348   4.506  13.869 -0.8471 -2.3226 -2.7841
  124CHL1   H1B15408   4.175   4.491  13.860 -0.9589  0.4153 -0.1417
  124CHL1    C215409   4.274   4.608  13.698  0.6546  0.3861  0.1242
  124CHL1   H2A15410   4.290   4.513  13.644  1.0963  0.3671  0.2874
  124CHL1   H2B15411   4.363   4.672  13.682  1.5709 -0.9328 -0.2177
  124CHL1   C2015412   4.256   4.491  14.650 -0.9787 -0.6758 -0.4863
  124CHL1   H2015413   4.320   4.573  14.688 -1.0248 -0.9213  0.1271
  124CHL1   C2115414   4.346   4.373  14.617 -0.4106  0.3980  0.3901
  124CHL1  H21A15415   4.392   4.335  14.710  0.4729  0.8286  0.1378
  124CHL1  H21B15416   4.427   4.390  14.543 -0.9345  1.4016  0.0167
  124CHL1  H21C15417   4.296   4.285  14.570  1.6452 -1.2878  1.1829
  124CHL1   C2215418   4.165   4.449  14.773  0.3646  0.3872  0.3694
  124CHL1  H22A15419   4.231   4.412  14.854  0.4376  0.0263  0.1504
  124CHL1  H22B15420   4.105   4.533  14.814 -3.2683 -1.1640 -1.2486
  124CHL1   C2315421   4.074   4.324  14.755  0.6624  0.1815 -0.3647
  124CHL1  H23A15422   4.005   4.320  14.668  0.9954 -2.7341 -0.6179
  124CHL1  H23B15423   4.131   4.230  14.735 -0.5513 -1.2217  2.2244
  124CHL1   C2415424   3.984   4.300  14.881  0.0130 -0.5903 -0.0777
  124CHL1  H24A15425   3.969   4.404  14.918  2.1849 -0.1455 -0.3038
  124CHL1  H24B15426   3.891   4.250  14.848 -1.1061 -0.2999  2.4556
  124CHL1   C2515427   4.064   4.234  14.996 -0.1172  0.3520 -0.2361
  124CHL1   H2515428   4.165   4.278  15.011 -1.1326  2.6679  0.2187
  124CHL1   C2615429   3.982   4.235  15.125  0.1668 -0.2237  0.0177
  124CHL1  H26A15430   4.034   4.172  15.200  2.4051 -0.7047 -1.8186
  124CHL1  H26B15431   3.976   4.338  15.167 -0.0437  0.0292 -0.6209
  124CHL1  H26C15432   3.882   4.197  15.097  1.2422 -1.5594 -2.3037
  124CHL1   C2715433   4.090   4.080  14.964 -0.0017  0.4318 -0.6821
  124CHL1  H27A15434   3.993   4.029  14.945  0.7798 -1.6802  0.5464
  124CHL1  H27B15435   4.166   4.069  14.884  0.0061 -0.6556 -0.5510
  124CHL1  H27C15436   4.125   4.028  15.056 -0.1393  0.7520 -0.4479
  125CHL1    C315437   4.736   4.449  13.777  0.2352 -0.2616 -0.2870
  125CHL1    H315438   4.640   4.500  13.753 -0.2234 -1.3161 -0.7620
  125CHL1    O315439   4.786   4.397  13.657  0.4588  0.4598  0.0972
  125CHL1   H3'15440   4.882   4.399  13.658  0.5341 -1.3528 -0.0248
  125CHL1    C415441   4.842   4.540  13.840 -0.2318 -0.0424 -0.2645
  125CHL1   H4A15442   4.939   4.487  13.835  0.2736  0.6601  1.5294
  125CHL1   H4B15443   4.859   4.630  13.777 -0.0032  0.1273  0.0392
  125CHL1    C515444   4.817   4.572  13.982 -0.3940  0.7013 -0.2095
  125CHL1    C615445   4.793   4.703  14.016  0.4282  0.1579  0.7445
  125CHL1    H615446   4.800   4.782  13.939 -0.0534  0.1113  0.6525
  125CHL1    C715447   4.776   4.752  14.157 -0.0943 -0.5610  0.7592
  125CHL1   H7A15448   4.856   4.824  14.182 -1.3193  1.1233  0.0670
  125CHL1   H7B15449   4.676   4.799  14.171  0.3125  1.1648 -1.5106
  125CHL1    C815450   4.799   4.637  14.257 -0.2799  0.2556  0.1756
  125CHL1    H815451   4.909   4.622  14.252 -0.3190  0.5172 -2.8047
  125CHL1   C1415452   4.755   4.675  14.391 -0.2691  0.5146  0.0150
  125CHL1   H1415453   4.644   4.676  14.389 -0.3248 -0.7040  0.9476
  125CHL1   C1515454   4.804   4.807  14.450 -0.2335 -0.3177 -0.0974
  125CHL1  H15A15455   4.909   4.833  14.424  0.0931 -2.3835 -1.1137
  125CHL1  H15B15456   4.744   4.887  14.401 -1.4468 -1.9276 -1.3911
  125CHL1   C1615457   4.796   4.791  14.608  0.0994 -0.5717  0.0402
  125CHL1  H16A15458   4.898   4.789  14.653 -0.3494  1.3979  1.2461
  125CHL1  H16B15459   4.749   4.878  14.658  0.3514  0.3218 -1.2453
  125CHL1   C1715460   4.732   4.646  14.630 -0.8211  0.1745 -0.6524
  125CHL1   H1715461   4.625   4.668  14.607 -0.4242  0.6250 -2.1562
  125CHL1   C1315462   4.782   4.569  14.505 -0.5747  0.4393 -0.2080
  125CHL1   C1815463   4.933   4.540  14.523  0.5952  0.4925  0.4007
  125CHL1  H18A15464   4.970   4.506  14.424 -3.9418 -0.6378 -1.1804
  125CHL1  H18B15465   4.984   4.628  14.566 -1.3695  1.6308  0.5355
  125CHL1  H18C15466   4.928   4.457  14.597 -0.3898  1.3927  1.3882
  125CHL1   C1215467   4.704   4.446  14.465  0.0544 -0.0889 -0.1972
  125CHL1  H12A15468   4.711   4.373  14.548  1.0326  2.5224  2.1696
  125CHL1  H12B15469   4.594   4.466  14.470  0.0124 -0.2452 -0.4689
  125CHL1   C1115470   4.739   4.400  14.325 -0.0597  0.6463 -0.3056
  125CHL1  H11A15471   4.841   4.356  14.325  0.6959  2.3250 -0.3075
  125CHL1  H11B15472   4.672   4.313  14.306  3.4199 -2.1531 -0.8775
  125CHL1    C915473   4.737   4.506  14.213  0.4875  0.0378 -0.3585
  125CHL1    H915474   4.630   4.531  14.196  0.0293 -0.5135  1.4538
  125CHL1   C1015475   4.793   4.463  14.072 -0.0543 -0.2209  0.3749
  125CHL1   C1915476   4.927   4.386  14.092  0.0637  0.3347 -0.2496
  125CHL1  H19A15477   5.005   4.439  14.151 -1.0099  1.4268  0.2263
  125CHL1  H19B15478   4.911   4.290  14.145 -1.0083  1.0297  0.7351
  125CHL1  H19C15479   4.983   4.361  13.999  0.7556 -0.5962  0.4046
  125CHL1    C115480   4.677   4.373  14.008 -0.1453 -0.2086 -0.2480
  125CHL1   H1A15481   4.647   4.294  14.080 -1.3347  0.6362  0.2179
  125CHL1   H1B15482   4.586   4.436  14.002 -0.4502 -0.4483  1.4403
  125CHL1    C215483   4.700   4.330  13.863 -0.3887  0.1601 -0.5180
  125CHL1   H2A15484   4.620   4.266  13.821  0.8617  0.1578 -3.1128
  125CHL1   H2B15485   4.789   4.263  13.860  0.4640  1.2806 -1.3142
  125CHL1   C2015486   4.766   4.601  14.769 -0.0764  0.4560  0.2517
  125CHL1   H2015487   4.875   4.581  14.777  0.2286  1.4804 -1.1252
  125CHL1   C2115488   4.697   4.463  14.789  0.2661  0.0898 -0.2307
  125CHL1  H21A15489   4.700   4.435  14.897  3.3605  2.3989  0.4475
  125CHL1  H21B15490   4.762   4.382  14.747  1.4452 -0.2358  2.0429
  125CHL1  H21C15491   4.592   4.455  14.756  0.4231 -1.0012 -0.5439
  125CHL1   C2215492   4.717   4.696  14.880  0.6303  0.0518 -0.2906
  125CHL1  H22A15493   4.767   4.796  14.879  0.1599  0.3016  0.3712
  125CHL1  H22B15494   4.609   4.718  14.867  0.3782 -0.8969  0.1749
  125CHL1   C2315495   4.742   4.648  15.022 -0.1765  0.4003  0.0115
  125CHL1  H23A15496   4.674   4.562  15.041 -0.1786  0.2892 -0.4868
  125CHL1  H23B15497   4.847   4.614  15.031 -0.1730  0.6313  0.8606
  125CHL1   C2415498   4.706   4.751  15.132  0.0429 -0.0724 -0.3147
  125CHL1  H24A15499   4.786   4.828  15.134 -0.8942  0.9468 -1.0453
  125CHL1  H24B15500   4.614   4.805  15.103  0.2888  0.5316  0.0316
  125CHL1   C2515501   4.667   4.689  15.270  0.5187  0.4409 -0.2709
  125CHL1   H2515502   4.665   4.773  15.343  0.2072 -2.4890  3.4314
  125CHL1   C2615503   4.531   4.624  15.267 -0.0285 -0.2867  0.3860
  125CHL1  H26A15504   4.491   4.608  15.370  0.5012 -1.3545  0.4328
  125CHL1  H26B15505   4.465   4.692  15.209  1.5437  1.1245  0.1721
  125CHL1  H26C15506   4.538   4.526  15.216  0.9631  0.7532 -1.5668
  125CHL1   C2715507   4.776   4.589  15.323  0.5447 -0.2267 -0.7319
  125CHL1  H27A15508   4.765   4.545  15.424  3.5202 -2.7523 -1.3393
  125CHL1  H27B15509   4.788   4.509  15.247 -0.7009 -1.3468  0.2254
  125CHL1  H27C15510   4.867   4.653  15.333 -1.2630  2.2077  1.5819
  126CHL1    C315511   3.771   4.443  13.817  0.1193 -0.2483  0.1115
  126CHL1    H315512   3.664   4.464  13.799 -0.0915  1.1040  2.5243
  126CHL1    O315513   3.856   4.448  13.701 -0.1363 -0.2800 -0.9109
  126CHL1   H3'15514   3.842   4.371  13.645  0.4433  0.3941 -2.0285
  126CHL1    C415515   3.814   4.544  13.922 -1.0564  0.4503  0.5801
  126CHL1   H4A15516   3.921   4.521  13.934 -0.8046  0.1243 -1.7309
  126CHL1   H4B15517   3.807   4.643  13.871  1.2016  0.4138  0.0882
  126CHL1    C515518   3.740   4.531  14.055 -0.3691 -0.3493 -0.3508
  126CHL1    C615519   3.670   4.634  14.104 -0.4336  0.8087 -0.6208
  126CHL1    H615520   3.684   4.731  14.054 -2.0865  1.1755 -0.4200
  126CHL1    C715521   3.602   4.626  14.238 -0.0841 -0.0320 -0.5425
  126CHL1   H7A15522   3.642   4.716  14.290 -0.3035  1.0623 -2.1709
  126CHL1   H7B15523   3.492   4.635  14.228  0.1118  4.0541 -0.5597
  126CHL1    C815524   3.640   4.502  14.330 -0.8713  0.5613 -0.0411
  126CHL1    H815525   3.742   4.518  14.369 -0.1371  0.3584 -1.7851
  126CHL1   C1415526   3.539   4.476  14.437 -0.2113 -0.0081  0.3811
  126CHL1   H1415527   3.443   4.460  14.383 -0.4680  1.7139  0.2600
  126CHL1   C1515528   3.502   4.589  14.536  0.0171 -0.3286 -0.0553
  126CHL1  H15A15529   3.591   4.652  14.558  0.3418 -0.6447 -0.4305
  126CHL1  H15B15530   3.429   4.663  14.496  0.7685 -0.4835 -1.8206
  126CHL1   C1615531   3.463   4.523  14.666  0.5396  0.5398  0.6360
  126CHL1  H16A15532   3.536   4.548  14.746 -0.1269  0.1671  1.3684
  126CHL1  H16B15533   3.367   4.557  14.710 -0.1124  1.6142 -1.4648
  126CHL1   C1715534   3.469   4.372  14.631 -0.4114  0.5225 -0.4421
  126CHL1   H1715535   3.376   4.353  14.572 -0.5276  1.8420 -0.7252
  126CHL1   C1315536   3.579   4.360  14.523  0.0192  0.6390 -0.6875
  126CHL1   C1815537   3.723   4.379  14.599  0.5998 -0.0634 -0.4232
  126CHL1  H18A15538   3.737   4.295  14.669  0.3488 -0.0874 -0.3997
  126CHL1  H18B15539   3.811   4.373  14.532  1.4558 -0.2885  0.6991
  126CHL1  H18C15540   3.719   4.475  14.655 -1.9714 -1.3480  1.8714
  126CHL1   C1215541   3.572   4.240  14.435  0.0296 -0.7657  0.0297
  126CHL1  H12A15542   3.589   4.154  14.503 -0.0351 -1.3983 -0.7392
  126CHL1  H12B15543   3.478   4.235  14.377  1.0789 -1.1143 -1.7213
  126CHL1   C1115544   3.686   4.253  14.335 -0.2352 -0.0247 -0.7418
  126CHL1  H11A15545   3.789   4.252  14.378 -0.3235  2.3815 -0.3205
  126CHL1  H11B15546   3.694   4.164  14.269  2.6961 -0.1434 -0.3635
  126CHL1    C915547   3.655   4.376  14.243 -0.0222 -0.4983 -0.6982
  126CHL1    H915548   3.555   4.342  14.209 -0.6277  1.1149 -0.6090
  126CHL1   C1015549   3.742   4.393  14.115 -0.2036  0.5986 -0.4066
  126CHL1   C1915550   3.888   4.371  14.159 -0.3758 -0.0384  0.1581
  126CHL1  H19A15551   3.898   4.262  14.176  1.9038 -0.0122 -0.6466
  126CHL1  H19B15552   3.979   4.399  14.101 -0.7281 -1.8170 -1.3304
  126CHL1  H19C15553   3.898   4.416  14.260  0.5113  1.4224 -0.5430
  126CHL1    C115554   3.692   4.302  14.000  0.1938  0.3248  0.0590
  126CHL1   H1A15555   3.684   4.201  14.046  1.2898  0.4038  0.4685
  126CHL1   H1B15556   3.588   4.339  13.989  0.1905  0.7919  1.4345
  126CHL1    C215557   3.779   4.302  13.874  0.2481 -0.4137 -0.3585
  126CHL1   H2A15558   3.733   4.240  13.795  1.2685  0.7117 -1.9042
  126CHL1   H2B15559   3.885   4.275  13.892  0.6188  0.6137 -0.9234
  126CHL1   C2015560   3.469   4.274  14.752 -0.1492 -0.7009  0.1102
  126CHL1   H2015561   3.541   4.191  14.737  0.2895 -0.5967  1.5107
  126CHL1   C2115562   3.335   4.207  14.738 -0.2648  0.3292  0.5671
  126CHL1  H21A15563   3.337   4.119  14.805  0.3568  0.1667  0.3435
  126CHL1  H21B15564   3.319   4.152  14.643 -2.2320 -1.6020  1.9119
  126CHL1  H21C15565   3.246   4.269  14.764 -2.6005 -2.5196 -0.0941
  126CHL1   C2215566   3.487   4.333  14.896  0.4843  0.5775  0.2763
  126CHL1  H22A15567   3.585   4.384  14.888  0.4168  0.5238 -1.1843
  126CHL1  H22B15568   3.404   4.400  14.924 -1.6525 -2.5671  2.1831
  126CHL1   C2315569   3.503   4.227  15.003 -0.9034  0.5336 -0.2919
  126CHL1  H23A15570   3.413   4.163  15.008  0.0708 -0.7884  1.9638
  126CHL1  H23B15571   3.591   4.160  14.988 -1.7926 -0.5327 -0.9657
  126CHL1   C2415572   3.535   4.270  15.155  0.3291  0.0756 -0.3764
  126CHL1  H24A15573   3.641   4.303  15.162  1.2440 -2.7701  0.9854
  126CHL1  H24B15574   3.470   4.357  15.177 -0.0959 -0.6429  1.3659
  126CHL1   C2515575   3.503   4.164  15.274 -0.2782 -0.2564 -0.8079
  126CHL1   H2515576   3.394   4.145  15.270  0.1065 -3.1047  0.0476
  126CHL1   C2615577   3.582   4.036  15.245 -0.6244  0.2863  0.1575
  126CHL1  H26A15578   3.551   3.951  15.310 -1.1755 -0.6958 -1.3286
  126CHL1  H26B15579   3.559   4.015  15.138 -1.0238  2.3906 -0.2089
  126CHL1  H26C15580   3.690   4.055  15.259 -0.3751  0.2176 -1.4968
  126CHL1   C2715581   3.538   4.225  15.410  0.1314 -0.5391  0.3083
  126CHL1  H27A15582   3.531   4.145  15.487  0.0972 -0.9709 -0.1443
  126CHL1  H27B15583   3.643   4.260  15.399 -0.4775  1.0301 -0.9080
  126CHL1  H27C15584   3.467   4.307  15.435  0.1163 -0.6477  0.6202
  127CHL1    C315585   3.726   5.361  13.452 -0.2019  0.5295  0.0766
  127CHL1    H315586   3.837   5.364  13.463 -0.3433  3.8406  2.0485
  127CHL1    O315587   3.702   5.376  13.312  0.5253  0.6437 -0.4382
  127CHL1   H3'15588   3.616   5.419  13.311 -0.6489 -1.5394  0.7344
  127CHL1    C415589   3.663   5.229  13.506  0.2997 -0.1951  0.4014
  127CHL1   H4A15590   3.557   5.239  13.473 -0.5126  3.6539  3.4251
  127CHL1   H4B15591   3.699   5.146  13.441 -0.8450  1.3608 -2.3924
  127CHL1    C515592   3.690   5.209  13.652  0.0183  0.3773  0.1198
  127CHL1    C615593   3.752   5.100  13.701 -0.4103 -0.6138  0.4779
  127CHL1    H615594   3.798   5.025  13.636  3.0099  0.7176  1.1138
  127CHL1    C715595   3.755   5.066  13.842 -0.0308 -0.2904  0.5028
  127CHL1   H7A15596   3.716   4.963  13.851 -2.8374  0.8041  2.5652
  127CHL1   H7B15597   3.861   5.070  13.875 -0.8185 -0.4728  3.3876
  127CHL1    C815598   3.670   5.161  13.934  0.2442 -0.3508 -0.4077
  127CHL1    H815599   3.570   5.114  13.932  0.0194  0.1240 -0.3614
  127CHL1   C1415600   3.711   5.159  14.084  0.1833 -0.5665  0.1484
  127CHL1   H1415601   3.813   5.203  14.089  0.1233 -0.4959  1.0037
  127CHL1   C1515602   3.724   5.025  14.156  0.9943 -0.3997 -0.3505
  127CHL1  H15A15603   3.628   4.977  14.129 -1.5596  4.3458 -0.8111
  127CHL1  H15B15604   3.810   4.969  14.113  0.3800  0.4832 -2.8771
  127CHL1   C1615605   3.731   5.066  14.309 -0.5136 -0.2326 -0.1547
  127CHL1  H16A15606   3.664   5.000  14.367  0.0264 -0.2942  0.4005
  127CHL1  H16B15607   3.830   5.044  14.354 -0.8066  0.9787  1.1642
  127CHL1   C1715608   3.695   5.217  14.316 -0.3014 -0.0032  0.1041
  127CHL1   H1715609   3.791   5.271  14.327  0.4160 -1.7278  4.9908
  127CHL1   C1315610   3.629   5.248  14.181 -0.2063 -0.0200 -0.2482
  127CHL1   C1815611   3.485   5.195  14.179  0.0363  0.1243  0.2037
  127CHL1  H18A15612   3.415   5.269  14.223  1.9029  2.5804 -0.7101
  127CHL1  H18B15613   3.452   5.190  14.073  0.6786 -1.6401  0.0673
  127CHL1  H18C15614   3.469   5.095  14.224  3.8049  0.0155  1.6144
  127CHL1   C1215615   3.652   5.390  14.126 -0.5340  0.4437  0.0237
  127CHL1  H12A15616   3.591   5.460  14.187 -0.2534  0.3868  0.3668
  127CHL1  H12B15617   3.759   5.418  14.130 -1.3117  4.0412 -0.1777
  127CHL1   C1115618   3.600   5.413  13.979  0.0462 -0.2025 -0.2425
  127CHL1  H11A15619   3.493   5.390  13.993 -0.3660  0.7630 -1.6458
  127CHL1  H11B15620   3.615   5.516  13.941  0.0659  0.5940  1.8116
  127CHL1    C915621   3.669   5.308  13.886  0.0254 -0.2981  0.9871
  127CHL1    H915622   3.777   5.331  13.896 -0.7260  3.8921  1.2389
  127CHL1   C1015623   3.628   5.320  13.737 -0.5993  0.7778 -0.1222
  127CHL1   C1915624   3.473   5.322  13.735  0.4452  0.0279  0.0417
  127CHL1  H19A15625   3.438   5.227  13.780  1.4313 -1.2658 -1.7962
  127CHL1  H19B15626   3.446   5.417  13.785  0.6339  1.2014 -1.9808
  127CHL1  H19C15627   3.424   5.336  13.636 -0.3456  1.8525  0.6525
  127CHL1    C115628   3.681   5.457  13.676  0.3415  0.2859  0.0207
  127CHL1   H1A15629   3.628   5.544  13.719 -0.1236  0.6646 -1.2554
  127CHL1   H1B15630   3.787   5.468  13.706  0.7266 -2.5151 -0.0280
  127CHL1    C215631   3.664   5.478  13.524 -0.2988  0.3383 -0.4730
  127CHL1   H2A15632   3.701   5.578  13.493 -0.0650  0.1158 -0.9290
  127CHL1   H2B15633   3.556   5.495  13.505 -0.7403  0.6365  1.9354
  127CHL1   C2015634   3.603   5.258  14.448  0.0985  0.6828  0.8821
  127CHL1   H2015635   3.501   5.217  14.435  1.0379 -1.3805 -0.6571
  127CHL1   C2115636   3.567   5.406  14.454  0.1945 -0.2274  0.1790
  127CHL1  H21A15637   3.658   5.470  14.449 -1.1582  1.7939  0.3818
  127CHL1  H21B15638   3.519   5.431  14.551  0.3905 -2.0814  0.7891
  127CHL1  H21C15639   3.499   5.439  14.373 -0.2318 -0.0989  0.5878
  127CHL1   C2215640   3.664   5.198  14.577  0.5474  0.0971  0.0299
  127CHL1  H22A15641   3.592   5.228  14.656  1.9696  3.8555  0.1203
  127CHL1  H22B15642   3.666   5.087  14.581 -1.3992  0.0105 -0.6139
  127CHL1   C2315643   3.799   5.262  14.609 -0.3857  0.7045 -0.9627
  127CHL1  H23A15644   3.872   5.213  14.540 -0.3104 -0.5130 -0.0501
  127CHL1  H23B15645   3.790   5.372  14.595 -2.1831  1.1496  2.5532
  127CHL1   C2415646   3.856   5.237  14.748  0.2728 -0.1839  0.4203
  127CHL1  H24A15647   3.784   5.275  14.823  0.8620  1.9304 -0.0030
  127CHL1  H24B15648   3.857   5.128  14.767 -1.2201 -0.1768  0.6418
  127CHL1   C2515649   3.998   5.301  14.765 -0.0487  0.3094  0.1639
  127CHL1   H2515650   4.058   5.277  14.675  1.4315 -1.2235  1.4877
  127CHL1   C2615651   3.998   5.447  14.800 -0.0667 -0.5214  0.4185
  127CHL1  H26A15652   3.933   5.501  14.727 -1.0098  0.8892  2.2125
  127CHL1  H26B15653   3.954   5.463  14.901  1.7741  1.0752  1.0302
  127CHL1  H26C15654   4.097   5.497  14.798  0.7142 -2.0059  1.0613
  127CHL1   C2715655   4.076   5.238  14.881  0.0644 -0.5707  0.2512
  127CHL1  H27A15656   4.025   5.272  14.974 -1.7999 -1.5396 -0.3704
  127CHL1  H27B15657   4.073   5.127  14.868 -0.6060 -0.4434 -0.7607
  127CHL1  H27C15658   4.184   5.264  14.877 -0.5803  2.2595 -0.6952
  128CHL1    C315659   3.175   0.661  12.940 -0.0847 -1.0922 -0.2276
  128CHL1    H315660   3.108   0.576  12.966 -0.2430 -1.1090 -0.6825
  128CHL1    O315661   3.129   0.720  12.821  0.0114 -0.7671  0.4196
  128CHL1   H3'15662   3.167   0.808  12.818 -0.4221 -0.5538  1.0032
  128CHL1    C415663   3.179   0.766  13.057  0.0542  0.3869  0.0008
  128CHL1   H4A15664   3.233   0.852  13.012  2.3396 -0.5322  0.8619
  128CHL1   H4B15665   3.074   0.791  13.085 -0.0165 -1.0909  1.1348
  128CHL1    C515666   3.252   0.726  13.178 -0.6754 -0.7604 -0.3101
  128CHL1    C615667   3.189   0.724  13.302 -0.1594  0.2303  0.5797
  128CHL1    H615668   3.087   0.765  13.305  0.1962  1.2773 -0.6764
  128CHL1    C715669   3.257   0.691  13.428 -0.3973  0.1703 -1.0779
  128CHL1   H7A15670   3.234   0.756  13.515 -0.7554 -2.8858  1.2825
  128CHL1   H7B15671   3.225   0.592  13.468  1.9468 -0.2142  0.0732
  128CHL1    C815672   3.410   0.700  13.405 -0.6393  0.9343  0.7885
  128CHL1    H815673   3.426   0.809  13.391 -0.5608  0.8937  0.5521
  128CHL1   C1415674   3.484   0.659  13.532  0.1145  0.9934  0.4543
  128CHL1   H1415675   3.462   0.554  13.561 -1.4728  0.3005 -2.7341
  128CHL1   C1515676   3.450   0.732  13.665  1.0201 -0.6132 -0.2269
  128CHL1  H15A15677   3.422   0.839  13.653  3.1655 -0.0907 -1.0047
  128CHL1  H15B15678   3.374   0.677  13.724  0.4483 -1.5037 -1.7439
  128CHL1   C1615679   3.579   0.735  13.742 -0.7182 -0.0226  0.0671
  128CHL1  H16A15680   3.624   0.836  13.754 -0.5985 -0.1284  0.5469
  128CHL1  H16B15681   3.558   0.697  13.844 -2.1080  0.9192  0.1560
  128CHL1   C1715682   3.682   0.658  13.662 -0.2096  0.1780  0.2198
  128CHL1   H1715683   3.678   0.552  13.694  0.3366  0.0750 -0.0429
  128CHL1   C1315684   3.639   0.670  13.512 -0.4722 -0.5399  0.0401
  128CHL1   C1815685   3.675   0.816  13.468 -0.1591  0.4539 -0.2345
  128CHL1  H18A15686   3.657   0.835  13.360  0.8719  0.3374 -0.4343
  128CHL1  H18B15687   3.630   0.892  13.536 -1.6910  1.1454 -1.9267
  128CHL1  H18C15688   3.784   0.834  13.476  0.1769  0.3471 -3.2395
  128CHL1   C1215689   3.667   0.558  13.416 -0.5682 -0.1382 -0.3188
  128CHL1  H12A15690   3.777   0.543  13.410 -0.5691 -0.4499  0.3472
  128CHL1  H12B15691   3.624   0.470  13.468 -1.0271  0.3994  0.2257
  128CHL1   C1115692   3.609   0.581  13.279 -0.0814 -0.6852 -0.2371
  128CHL1  H11A15693   3.661   0.666  13.231 -1.0760 -0.1548 -0.4013
  128CHL1  H11B15694   3.634   0.492  13.218  1.3159 -0.3212 -0.2294
  128CHL1    C915695   3.455   0.612  13.285 -0.5102  0.4801 -0.0817
  128CHL1    H915696   3.399   0.517  13.303 -1.6617  0.6840 -2.2758
  128CHL1   C1015697   3.394   0.676  13.160  0.1922  1.0805 -0.5062
  128CHL1   C1915698   3.483   0.797  13.120  0.1040 -0.0765  0.1686
  128CHL1  H19A15699   3.518   0.867  13.198  0.8354  1.2275 -1.2683
  128CHL1  H19B15700   3.573   0.764  13.063 -0.1544  2.3743 -1.8477
  128CHL1  H19C15701   3.432   0.858  13.042  0.3667 -0.7998 -0.5814
  128CHL1    C115702   3.388   0.568  13.047 -0.2804  0.5797  0.9042
  128CHL1   H1A15703   3.495   0.543  13.033 -0.2919  0.6223  0.7418
  128CHL1   H1B15704   3.340   0.475  13.087 -1.4244  0.7969  0.0871
  128CHL1    C215705   3.314   0.608  12.920  0.1601 -0.2376  0.1587
  128CHL1   H2A15706   3.301   0.521  12.852 -0.9637  0.4510 -0.5299
  128CHL1   H2B15707   3.378   0.682  12.867 -1.3548  0.0967 -1.2709
  128CHL1   C2015708   3.824   0.703  13.701 -0.4908  0.1459  0.4009
  128CHL1   H2015709   3.836   0.809  13.670 -0.2552  0.5624  1.8247
  128CHL1   C2115710   3.926   0.612  13.635  0.3887 -0.0110 -0.5161
  128CHL1  H21A15711   3.928   0.643  13.528 -0.2766  0.0982 -0.5026
  128CHL1  H21B15712   3.904   0.504  13.644 -0.4231  0.2650  1.4638
  128CHL1  H21C15713   4.028   0.633  13.674 -0.4445  5.6681 -0.5037
  128CHL1   C2215714   3.844   0.705  13.860  0.3145 -0.4031 -0.2205
  128CHL1  H22A15715   3.939   0.757  13.886 -0.3099  0.1885  0.9496
  128CHL1  H22B15716   3.768   0.774  13.905  0.1928  0.6435 -1.9438
  128CHL1   C2315717   3.825   0.571  13.936 -0.0487 -0.0328  0.0946
  128CHL1  H23A15718   3.736   0.515  13.898  1.1664 -0.6111 -2.0550
  128CHL1  H23B15719   3.910   0.508  13.903  2.7300  3.5899 -0.2701
  128CHL1   C2415720   3.822   0.591  14.088  0.6868 -0.0873  0.0274
  128CHL1  H24A15721   3.912   0.647  14.121  1.1193  0.5564 -2.0999
  128CHL1  H24B15722   3.736   0.652  14.123  1.6034  1.2801 -0.0714
  128CHL1   C2515723   3.823   0.455  14.162  0.5498 -0.1499 -0.3720
  128CHL1   H2515724   3.916   0.406  14.126  0.0652  0.3332 -2.4110
  128CHL1   C2615725   3.836   0.493  14.307  0.7130 -0.5050  0.5166
  128CHL1  H26A15726   3.917   0.567  14.318  0.3212  0.1445 -0.7723
  128CHL1  H26B15727   3.749   0.556  14.335  0.8768  0.7171 -1.5375
  128CHL1  H26C15728   3.854   0.406  14.374  0.0858 -1.0892 -0.0447
  128CHL1   C2715729   3.694   0.364  14.142 -0.4201 -0.5946 -0.0916
  128CHL1  H27A15730   3.717   0.284  14.215 -0.6485 -0.0744  0.5699
  128CHL1  H27B15731   3.601   0.415  14.175  1.3647  1.1267  2.7918
  128CHL1  H27C15732   3.685   0.317  14.042 -2.3107 -0.5802  0.0318
  129CHL1    C315733   5.433   4.607  13.476 -0.0024  0.2323 -0.3560
  129CHL1    H315734   5.511   4.529  13.491 -0.7676 -0.6897 -1.0253
  129CHL1    O315735   5.391   4.599  13.338 -0.3588  0.3872  0.2211
  129CHL1   H3'15736   5.358   4.509  13.329 -0.1631  0.0320  2.5449
  129CHL1    C415737   5.312   4.570  13.564  0.6685 -0.5505 -0.0046
  129CHL1   H4A15738   5.220   4.616  13.522  0.6377  0.2133  0.8730
  129CHL1   H4B15739   5.296   4.461  13.549  1.0247 -0.5720 -0.2483
  129CHL1    C515740   5.318   4.600  13.711 -0.1482 -0.3418 -0.2280
  129CHL1    C615741   5.297   4.502  13.803 -0.2463 -0.3201 -0.0374
  129CHL1    H615742   5.252   4.406  13.772  0.1717 -0.4295 -0.3199
  129CHL1    C715743   5.309   4.524  13.948 -0.2582  0.1188 -0.5781
  129CHL1   H7A15744   5.211   4.485  13.984 -0.4192  0.7213 -0.3362
  129CHL1   H7B15745   5.397   4.470  13.986 -0.1522 -1.0372 -2.3583
  129CHL1    C815746   5.301   4.680  13.982 -0.3159  0.2834 -0.6816
  129CHL1    H815747   5.196   4.711  13.964 -1.5571 -2.1392  1.5616
  129CHL1   C1415748   5.334   4.702  14.127 -0.0546  0.1434  0.1179
  129CHL1   H1415749   5.441   4.673  14.134 -0.4665 -1.1179  1.9631
  129CHL1   C1515750   5.252   4.622  14.225  0.2177  0.3538 -0.4714
  129CHL1  H15A15751   5.144   4.633  14.200  0.8804 -1.1556 -4.9197
  129CHL1  H15B15752   5.278   4.515  14.229 -1.5542 -0.1295 -0.7614
  129CHL1   C1615753   5.274   4.703  14.356  0.4906  0.4261 -0.0754
  129CHL1  H16A15754   5.174   4.738  14.389  0.7798  0.9529  0.2481
  129CHL1  H16B15755   5.325   4.649  14.439 -2.0527 -2.5889 -0.2501
  129CHL1   C1715756   5.358   4.832  14.329 -0.0963 -0.2252  0.1885
  129CHL1   H1715757   5.465   4.804  14.324  0.3535  1.4516 -0.2171
  129CHL1   C1315758   5.326   4.852  14.176  0.3213  0.1010 -0.1645
  129CHL1   C1815759   5.182   4.909  14.155 -0.8602  0.5202 -0.8340
  129CHL1  H18A15760   5.168   5.007  14.206 -2.1763  0.2235 -0.5815
  129CHL1  H18B15761   5.142   4.923  14.053 -0.4877  0.2234 -1.0231
  129CHL1  H18C15762   5.106   4.848  14.208  0.5295  0.7192  1.5301
  129CHL1   C1215763   5.441   4.924  14.099 -0.0690 -0.2334  0.1335
  129CHL1  H12A15764   5.432   5.032  14.125  2.6378  0.2407 -0.5890
  129CHL1  H12B15765   5.536   4.879  14.134 -0.3226 -1.4240 -0.6321
  129CHL1   C1115766   5.428   4.901  13.947 -0.0291  0.1581  0.3310
  129CHL1  H11A15767   5.339   4.961  13.917 -0.3353 -0.2005  0.5125
  129CHL1  H11B15768   5.505   4.943  13.879 -0.3989 -1.9679 -1.5044
  129CHL1    C915769   5.408   4.747  13.903  0.0222  0.2858  0.5147
  129CHL1    H915770   5.502   4.694  13.929  0.5500  1.6500  1.5118
  129CHL1   C1015771   5.382   4.732  13.750  0.0404  0.5077 -0.7564
  129CHL1   C1915772   5.279   4.840  13.707  0.3622  0.4520  0.3786
  129CHL1  H19A15773   5.203   4.838  13.789 -2.1155 -2.4425 -1.7558
  129CHL1  H19B15774   5.325   4.941  13.704 -0.1929  0.6900 -1.2957
  129CHL1  H19C15775   5.235   4.817  13.608 -1.6007 -1.6708  1.6434
  129CHL1    C115776   5.509   4.748  13.671 -0.2980  0.5612 -0.0284
  129CHL1   H1A15777   5.569   4.839  13.693 -1.6121  0.9483  2.2658
  129CHL1   H1B15778   5.571   4.664  13.708 -1.2826 -2.2286 -4.0731
  129CHL1    C215779   5.493   4.739  13.518  0.1359 -0.3404 -0.6282
  129CHL1   H2A15780   5.591   4.753  13.467  0.2342  0.4996 -0.2231
  129CHL1   H2B15781   5.422   4.821  13.491  1.3811  1.1434  0.4342
  129CHL1   C2015782   5.340   4.944  14.432  0.4558  0.0924  0.2150
  129CHL1   H2015783   5.241   4.986  14.404 -0.8696 -2.8521  0.1864
  129CHL1   C2115784   5.468   5.036  14.428  0.5607  0.1468  0.5789
  129CHL1  H21A15785   5.556   4.977  14.460  0.5109 -0.2691 -0.0298
  129CHL1  H21B15786   5.442   5.125  14.489  1.8637  0.0182  1.3490
  129CHL1  H21C15787   5.484   5.065  14.322 -0.2082  0.4797  0.5461
  129CHL1   C2215788   5.329   4.885  14.580  0.0276  0.6323  0.0595
  129CHL1  H22A15789   5.224   4.849  14.590  0.8846 -2.3296 -0.3521
  129CHL1  H22B15790   5.387   4.792  14.598  0.1501  0.0715 -2.7708
  129CHL1   C2315791   5.337   4.989  14.690  0.4474  0.4245  0.0886
  129CHL1  H23A15792   5.443   5.018  14.703  0.7506 -0.1238 -1.0713
  129CHL1  H23B15793   5.272   5.077  14.668 -2.7918 -1.7082  0.4422
  129CHL1   C2415794   5.275   4.926  14.818  0.0674 -0.1801 -0.2560
  129CHL1  H24A15795   5.165   4.917  14.801  0.1780 -1.7772 -0.2396
  129CHL1  H24B15796   5.307   4.823  14.841 -2.3425 -0.6083  1.6554
  129CHL1   C2515797   5.281   5.010  14.948  0.3681 -1.8540 -0.8471
  129CHL1   H2515798   5.390   5.012  14.970  0.3564 -2.0709 -0.7663
  129CHL1   C2615799   5.232   5.156  14.945  0.6739  0.2024  0.2618
  129CHL1  H26A15800   5.252   5.208  15.041 -1.1435 -0.8896  1.2919
  129CHL1  H26B15801   5.271   5.221  14.863 -1.1106 -0.1223 -0.9046
  129CHL1  H26C15802   5.122   5.147  14.931  0.5496 -0.4396  1.5734
  129CHL1   C2715803   5.211   4.940  15.064 -0.9279  0.1209 -0.8438
  129CHL1  H27A15804   5.113   4.912  15.020 -1.9054  3.4360 -0.9809
  129CHL1  H27B15805   5.278   4.859  15.100  0.3731  1.4376 -0.1986
  129CHL1  H27C15806   5.193   5.007  15.151  0.1834  1.3446 -1.5279
  130CHL1    C315807   3.282   5.603  13.525  0.0657  0.3004  0.3667
  130CHL1    H315808   3.378   5.556  13.557 -0.1912  0.2477  1.0772
  130CHL1    O315809   3.229   5.546  13.407 -0.1380 -0.1043  0.4245
  130CHL1   H3'15810   3.147   5.596  13.415 -0.5833 -0.9069  1.0345
  130CHL1    C415811   3.180   5.566  13.633  0.4070 -0.6647  0.2474
  130CHL1   H4A15812   3.077   5.596  13.602 -0.4781 -2.6003  1.1178
  130CHL1   H4B15813   3.183   5.456  13.647 -0.9303 -0.8103 -0.4197
  130CHL1    C515814   3.203   5.631  13.771  0.4224  0.0733  0.4268
  130CHL1    C615815   3.209   5.554  13.880  0.0966  0.5100 -0.9998
  130CHL1    H615816   3.183   5.447  13.886  2.5883 -0.0689  1.2082
  130CHL1    C715817   3.220   5.603  14.023 -0.3283  0.4163 -0.0877
  130CHL1   H7A15818   3.138   5.553  14.078  1.6272 -1.6242  1.1232
  130CHL1   H7B15819   3.313   5.559  14.065  0.0818  0.2874 -1.1004
  130CHL1    C815820   3.215   5.759  14.024 -0.9301  0.0929  0.9099
  130CHL1    H815821   3.108   5.786  14.026 -0.1856  3.4253  1.0814
  130CHL1   C1415822   3.279   5.812  14.151  0.6821  0.6847 -0.1092
  130CHL1   H1415823   3.388   5.790  14.143  0.6106  0.9446 -2.6218
  130CHL1   C1515824   3.243   5.737  14.286  0.0068  0.1152  0.5945
  130CHL1  H15A15825   3.132   5.728  14.289  0.0433 -0.1656  1.9713
  130CHL1  H15B15826   3.288   5.636  14.286  1.6414  0.8198  1.0620
  130CHL1   C1615827   3.281   5.827  14.396 -0.0867  0.9387  0.4332
  130CHL1  H16A15828   3.198   5.840  14.470  1.2413  1.7043  1.8428
  130CHL1  H16B15829   3.368   5.792  14.456 -0.3333 -0.1132  0.2009
  130CHL1   C1715830   3.324   5.965  14.326  0.5254  0.3927  0.2864
  130CHL1   H1715831   3.429   5.945  14.299 -0.0650 -0.4979 -1.4654
  130CHL1   C1315832   3.263   5.959  14.181  0.1359 -0.3853 -0.1586
  130CHL1   C1815833   3.110   6.014  14.186  0.2026  0.1117 -0.3018
  130CHL1  H18A15834   3.073   6.023  14.082 -0.6392  2.0657  0.1340
  130CHL1  H18B15835   3.047   5.953  14.254 -0.1244  0.3357 -0.4057
  130CHL1  H18C15836   3.110   6.118  14.225 -3.0295 -0.1675  0.7151
  130CHL1   C1215837   3.340   6.032  14.071  0.5446  1.4913  0.4821
  130CHL1  H12A15838   3.313   6.140  14.073 -1.6292  1.1147 -2.1712
  130CHL1  H12B15839   3.451   6.021  14.076  0.5920  1.7697  0.0934
  130CHL1   C1115840   3.297   5.992  13.930  0.0024  0.1703  0.3158
  130CHL1  H11A15841   3.192   6.027  13.915  0.4465  1.0908 -0.8695
  130CHL1  H11B15842   3.346   6.044  13.845  0.9584  0.8211  1.2510
  130CHL1    C915843   3.294   5.831  13.903  0.0495  0.0064 -0.1087
  130CHL1    H915844   3.398   5.792  13.900 -0.6315 -1.8274 -1.2721
  130CHL1   C1015845   3.239   5.780  13.767 -0.0034 -0.1205  0.1926
  130CHL1   C1915846   3.101   5.850  13.737 -0.0538  0.1845 -0.4888
  130CHL1  H19A15847   3.028   5.837  13.820  0.5972  1.2401  0.2624
  130CHL1  H19B15848   3.107   5.960  13.735 -0.6050  0.3480  2.3930
  130CHL1  H19C15849   3.053   5.816  13.642  0.6672 -1.1571 -0.4103
  130CHL1    C115850   3.338   5.819  13.647  0.7067  0.4611  0.2253
  130CHL1   H1A15851   3.341   5.931  13.645  0.8354  0.5111  1.6302
  130CHL1   H1B15852   3.446   5.792  13.655  0.8472 -0.8494 -4.0368
  130CHL1    C215853   3.291   5.755  13.510 -0.4060  0.1774 -0.3834
  130CHL1   H2A15854   3.359   5.788  13.429  0.7134 -0.3754  0.2905
  130CHL1   H2B15855   3.187   5.785  13.488 -0.2458  0.6171 -0.5511
  130CHL1   C2015856   3.313   6.080  14.425 -0.4015 -1.0595 -0.2378
  130CHL1   H2015857   3.206   6.110  14.430 -0.4082 -1.0775 -0.2675
  130CHL1   C2115858   3.380   6.216  14.372  0.3157  0.1054  0.1890
  130CHL1  H21A15859   3.487   6.207  14.344 -0.4741  0.1518 -3.1823
  130CHL1  H21B15860   3.381   6.298  14.447  1.6532 -1.5219  2.0905
  130CHL1  H21C15861   3.330   6.250  14.279  1.2129 -0.5528 -0.5436
  130CHL1   C2215862   3.371   6.055  14.572 -0.2995 -0.4059 -0.1816
  130CHL1  H22A15863   3.363   6.144  14.638  0.1654 -0.0201 -0.6351
  130CHL1  H22B15864   3.315   5.971  14.617  0.1941 -0.9057 -0.4922
  130CHL1   C2315865   3.518   6.014  14.571 -0.6501 -0.1030  0.4722
  130CHL1  H23A15866   3.529   5.923  14.508  0.9685  1.3894 -1.5547
  130CHL1  H23B15867   3.582   6.094  14.528  3.4917 -2.1190  2.3503
  130CHL1   C2415868   3.571   5.978  14.716  0.2230  0.1453  0.7662
  130CHL1  H24A15869   3.593   6.078  14.761 -1.1478  0.6943  0.2690
  130CHL1  H24B15870   3.492   5.936  14.782  0.4013 -1.5800 -0.0728
  130CHL1   C2515871   3.690   5.875  14.725  0.6072  0.1842 -0.4668
  130CHL1   H2515872   3.676   5.791  14.654  0.3197  0.0607 -0.2668
  130CHL1   C2615873   3.823   5.940  14.716  1.1975  0.7383  0.6866
  130CHL1  H26A15874   3.827   6.011  14.801  0.9170  0.2703  1.0979
  130CHL1  H26B15875   3.914   5.877  14.725  1.9626  1.9241  1.5502
  130CHL1  H26C15876   3.820   5.997  14.621  0.2606 -0.5407 -0.0787
  130CHL1   C2715877   3.690   5.815  14.866  0.3162  0.3150 -0.2235
  130CHL1  H27A15878   3.604   5.746  14.857  0.3043  0.3122 -0.1008
  130CHL1  H27B15879   3.776   5.747  14.886  0.0021 -0.0575 -0.1268
  130CHL1  H27C15880   3.677   5.885  14.952  0.5437  0.2209 -0.1110
  131CHL1    C315881   1.114   4.943  13.517 -0.0900 -0.8383 -0.5844
  131CHL1    H315882   1.006   4.916  13.515 -0.6413  1.2080 -0.4881
  131CHL1    O315883   1.177   4.901  13.395  0.0111  0.0182  0.2520
  131CHL1   H3'15884   1.271   4.919  13.406  0.3354 -1.7769  0.8278
  131CHL1    C415885   1.109   5.095  13.537 -0.2482 -0.1640  0.4008
  131CHL1   H4A15886   1.212   5.134  13.519 -0.4731 -0.0928 -0.8038
  131CHL1   H4B15887   1.045   5.145  13.461  0.5697  0.0109 -0.1913
  131CHL1    C515888   1.065   5.143  13.667  0.2673  0.5154 -0.5319
  131CHL1    C615889   0.972   5.238  13.679 -0.4911 -0.0427  0.6982
  131CHL1    H615890   0.932   5.282  13.587 -0.6310 -0.7384  0.4214
  131CHL1    C715891   0.912   5.286  13.801  0.6913 -0.1493 -0.5833
  131CHL1   H7A15892   0.903   5.397  13.796 -1.7001 -0.2939 -0.4714
  131CHL1   H7B15893   0.811   5.241  13.814  0.9168 -0.3666  0.4865
  131CHL1    C815894   1.000   5.242  13.924  0.2472 -0.4966  0.7106
  131CHL1    H815895   1.087   5.312  13.918 -0.1766  0.1609  1.9096
  131CHL1   C1415896   0.932   5.278  14.053 -0.5229  0.7259 -0.7171
  131CHL1   H1415897   0.847   5.210  14.072  0.5433  0.0832  2.5110
  131CHL1   C1515898   0.866   5.422  14.067 -0.5278 -0.0074 -0.4631
  131CHL1  H15A15899   0.945   5.496  14.048 -0.0382 -0.7100 -1.2218
  131CHL1  H15B15900   0.784   5.418  13.992 -1.2914 -3.3224  0.3533
  131CHL1   C1615901   0.828   5.428  14.216  0.4633  0.6246 -0.1960
  131CHL1  H16A15902   0.850   5.535  14.234 -0.8489  1.1475 -1.5115
  131CHL1  H16B15903   0.718   5.412  14.220  0.3194  1.6071 -0.0795
  131CHL1   C1715904   0.916   5.313  14.284 -0.2092 -0.3165  0.1810
  131CHL1   H1715905   0.843   5.233  14.309  1.0392 -0.8228  2.4597
  131CHL1   C1315906   1.013   5.252  14.178 -0.4682  0.5427  0.1525
  131CHL1   C1815907   1.146   5.339  14.170  0.3640 -0.1237 -0.0670
  131CHL1  H18A15908   1.112   5.444  14.157 -0.6027 -0.5129 -0.7980
  131CHL1  H18B15909   1.199   5.321  14.266 -2.7618 -0.0013  1.8492
  131CHL1  H18C15910   1.212   5.303  14.088  0.2868  0.2996 -0.3172
  131CHL1   C1215911   1.057   5.104  14.185 -0.0767  0.3021 -0.5856
  131CHL1  H12A15912   1.130   5.091  14.267 -2.1695  0.8641  1.5020
  131CHL1  H12B15913   0.961   5.054  14.210  0.1475  0.7522  1.3569
  131CHL1   C1115914   1.115   5.053  14.051  0.2547  1.3126  0.8293
  131CHL1  H11A15915   1.225   5.040  14.054  0.1075 -0.3581  0.0262
  131CHL1  H11B15916   1.083   4.946  14.051  1.1543  0.9645  3.3966
  131CHL1    C915917   1.047   5.101  13.919  0.5146 -0.4145 -0.0629
  131CHL1    H915918   0.951   5.044  13.915 -0.1806  0.7513 -3.8635
  131CHL1   C1015919   1.125   5.072  13.788  1.0778  0.3447 -0.3309
  131CHL1   C1915920   1.272   5.117  13.804  0.4862 -0.3266 -0.7489
  131CHL1  H19A15921   1.292   5.211  13.860 -2.3163 -0.5659  0.8404
  131CHL1  H19B15922   1.328   5.039  13.861 -0.4143 -1.8367 -1.8386
  131CHL1  H19C15923   1.331   5.113  13.709 -1.0146 -0.8840 -1.6919
  131CHL1    C115924   1.119   4.916  13.769  0.6035  0.2167 -0.1393
  131CHL1   H1A15925   1.158   4.853  13.852  0.9592 -0.2106 -0.6204
  131CHL1   H1B15926   1.014   4.881  13.772  0.8683 -0.5771  0.3765
  131CHL1    C215927   1.187   4.881  13.637 -0.1297  0.3790 -0.0649
  131CHL1   H2A15928   1.179   4.771  13.621  0.5310  0.4420 -0.8704
  131CHL1   H2B15929   1.294   4.912  13.626 -0.3218  0.9546 -0.3626
  131CHL1   C2015930   0.972   5.356  14.424 -0.2914 -0.4042  0.1886
  131CHL1   H2015931   1.044   5.440  14.409 -0.0375 -0.6970 -0.2862
  131CHL1   C2115932   1.033   5.232  14.494  0.8357  0.7376  0.2097
  131CHL1  H21A15933   1.071   5.265  14.593  0.0893  3.7851 -0.4337
  131CHL1  H21B15934   1.124   5.195  14.441  1.4896  1.8573  0.5218
  131CHL1  H21C15935   0.964   5.145  14.498  0.6668  0.7760 -1.2996
  131CHL1   C2215936   0.859   5.413  14.515  0.3464 -0.2323 -0.2066
  131CHL1  H22A15937   0.906   5.425  14.615  2.2396  1.5865 -1.2115
  131CHL1  H22B15938   0.839   5.517  14.480 -1.2028 -0.5763 -0.4038
  131CHL1   C2315939   0.737   5.324  14.543  0.3947 -1.3926 -0.0555
  131CHL1  H23A15940   0.690   5.295  14.446 -0.1282  0.1495 -0.2858
  131CHL1  H23B15941   0.779   5.235  14.595  0.8309 -0.5930  0.9773
  131CHL1   C2415942   0.630   5.392  14.632 -0.4131  0.0338 -0.1576
  131CHL1  H24A15943   0.629   5.498  14.601  0.6352  0.2091  0.3626
  131CHL1  H24B15944   0.531   5.347  14.609 -0.5984 -0.0657  0.8047
  131CHL1   C2515945   0.640   5.375  14.785 -0.4616 -0.2480  0.2650
  131CHL1   H2515946   0.735   5.428  14.804  0.8792 -1.2957 -2.8859
  131CHL1   C2615947   0.519   5.443  14.851 -0.1323  0.4346 -0.4269
  131CHL1  H26A15948   0.421   5.410  14.809  0.8434 -0.5443 -2.0660
  131CHL1  H26B15949   0.522   5.424  14.960  0.8242 -4.4362 -1.0751
  131CHL1  H26C15950   0.513   5.551  14.828 -0.7463  0.8752  1.6267
  131CHL1   C2715951   0.657   5.230  14.831  0.5092  0.5972  0.2166
  131CHL1  H27A15952   0.666   5.219  14.941 -1.0370  0.7222  0.3788
  131CHL1  H27B15953   0.572   5.169  14.795 -0.1901  1.4456  0.3977
  131CHL1  H27C15954   0.753   5.185  14.798  0.5020 -1.3922  2.5898
  132CHL1    C315955   3.830   6.200  13.351  0.3195 -0.7647  0.7910
  132CHL1    H315956   3.937   6.226  13.358 -0.2433  1.8133  0.9669
  132CHL1    O315957   3.782   6.245  13.222  0.2254  0.4344  0.1498
  132CHL1   H3'15958   3.706   6.189  13.204 -0.8423  1.7351  0.4847
  132CHL1    C415959   3.792   6.060  13.369 -0.9204  0.4499 -0.5791
  132CHL1   H4A15960   3.682   6.044  13.369 -0.5702 -2.6687  0.9417
  132CHL1   H4B15961   3.843   6.008  13.285 -0.6065  0.7709 -0.5917
  132CHL1    C515962   3.839   5.995  13.500 -0.0067  0.4043  0.1428
  132CHL1    C615963   3.923   5.882  13.510  0.2476 -0.3901  0.1395
  132CHL1    H615964   3.952   5.840  13.412 -1.5873  0.4861 -0.8360
  132CHL1    C715965   3.968   5.825  13.650  0.3697 -0.8548  0.4228
  132CHL1   H7A15966   3.969   5.715  13.637 -1.3365 -1.0296  1.4440
  132CHL1   H7B15967   4.072   5.860  13.665  0.4581  2.0545 -4.7125
  132CHL1    C815968   3.884   5.876  13.771  0.3192  0.0478 -0.9844
  132CHL1    H815969   3.788   5.820  13.766  0.1478  0.2385  0.0610
  132CHL1   C1415970   3.953   5.844  13.902  0.6564 -0.6207  0.4326
  132CHL1   H1415971   4.050   5.897  13.899 -0.6626  1.9405 -2.9447
  132CHL1   C1515972   3.991   5.702  13.924  0.2481  0.4015 -0.1600
  132CHL1  H15A15973   3.910   5.637  13.882 -1.1179  0.9032  1.5651
  132CHL1  H15B15974   4.088   5.678  13.875  2.4366 -0.2785  4.0677
  132CHL1   C1615975   4.010   5.692  14.078 -0.0849 -0.0011  0.1984
  132CHL1  H16A15976   3.952   5.606  14.120 -0.9825  0.1115 -0.7711
  132CHL1  H16B15977   4.116   5.690  14.110 -0.0335 -0.0266  0.0238
  132CHL1   C1715978   3.955   5.827  14.138 -0.7852  0.3159 -0.4654
  132CHL1   H1715979   4.044   5.892  14.157  0.2053 -0.7887 -1.1840
  132CHL1   C1315980   3.874   5.887  14.023  0.4258  0.9231 -0.6301
  132CHL1   C1815981   3.734   5.817  14.032 -0.4343  1.1206  0.2954
  132CHL1  H18A15982   3.684   5.862  14.120  1.1489  1.4602  1.0594
  132CHL1  H18B15983   3.668   5.838  13.944 -0.4088  0.3838  0.0988
  132CHL1  H18C15984   3.730   5.708  14.052 -1.1863  1.2539  0.8747
  132CHL1   C1215985   3.857   6.038  14.021  0.1545 -0.2379  0.2329
  132CHL1  H12A15986   3.802   6.082  14.106  1.5455  2.8892 -0.3377
  132CHL1  H12B15987   3.957   6.081  14.038 -0.1238  0.5335 -0.0224
  132CHL1   C1115988   3.795   6.095  13.885  0.2142  0.3737 -0.1634
  132CHL1  H11A15989   3.687   6.069  13.885  0.7034 -1.8955  0.5231
  132CHL1  H11B15990   3.796   6.206  13.879 -0.2983  0.4022  0.1843
  132CHL1    C915991   3.857   6.028  13.758  0.5970 -0.2294 -0.2313
  132CHL1    H915992   3.956   6.075  13.738  0.4847 -0.7924 -2.2862
  132CHL1   C1015993   3.783   6.072  13.623  0.3312 -0.3795 -0.7453
  132CHL1   C1915994   3.631   6.041  13.633  0.4925  0.2622  0.1084
  132CHL1  H19A15995   3.609   5.938  13.668  1.5124  0.9904  3.1667
  132CHL1  H19B15996   3.582   6.109  13.706  0.7534  0.4528  0.1061
  132CHL1  H19C15997   3.583   6.054  13.533 -0.4373 -2.3762  0.1208
  132CHL1    C115998   3.807   6.223  13.603  0.2187 -0.5253  0.3515
  132CHL1   H1A15999   3.749   6.285  13.674  0.1259  1.6784 -1.5527
  132CHL1   H1B16000   3.914   6.251  13.615  0.1163  0.3920 -0.7312
  132CHL1    C216001   3.765   6.279  13.466 -0.3086 -0.5041 -0.3493
  132CHL1   H2A16002   3.791   6.387  13.469  0.3448 -0.6824  1.0658
  132CHL1   H2B16003   3.655   6.265  13.451 -0.4061  0.5656 -0.7396
  132CHL1   C2016004   3.884   5.812  14.273 -0.0844  0.4289 -0.0705
  132CHL1   H2016005   3.797   5.744  14.261  0.6589 -0.2082 -2.2674
  132CHL1   C2116006   3.829   5.948  14.324 -1.0181 -0.1032 -0.1900
  132CHL1  H21A16007   3.738   5.986  14.273  0.0438  0.8739 -1.4218
  132CHL1  H21B16008   3.908   6.026  14.330 -0.8105 -0.3604  0.5588
  132CHL1  H21C16009   3.791   5.931  14.427  1.3582 -1.2582  0.5857
  132CHL1   C2216010   3.981   5.754  14.378  0.4017  0.0879  0.1065
  132CHL1  H22A16011   3.931   5.734  14.475  1.6417 -0.0542  0.7381
  132CHL1  H22B16012   4.010   5.653  14.341  2.4957  0.0421  1.7165
  132CHL1   C2316013   4.109   5.830  14.416  0.2673  0.2641 -0.3104
  132CHL1  H23A16014   4.165   5.875  14.331  0.0508  2.3285  0.5655
  132CHL1  H23B16015   4.061   5.915  14.470 -2.6522 -1.6894  0.3849
  132CHL1   C2416016   4.208   5.744  14.496  0.4448  0.5452 -0.1162
  132CHL1  H24A16017   4.272   5.821  14.544  0.0714 -0.2657  1.8076
  132CHL1  H24B16018   4.156   5.687  14.576 -0.9731  0.3278 -1.1533
  132CHL1   C2516019   4.280   5.634  14.423  0.1061  0.1381 -0.0785
  132CHL1   H2516020   4.203   5.569  14.375  0.6731 -0.6612  0.0717
  132CHL1   C2616021   4.362   5.689  14.305  0.3211  0.5215 -0.0316
  132CHL1  H26A16022   4.295   5.725  14.224  1.4725  2.5193 -0.1568
  132CHL1  H26B16023   4.435   5.770  14.326 -2.0485  2.9516 -0.5695
  132CHL1  H26C16024   4.418   5.606  14.256 -1.0499  0.1763 -1.0844
  132CHL1   C2716025   4.366   5.549  14.522 -0.3859  0.4459 -0.3789
  132CHL1  H27A16026   4.441   5.613  14.575  0.3963 -0.3524 -0.4931
  132CHL1  H27B16027   4.298   5.494  14.591 -2.0165 -0.6070 -2.6916
  132CHL1  H27C16028   4.416   5.470  14.462  0.1876 -0.8616  1.7019
  133CHL1    C316029   1.598   0.714  13.224 -0.4360  0.4468  0.3596
  133CHL1    H316030   1.511   0.655  13.261 -0.4158 -0.9963 -1.7130
  133CHL1    O316031   1.611   0.706  13.081  0.1855  0.1865  0.1011
  133CHL1   H3'16032   1.532   0.743  13.040  1.3964  3.0448  0.0617
  133CHL1    C416033   1.575   0.861  13.270  0.5635 -0.7064 -0.1456
  133CHL1   H4A16034   1.659   0.923  13.230 -0.3734  0.7614  0.0870
  133CHL1   H4B16035   1.486   0.906  13.221  0.4005  1.5932  2.0385
  133CHL1    C516036   1.567   0.868  13.419  0.2110 -0.5147 -0.1464
  133CHL1    C616037   1.461   0.923  13.488 -0.2792  0.5617  0.3063
  133CHL1    H616038   1.374   0.949  13.426  1.4642 -2.2327 -3.7170
  133CHL1    C716039   1.454   0.946  13.637 -0.2164  0.3315 -0.0524
  133CHL1   H7A16040   1.426   1.050  13.664  1.6053  0.9451 -0.3721
  133CHL1   H7B16041   1.377   0.876  13.678 -0.8818  3.1787  4.1795
  133CHL1    C816042   1.582   0.900  13.716 -0.1630  0.0016  0.0566
  133CHL1    H816043   1.668   0.971  13.713  0.8972 -1.0904  2.1389
  133CHL1   C1416044   1.534   0.856  13.856  0.4032 -0.4347  0.0163
  133CHL1   H1416045   1.459   0.776  13.836 -1.0461  0.8685  0.0261
  133CHL1   C1516046   1.459   0.956  13.942 -0.1178  0.6754  0.2424
  133CHL1  H15A16047   1.512   1.052  13.925 -3.4978  2.3275 -2.2110
  133CHL1  H15B16048   1.354   0.972  13.909  0.2222 -1.3333 -2.1702
  133CHL1   C1616049   1.472   0.898  14.087 -0.4969 -0.5692  0.0700
  133CHL1  H16A16050   1.524   0.971  14.152  1.5462 -1.4053 -0.5584
  133CHL1  H16B16051   1.371   0.882  14.132 -1.1566  0.1543 -1.0883
  133CHL1   C1716052   1.565   0.772  14.072 -0.8435 -0.5800  0.3716
  133CHL1   H1716053   1.493   0.690  14.052 -0.5965 -0.6887 -0.0757
  133CHL1   C1316054   1.641   0.797  13.939 -0.5537 -0.2437 -0.7752
  133CHL1   C1816055   1.759   0.906  13.960  0.0658 -0.1455  0.0995
  133CHL1  H18A16056   1.792   0.961  13.869 -1.5205  1.0027  0.1767
  133CHL1  H18B16057   1.716   0.983  14.027 -0.8230 -1.2522  0.8391
  133CHL1  H18C16058   1.853   0.867  14.004  1.1296 -0.1406 -2.0592
  133CHL1   C1216059   1.700   0.669  13.874 -0.0422 -0.4594  0.3185
  133CHL1  H12A16060   1.793   0.642  13.928  1.1456  1.5213 -0.6046
  133CHL1  H12B16061   1.632   0.582  13.881 -0.7507  0.2047  2.3097
  133CHL1   C1116062   1.756   0.707  13.733  0.2741 -0.5067  0.0803
  133CHL1  H11A16063   1.848   0.769  13.748  0.5036 -0.7771 -0.1838
  133CHL1  H11B16064   1.789   0.614  13.682  0.0992  0.1092 -1.2132
  133CHL1    C916065   1.641   0.774  13.650  0.3846  0.5119 -0.1673
  133CHL1    H916066   1.565   0.693  13.648 -0.3324  1.0839  1.7760
  133CHL1   C1016067   1.680   0.798  13.497  0.4270  0.0279  0.2830
  133CHL1   C1916068   1.811   0.888  13.488  0.1059  0.2612 -0.5533
  133CHL1  H19A16069   1.839   0.904  13.381  0.5995  4.0845 -0.0040
  133CHL1  H19B16070   1.781   0.984  13.534 -2.5851 -0.1415 -1.3250
  133CHL1  H19C16071   1.899   0.849  13.544  1.0194  1.7094 -0.9254
  133CHL1    C116072   1.707   0.658  13.441 -0.1265  0.0700  0.8875
  133CHL1   H1A16073   1.802   0.615  13.478 -0.2728  0.0278  1.2163
  133CHL1   H1B16074   1.622   0.589  13.461 -0.5633  0.0929 -0.6809
  133CHL1    C216075   1.726   0.653  13.286  0.0873 -0.5238 -0.0655
  133CHL1   H2A16076   1.736   0.545  13.263 -0.1085 -0.1386 -2.1290
  133CHL1   H2B16077   1.820   0.702  13.251  0.6164 -0.9564  0.7156
  133CHL1   C2016078   1.655   0.732  14.183 -0.1270  0.2943  0.1899
  133CHL1   H2016079   1.756   0.776  14.176 -0.9831  2.2829 -0.3252
  133CHL1   C2116080   1.670   0.576  14.194 -0.0656 -0.2337 -0.1462
  133CHL1  H21A16081   1.573   0.524  14.208 -0.3151  0.2927  0.0965
  133CHL1  H21B16082   1.741   0.549  14.276  0.6852 -0.5309 -0.8786
  133CHL1  H21C16083   1.722   0.542  14.102 -0.1130  0.7961 -0.5722
  133CHL1   C2216084   1.595   0.780  14.318  0.2790  0.0334  0.0661
  133CHL1  H22A16085   1.672   0.769  14.397  0.1645 -0.8697  0.0610
  133CHL1  H22B16086   1.597   0.891  14.313 -0.3020  0.2415  2.8392
  133CHL1   C2316087   1.461   0.718  14.368  0.7494 -0.0505 -0.3098
  133CHL1  H23A16088   1.377   0.757  14.306  0.4148 -0.4065 -0.0880
  133CHL1  H23B16089   1.466   0.607  14.363  1.2017 -0.0060 -0.9137
  133CHL1   C2416090   1.428   0.762  14.513  0.4533 -0.0712 -0.3923
  133CHL1  H24A16091   1.487   0.708  14.590  1.8511  1.9121  0.0249
  133CHL1  H24B16092   1.459   0.869  14.521  2.5223 -0.6881  0.7488
  133CHL1   C2516093   1.280   0.752  14.544  0.3009 -0.4012  0.5088
  133CHL1   H2516094   1.244   0.649  14.519  0.0744  0.1779 -1.8039
  133CHL1   C2616095   1.254   0.774  14.697 -0.1909 -0.8765 -0.0026
  133CHL1  H26A16096   1.299   0.871  14.728 -1.0328 -0.9523  1.5611
  133CHL1  H26B16097   1.146   0.783  14.720  0.0197  0.9723  0.4505
  133CHL1  H26C16098   1.304   0.704  14.767  1.0847  0.3694  0.3856
  133CHL1   C2716099   1.190   0.847  14.466 -0.3840 -0.3169  0.5119
  133CHL1  H27A16100   1.233   0.949  14.466 -0.9448 -0.0648 -0.4101
  133CHL1  H27B16101   1.193   0.809  14.361 -0.8648 -1.4368  0.8873
  133CHL1  H27C16102   1.084   0.853  14.500 -0.7444 -1.7857 -0.2682
  134CHL1    C316103   7.228   1.712  13.318 -0.7280  0.1962 -0.4532
  134CHL1    H316104   7.222   1.819  13.345  1.0411 -0.7646  4.9378
  134CHL1    O316105   7.200   1.684  13.188  0.0434 -0.4024  0.0244
  134CHL1   H3'16106   7.111   1.649  13.196 -0.1709  0.3067  0.8961
  134CHL1    C416107   7.381   1.672  13.339  0.0102  0.7843 -0.4340
  134CHL1   H4A16108   7.402   1.569  13.303  0.2620  0.2238  1.2343
  134CHL1   H4B16109   7.445   1.746  13.286  3.0725 -2.5580 -1.8267
  134CHL1    C516110   7.415   1.671  13.487 -0.5053  0.1194  0.4966
  134CHL1    C616111   7.517   1.738  13.543 -0.2506 -0.4529 -0.3131
  134CHL1    H616112   7.591   1.789  13.479 -1.7044 -1.0707 -2.6337
  134CHL1    C716113   7.554   1.738  13.689 -0.1304  0.1080  0.0828
  134CHL1   H7A16114   7.665   1.739  13.694 -0.0782 -1.4173 -0.3624
  134CHL1   H7B16115   7.524   1.841  13.717 -0.2724 -0.2139  1.1613
  134CHL1    C816116   7.485   1.631  13.774  0.0101 -0.2836  0.3113
  134CHL1    H816117   7.538   1.536  13.749 -0.9378 -1.2574  1.8613
  134CHL1   C1416118   7.495   1.645  13.921 -0.2480 -0.3835 -0.3575
  134CHL1   H1416119   7.448   1.742  13.949  0.5943  0.1354 -0.6858
  134CHL1   C1516120   7.640   1.656  13.974 -0.1599 -0.1403 -0.0367
  134CHL1  H15A16121   7.693   1.566  13.938  1.1660 -0.1417  1.7642
  134CHL1  H15B16122   7.697   1.742  13.934 -0.2964 -0.4087 -0.8140
  134CHL1   C1616123   7.628   1.653  14.126 -0.1554 -0.0682  0.8219
  134CHL1  H16A16124   7.694   1.576  14.171 -1.6873 -2.4743 -0.8530
  134CHL1  H16B16125   7.666   1.747  14.173  1.2181  0.9972 -2.2006
  134CHL1   C1716126   7.483   1.608  14.155  0.4628 -0.6067  0.2245
  134CHL1   H1716127   7.426   1.702  14.173 -0.4346 -1.2351  0.7825
  134CHL1   C1316128   7.430   1.545  14.019  0.0153  0.3552 -0.3069
  134CHL1   C1816129   7.501   1.404  13.992  0.2299  0.0524 -0.3306
  134CHL1  H18A16130   7.602   1.390  14.037  0.2892 -3.5066 -1.2996
  134CHL1  H18B16131   7.440   1.321  14.033  0.2577  0.8017  1.3102
  134CHL1  H18C16132   7.507   1.372  13.886 -3.4844 -0.1700 -0.6048
  134CHL1   C1216133   7.284   1.544  13.981 -0.2664  0.2417  0.4233
  134CHL1  H12A16134   7.237   1.455  14.028  0.8710  0.3221  1.8081
  134CHL1  H12B16135   7.232   1.637  14.013 -0.2169  1.1300 -1.8914
  134CHL1   C1116136   7.259   1.523  13.830 -0.6123  0.2739  0.0745
  134CHL1  H11A16137   7.280   1.416  13.810 -0.8225  0.3927 -0.8240
  134CHL1  H11B16138   7.151   1.546  13.818  0.0428  3.2754 -0.7981
  134CHL1    C916139   7.337   1.616  13.735  0.5716 -0.5749 -0.0631
  134CHL1    H916140   7.290   1.716  13.748  1.8253  0.3534 -2.1198
  134CHL1   C1016141   7.313   1.594  13.583  0.5653 -0.9460  0.3863
  134CHL1   C1916142   7.319   1.439  13.565  0.1490 -0.4282 -0.1333
  134CHL1  H19A16143   7.223   1.390  13.590 -0.0732 -0.5480 -1.1703
  134CHL1  H19B16144   7.340   1.432  13.456  1.3697 -0.4427  0.0880
  134CHL1  H19C16145   7.409   1.392  13.610  0.3475  0.7070  0.6855
  134CHL1    C116146   7.166   1.649  13.560 -0.0687 -0.4270  0.1852
  134CHL1   H1A16147   7.095   1.596  13.627 -0.0524 -0.7583 -0.0549
  134CHL1   H1B16148   7.163   1.754  13.596  0.8260  0.4746 -2.1600
  134CHL1    C216149   7.129   1.636  13.409  0.5268 -0.5469 -0.3466
  134CHL1   H2A16150   7.028   1.671  13.376  0.8931 -0.0397 -0.9729
  134CHL1   H2B16151   7.134   1.528  13.381  1.5739 -0.4346 -0.6270
  134CHL1   C2016152   7.469   1.516  14.279 -0.5820 -0.5198 -0.4006
  134CHL1   H2016153   7.530   1.426  14.256  1.1555  0.0481  1.6413
  134CHL1   C2116154   7.325   1.471  14.308 -0.0205 -1.1490 -0.0588
  134CHL1  H21A16155   7.280   1.422  14.219 -0.3326  2.0105 -1.7917
  134CHL1  H21B16156   7.270   1.567  14.324 -1.4307 -1.8699 -0.3686
  134CHL1  H21C16157   7.321   1.410  14.401  0.7043 -1.5603 -0.2925
  134CHL1   C2216158   7.521   1.589  14.405 -0.2637  0.3463 -0.1176
  134CHL1  H22A16159   7.626   1.620  14.388 -0.9937  3.1095 -0.0787
  134CHL1  H22B16160   7.477   1.688  14.430  1.7125  1.6143 -1.3952
  134CHL1   C2316161   7.536   1.514  14.547  0.6503  0.8241  1.3869
  134CHL1  H23A16162   7.436   1.472  14.568  1.0119 -1.0901 -0.3946
  134CHL1  H23B16163   7.597   1.425  14.520  0.4931  1.0221  0.3650
  134CHL1   C2416164   7.585   1.603  14.656  0.2764 -0.9817 -0.1454
  134CHL1  H24A16165   7.522   1.694  14.663  0.8932 -0.5515 -0.1519
  134CHL1  H24B16166   7.568   1.559  14.756  0.2515  3.2951  1.9308
  134CHL1   C2516167   7.731   1.640  14.641 -0.0547 -0.4655  0.3147
  134CHL1   H2516168   7.728   1.715  14.559 -0.9653  0.3531  1.0794
  134CHL1   C2616169   7.791   1.709  14.765  0.6008  0.3101 -0.5299
  134CHL1  H26A16170   7.783   1.648  14.857 -1.4691  1.5901  0.1961
  134CHL1  H26B16171   7.899   1.733  14.765  1.1145 -1.7571 -0.2336
  134CHL1  H26C16172   7.730   1.797  14.794 -0.4337 -0.8237  0.8950
  134CHL1   C2716173   7.821   1.531  14.590  0.2643 -0.2056  0.3179
  134CHL1  H27A16174   7.812   1.504  14.483 -2.0871  0.5722  0.2513
  134CHL1  H27B16175   7.925   1.563  14.612  0.3987 -1.3857  1.5496
  134CHL1  H27C16176   7.795   1.439  14.647 -0.1257 -0.3930 -0.1552
  135CHL1    C316177   7.289   2.073  13.435 -0.8199 -0.2593  0.3593
  135CHL1    H316178   7.325   1.968  13.436  0.0157  0.0153 -0.2835
  135CHL1    O316179   7.236   2.098  13.308 -0.2715 -0.0714 -0.1054
  135CHL1   H3'16180   7.142   2.089  13.324 -0.2347 -0.4516 -0.1116
  135CHL1    C416181   7.174   2.088  13.537 -0.0524  0.2788  0.5099
  135CHL1   H4A16182   7.127   2.186  13.512  1.5185  0.1514 -3.7622
  135CHL1   H4B16183   7.100   2.007  13.522 -0.7235  0.7525  1.1692
  135CHL1    C516184   7.231   2.082  13.679  0.4605  0.1626  0.1889
  135CHL1    C616185   7.182   1.994  13.770 -0.2299 -0.3504  0.2388
  135CHL1    H616186   7.092   1.943  13.733 -0.6488 -0.2989  1.1821
  135CHL1    C716187   7.234   1.975  13.906  0.1810  0.0305  0.1621
  135CHL1   H7A16188   7.152   1.975  13.980 -0.0773 -0.2834 -0.1237
  135CHL1   H7B16189   7.292   1.880  13.904 -0.8854 -0.6194 -1.2865
  135CHL1    C816190   7.331   2.088  13.949  0.4322  0.2423 -0.8178
  135CHL1    H816191   7.259   2.170  13.972 -0.0988 -0.3340 -0.4083
  135CHL1   C1416192   7.411   2.043  14.074  0.9354 -0.6660  0.0931
  135CHL1   H1416193   7.474   1.959  14.039  3.2272  0.2616  1.7717
  135CHL1   C1516194   7.329   1.988  14.193  0.5177 -0.3488  0.7115
  135CHL1  H15A16195   7.249   2.060  14.220  0.9407  0.6093 -0.4788
  135CHL1  H15B16196   7.294   1.884  14.175  1.4391 -0.2766 -1.8860
  135CHL1   C1616197   7.434   1.992  14.306 -0.2746  0.5881  0.6374
  135CHL1  H16A16198   7.388   2.031  14.400  2.0158 -1.3959  2.7186
  135CHL1  H16B16199   7.458   1.886  14.324  1.3426  0.5757 -1.3419
  135CHL1   C1716200   7.554   2.077  14.256 -0.3321  0.2370 -0.0428
  135CHL1   H1716201   7.627   2.003  14.216 -1.3339 -1.3827  0.9790
  135CHL1   C1316202   7.498   2.155  14.132  0.6103 -0.1487 -0.2189
  135CHL1   C1816203   7.410   2.271  14.186 -0.3187  0.1608 -0.3304
  135CHL1  H18A16204   7.474   2.355  14.221 -0.3374  0.5860 -1.2777
  135CHL1  H18B16205   7.346   2.295  14.099 -1.2696 -1.1428 -0.0121
  135CHL1  H18C16206   7.348   2.243  14.273  2.6169 -0.1348  1.8359
  135CHL1   C1216207   7.599   2.193  14.022 -0.0081 -0.1523 -0.0559
  135CHL1  H12A16208   7.674   2.269  14.051 -0.4991 -0.2675  1.6617
  135CHL1  H12B16209   7.657   2.100  14.003  0.5371 -0.6974  3.4896
  135CHL1   C1116210   7.532   2.240  13.895  0.1039  0.1409  0.0934
  135CHL1  H11A16211   7.476   2.333  13.920 -2.5614 -1.5260  0.7727
  135CHL1  H11B16212   7.603   2.261  13.812  0.0639  0.2779  0.0936
  135CHL1    C916213   7.431   2.133  13.845  0.3345 -0.2209 -0.2690
  135CHL1    H916214   7.495   2.047  13.813  0.7527  1.0365 -3.1854
  135CHL1   C1016215   7.363   2.169  13.709  0.2056 -0.0977 -0.6286
  135CHL1   C1916216   7.304   2.314  13.714  0.3174  0.3311 -0.3604
  135CHL1  H19A16217   7.225   2.330  13.791 -1.0936 -0.2914 -1.6244
  135CHL1  H19B16218   7.389   2.378  13.746  0.0680 -0.8533  3.1497
  135CHL1  H19C16219   7.271   2.352  13.615  4.0673  1.8542 -1.1920
  135CHL1    C116220   7.463   2.155  13.598 -0.1621 -0.2300  0.4727
  135CHL1   H1A16221   7.555   2.218  13.602 -1.8487  2.4961 -0.5346
  135CHL1   H1B16222   7.506   2.053  13.593  0.8618  0.2419 -1.3761
  135CHL1    C216223   7.400   2.177  13.456 -0.3955  0.0557 -0.1123
  135CHL1   H2A16224   7.473   2.167  13.373  0.4336  1.3476  0.4338
  135CHL1   H2B16225   7.363   2.281  13.450  0.0089  0.5445  3.5861
  135CHL1   C2016226   7.619   2.169  14.374 -0.3833 -0.1992  0.0442
  135CHL1   H2016227   7.544   2.245  14.405 -0.7228 -0.4014 -0.2666
  135CHL1   C2116228   7.744   2.232  14.302 -0.1584  0.0941 -0.5436
  135CHL1  H21A16229   7.816   2.260  14.383 -0.9524 -1.2277  0.6707
  135CHL1  H21B16230   7.716   2.316  14.235  1.0966 -1.0181 -2.5654
  135CHL1  H21C16231   7.798   2.156  14.242  1.7521  1.6457 -0.9306
  135CHL1   C2216232   7.650   2.087  14.504 -0.8173 -0.4431 -0.0696
  135CHL1  H22A16233   7.562   2.038  14.553 -0.7512 -0.3667  0.1273
  135CHL1  H22B16234   7.705   1.993  14.483 -2.8673 -2.0422  1.2622
  135CHL1   C2316235   7.731   2.166  14.607  0.0803 -0.4046  0.1189
  135CHL1  H23A16236   7.835   2.188  14.574 -0.2252 -0.7693 -1.1227
  135CHL1  H23B16237   7.675   2.258  14.635 -1.4705 -0.2431 -3.0595
  135CHL1   C2416238   7.763   2.090  14.738  0.8424 -0.0346 -0.4357
  135CHL1  H24A16239   7.666   2.056  14.780  1.2233 -1.2665 -0.5152
  135CHL1  H24B16240   7.821   2.003  14.700 -0.1466 -0.8737 -0.0723
  135CHL1   C2516241   7.854   2.160  14.833  0.2752  0.5060  0.5732
  135CHL1   H2516242   7.947   2.182  14.777 -1.7555  3.6237 -1.9682
  135CHL1   C2616243   7.792   2.285  14.888 -0.0179 -0.0423 -0.9082
  135CHL1  H26A16244   7.754   2.345  14.803 -0.9303  0.5099 -0.1460
  135CHL1  H26B16245   7.697   2.268  14.944 -1.7017  1.4201 -3.1480
  135CHL1  H26C16246   7.868   2.337  14.950 -1.0758  0.8774 -0.3319
  135CHL1   C2716247   7.898   2.062  14.940 -0.2186  0.1037 -1.2293
  135CHL1  H27A16248   7.964   1.981  14.900 -0.1033  0.1181 -1.0651
  135CHL1  H27B16249   7.961   2.115  15.014 -2.1544  1.7290 -0.6757
  135CHL1  H27C16250   7.820   2.019  15.006  3.5457 -3.5660  1.3704
  136CHL1    C316251   5.738   7.095  13.196 -0.3505  0.3025 -0.2613
  136CHL1    H316252   5.781   7.197  13.201  2.1799 -0.7076 -0.2402
  136CHL1    O316253   5.702   7.075  13.060  0.4449  0.3381  0.0964
  136CHL1   H3'16254   5.617   7.117  13.045  1.5807  2.0630 -2.1049
  136CHL1    C416255   5.849   6.996  13.234 -0.3521  0.4635  0.6205
  136CHL1   H4A16256   5.828   6.890  13.209  1.6673 -0.2967  1.8744
  136CHL1   H4B16257   5.945   7.025  13.186 -1.4203  0.5163 -1.5784
  136CHL1    C516258   5.877   7.009  13.383 -1.1829  0.0536 -0.3491
  136CHL1    C616259   6.001   7.022  13.433  0.1961 -0.2373  0.1117
  136CHL1    H616260   6.081   7.033  13.358 -0.4889 -0.3274 -0.6501
  136CHL1    C716261   6.036   7.027  13.580 -0.3006  0.3043  0.6786
  136CHL1   H7A16262   6.131   6.974  13.599 -1.5720 -1.8365  1.4650
  136CHL1   H7B16263   6.044   7.137  13.593 -3.6896  1.6103 -4.8687
  136CHL1    C816264   5.924   6.971  13.674 -0.1241 -0.6955  0.5061
  136CHL1    H816265   5.914   6.861  13.676  0.1739 -0.7150  1.1937
  136CHL1   C1416266   5.959   7.016  13.816  0.1151  0.4936 -0.3585
  136CHL1   H1416267   5.965   7.127  13.809  0.2811  0.4065 -1.8960
  136CHL1   C1516268   6.098   6.973  13.882 -0.2360 -0.3586  0.2210
  136CHL1  H15A16269   6.115   6.867  13.854  0.6150 -0.7404  2.0590
  136CHL1  H15B16270   6.180   7.039  13.844 -0.4809 -0.2164 -0.0632
  136CHL1   C1616271   6.065   6.985  14.030 -0.0642 -0.1034  0.5201
  136CHL1  H16A16272   6.082   6.886  14.078 -3.8280 -1.3725 -0.4079
  136CHL1  H16B16273   6.124   7.067  14.077  1.4561  0.0332 -1.4874
  136CHL1   C1716274   5.917   7.024  14.042  0.1717  0.2479 -0.8729
  136CHL1   H1716275   5.920   7.134  14.030  2.3268  0.5432  1.5477
  136CHL1   C1316276   5.847   6.973  13.914 -0.0908 -0.7737  0.2345
  136CHL1   C1816277   5.828   6.817  13.922 -0.4611 -0.8502 -0.5370
  136CHL1  H18A16278   5.925   6.767  13.942 -1.1296 -2.0083 -0.0592
  136CHL1  H18B16279   5.756   6.794  14.004  0.4552 -0.9460  0.2566
  136CHL1  H18C16280   5.795   6.778  13.823 -1.6319 -1.3677  0.0314
  136CHL1   C1216281   5.718   7.053  13.876 -0.0236 -0.2319 -0.3001
  136CHL1  H12A16282   5.631   7.014  13.932  0.4165 -1.4216 -0.4106
  136CHL1  H12B16283   5.735   7.161  13.892  2.1540 -0.8170  2.2764
  136CHL1   C1116284   5.684   7.014  13.732 -0.3186 -0.4410 -0.0472
  136CHL1  H11A16285   5.661   6.905  13.732 -2.0795 -0.1031  0.0991
  136CHL1  H11B16286   5.590   7.067  13.704 -0.4414  0.1027  1.3048
  136CHL1    C916287   5.794   7.041  13.629  0.2607  0.2142 -0.3955
  136CHL1    H916288   5.816   7.149  13.625  2.9264 -0.2613 -0.9080
  136CHL1   C1016289   5.758   7.003  13.482 -0.3948 -0.1567 -0.1470
  136CHL1   C1916290   5.702   6.855  13.479 -0.1892  0.8212 -0.5363
  136CHL1  H19A16291   5.773   6.786  13.530 -0.1745  1.3719  0.2120
  136CHL1  H19B16292   5.609   6.851  13.540  0.7048 -1.8669  0.7753
  136CHL1  H19C16293   5.674   6.813  13.380 -0.0480  0.6601 -0.5076
  136CHL1    C116294   5.642   7.092  13.435  0.5496  0.1296  0.0883
  136CHL1   H1A16295   5.552   7.059  13.492  2.2712 -2.2894  1.5741
  136CHL1   H1B16296   5.664   7.195  13.471  0.3785  0.4502 -0.6924
  136CHL1    C216297   5.611   7.072  13.283 -0.5961 -1.2476  0.2543
  136CHL1   H2A16298   5.535   7.148  13.255  0.4750  0.0668  0.7738
  136CHL1   H2B16299   5.576   6.970  13.258 -0.2339 -2.5048  4.1983
  136CHL1   C2016300   5.849   6.991  14.173  0.3259 -0.7559  0.5445
  136CHL1   H2016301   5.744   6.966  14.144  0.0485 -0.7549  1.5253
  136CHL1   C2116302   5.836   7.128  14.250 -0.0384  0.4109  0.2515
  136CHL1  H21A16303   5.776   7.115  14.343 -0.1712  1.5678  0.3427
  136CHL1  H21B16304   5.786   7.212  14.196  0.9516  0.2847 -0.8875
  136CHL1  H21C16305   5.936   7.167  14.278 -0.3290 -0.1194  2.1947
  136CHL1   C2216306   5.898   6.873  14.259  0.0488  0.3524 -0.2107
  136CHL1  H22A16307   5.937   6.794  14.193 -1.1671 -1.7999  1.5062
  136CHL1  H22B16308   5.979   6.917  14.321  1.7907  1.1067 -2.8447
  136CHL1   C2316309   5.788   6.812  14.353  0.4075  0.0691  0.4084
  136CHL1  H23A16310   5.750   6.897  14.414 -0.0726  0.0709  0.1056
  136CHL1  H23B16311   5.716   6.755  14.291  0.1365  1.3027 -0.4360
  136CHL1   C2416312   5.847   6.707  14.446  0.1136 -0.2499 -0.2218
  136CHL1  H24A16313   5.863   6.613  14.391 -4.9165 -0.7348 -1.3865
  136CHL1  H24B16314   5.942   6.742  14.491 -0.6603  0.6844  0.7715
  136CHL1   C2516315   5.753   6.674  14.569 -0.4919 -0.2369 -0.1207
  136CHL1   H2516316   5.730   6.769  14.622 -0.9210 -0.8993  0.9120
  136CHL1   C2616317   5.620   6.609  14.520 -0.5648  0.2525  0.2906
  136CHL1  H26A16318   5.573   6.544  14.596  0.9143 -0.2667  0.7925
  136CHL1  H26B16319   5.552   6.693  14.493 -0.6636  0.0838  0.0143
  136CHL1  H26C16320   5.643   6.551  14.428 -1.8450  0.8208 -0.4261
  136CHL1   C2716321   5.819   6.584  14.675 -0.1070  0.2924  0.1161
  136CHL1  H27A16322   5.828   6.477  14.647  0.5453  0.3183  0.2149
  136CHL1  H27B16323   5.921   6.619  14.700  0.0719  1.2643 -1.7645
  136CHL1  H27C16324   5.764   6.576  14.771 -1.0649  1.5516 -0.2975
  137CHL1    C316325   0.952   0.324  12.893  0.4129 -0.0384  0.4290
  137CHL1    H316326   0.862   0.306  12.957  2.0276 -3.2549  2.0747
  137CHL1    O316327   0.918   0.288  12.759 -0.0139 -0.0769 -0.1663
  137CHL1   H3'16328   0.995   0.250  12.714 -0.4793  0.5931 -1.5794
  137CHL1    C416329   1.004   0.471  12.919 -0.3574 -0.0512  0.7630
  137CHL1   H4A16330   1.096   0.488  12.860 -1.8551  0.1943 -1.6255
  137CHL1   H4B16331   0.929   0.544  12.881  0.9126  2.3275  2.5345
  137CHL1    C516332   1.030   0.501  13.066 -0.6257 -0.0238 -0.7355
  137CHL1    C616333   0.962   0.596  13.129 -1.2474 -0.8794 -0.2920
  137CHL1    H616334   0.897   0.664  13.073  1.3300  1.6036 -0.4973
  137CHL1    C716335   0.988   0.626  13.276  0.6659  0.7336 -0.0006
  137CHL1   H7A16336   1.004   0.735  13.288 -0.7696  1.1241 -1.3657
  137CHL1   H7B16337   0.897   0.605  13.335  1.2732  2.1962  1.5391
  137CHL1    C816338   1.109   0.557  13.339  0.6303  0.0281  0.2317
  137CHL1    H816339   1.200   0.609  13.304 -0.1624  0.1466 -1.7779
  137CHL1   C1416340   1.095   0.560  13.491 -0.2367  0.7335  0.0208
  137CHL1   H1416341   1.009   0.498  13.521 -1.7693  2.4725 -0.5962
  137CHL1   C1516342   1.066   0.693  13.560 -0.1767  0.2596  0.8356
  137CHL1  H15A16343   1.139   0.757  13.506 -0.0274 -1.0641 -0.6156
  137CHL1  H15B16344   0.963   0.724  13.531 -0.2152 -0.0698  0.6110
  137CHL1   C1616345   1.091   0.660  13.706 -0.0102  0.0272  0.1218
  137CHL1  H16A16346   1.139   0.752  13.747  0.4778 -0.7489  1.3356
  137CHL1  H16B16347   0.996   0.637  13.759 -0.4728 -0.1778 -0.7775
  137CHL1   C1716348   1.173   0.529  13.710  0.1304  0.4205  0.0926
  137CHL1   H1716349   1.106   0.447  13.742  0.7746  1.6401  5.5373
  137CHL1   C1316350   1.222   0.499  13.562  0.3404  0.3056 -0.0183
  137CHL1   C1816351   1.349   0.567  13.519  0.2824 -0.1620  0.4047
  137CHL1  H18A16352   1.347   0.674  13.546  0.5383 -0.1237  0.2730
  137CHL1  H18B16353   1.434   0.522  13.574  1.2827  2.1196  0.7995
  137CHL1  H18C16354   1.375   0.558  13.411  1.1745  1.1623  0.4900
  137CHL1   C1216355   1.213   0.345  13.523 -0.4731 -0.2023 -0.2584
  137CHL1  H12A16356   1.291   0.283  13.571  0.9755  1.3533 -0.5499
  137CHL1  H12B16357   1.113   0.307  13.554  0.3137 -2.6871 -0.5396
  137CHL1   C1116358   1.220   0.327  13.371 -0.7305  0.2253  0.0175
  137CHL1  H11A16359   1.316   0.366  13.330  0.3417 -1.4788  0.8092
  137CHL1  H11B16360   1.223   0.219  13.343 -1.2924  0.4918 -1.1406
  137CHL1    C916361   1.115   0.410  13.293 -0.3039  0.5589 -0.0126
  137CHL1    H916362   1.018   0.368  13.329  0.3382 -1.8449 -0.9132
  137CHL1   C1016363   1.124   0.396  13.137  0.4255 -0.0339  0.0761
  137CHL1   C1916364   1.266   0.428  13.095 -0.4679 -0.0283  0.0462
  137CHL1  H19A16365   1.298   0.527  13.134 -0.1913  0.9123 -2.3831
  137CHL1  H19B16366   1.340   0.347  13.113 -0.4008 -0.4160 -1.7707
  137CHL1  H19C16367   1.266   0.432  12.984 -0.1097  0.2069  0.0525
  137CHL1    C116368   1.082   0.247  13.096  0.4200  0.3410  0.6214
  137CHL1   H1A16369   1.164   0.178  13.125  1.2993  1.0561 -0.1113
  137CHL1   H1B16370   0.993   0.215  13.155  1.6232 -0.5790  1.9783
  137CHL1    C216371   1.060   0.224  12.941  0.2438  0.0263 -0.1479
  137CHL1   H2A16372   1.029   0.120  12.916  0.7096 -0.1320 -0.0728
  137CHL1   H2B16373   1.161   0.241  12.897  0.0291  0.2518 -0.5579
  137CHL1   C2016374   1.284   0.534  13.810  0.1028 -0.4851 -0.7258
  137CHL1   H2016375   1.356   0.611  13.775 -1.9907  0.8298 -2.3690
  137CHL1   C2116376   1.365   0.401  13.815 -0.7628 -0.2342  0.1695
  137CHL1  H21A16377   1.301   0.310  13.820 -0.6008 -0.4966 -1.7571
  137CHL1  H21B16378   1.430   0.395  13.905  0.8315  1.7442 -0.7762
  137CHL1  H21C16379   1.431   0.380  13.728 -1.1894  1.8998 -0.7122
  137CHL1   C2216380   1.239   0.574  13.954  0.3079  0.4814  0.1251
  137CHL1  H22A16381   1.330   0.589  14.016  1.2091  1.0422 -1.2813
  137CHL1  H22B16382   1.198   0.677  13.952 -2.4617 -0.5161  1.5458
  137CHL1   C2316383   1.142   0.480  14.029  0.4703  0.3601 -0.1971
  137CHL1  H23A16384   1.044   0.503  13.982  0.4926  2.1587  0.5548
  137CHL1  H23B16385   1.182   0.377  14.033 -1.4570 -0.4247 -0.0333
  137CHL1   C2416386   1.112   0.522  14.176 -0.4914 -0.4517 -0.5375
  137CHL1  H24A16387   1.200   0.548  14.239  0.4326 -1.9321 -1.1902
  137CHL1  H24B16388   1.055   0.618  14.168 -1.4800 -0.9524  0.1906
  137CHL1   C2516389   1.005   0.431  14.244 -0.4920 -0.7434  0.6169
  137CHL1   H2516390   0.918   0.426  14.175 -0.1658 -0.3437  0.1638
  137CHL1   C2616391   1.052   0.289  14.256 -0.1508  0.3917  0.0708
  137CHL1  H26A16392   1.156   0.292  14.294  0.3832 -0.1085 -1.2898
  137CHL1  H26B16393   0.986   0.230  14.323  1.7517 -1.2530  0.5891
  137CHL1  H26C16394   1.051   0.240  14.156  2.1569  3.2267 -1.4811
  137CHL1   C2716395   0.967   0.490  14.374  0.4165  0.4625 -0.3593
  137CHL1  H27A16396   0.933   0.595  14.363  0.6847  0.6017  0.1294
  137CHL1  H27B16397   0.881   0.436  14.419 -0.2307 -0.1554 -2.2443
  137CHL1  H27C16398   1.046   0.486  14.452 -0.9846  0.2189  1.0895
  138CHL1    C316399   7.316   6.969  13.345 -0.7806  0.2742  0.2671
  138CHL1    H316400   7.382   6.896  13.396  1.5010  1.4813 -0.8026
  138CHL1    O316401   7.353   6.981  13.209  0.2365  0.4161  0.0928
  138CHL1   H3'16402   7.326   6.897  13.171  1.9738  1.2746 -3.4843
  138CHL1    C416403   7.171   6.913  13.345 -0.1636  0.0247 -0.5411
  138CHL1   H4A16404   7.114   6.966  13.266 -1.9195 -0.4647  0.3600
  138CHL1   H4B16405   7.191   6.809  13.310  1.6006  0.5454 -1.1915
  138CHL1    C516406   7.113   6.909  13.482 -0.0806  0.7200 -0.0032
  138CHL1    C616407   7.077   6.793  13.544 -0.6579  0.0166 -0.3548
  138CHL1    H616408   7.094   6.707  13.478  1.5491  0.2047 -0.1187
  138CHL1    C716409   7.034   6.771  13.680 -0.1142 -0.5560 -0.6827
  138CHL1   H7A16410   6.960   6.689  13.688 -0.5208 -0.0062  2.3484
  138CHL1   H7B16411   7.114   6.735  13.747  1.1437  0.2774 -1.6945
  138CHL1    C816412   6.987   6.909  13.729 -0.2223  0.1094  0.0837
  138CHL1    H816413   6.896   6.935  13.671  1.0068 -0.2051 -2.0795
  138CHL1   C1416414   6.947   6.903  13.876 -0.2662 -0.8916  0.0635
  138CHL1   H1416415   7.040   6.873  13.929  0.6310  1.4458 -0.0634
  138CHL1   C1516416   6.845   6.797  13.912  0.1036  0.4411  0.4270
  138CHL1  H15A16417   6.761   6.784  13.841 -0.6652  0.8188  1.2474
  138CHL1  H15B16418   6.893   6.697  13.921 -1.2753 -0.5386 -2.1585
  138CHL1   C1616419   6.764   6.840  14.033 -0.3579  0.1121  0.1544
  138CHL1  H16A16420   6.659   6.860  14.005  0.1377  2.8707 -0.0106
  138CHL1  H16B16421   6.761   6.758  14.108  0.2051 -1.1448 -1.1500
  138CHL1   C1716422   6.839   6.967  14.082  0.0360  0.4804  0.0558
  138CHL1   H1716423   6.930   6.929  14.134 -0.7699 -0.9066  0.5110
  138CHL1   C1316424   6.887   7.028  13.941 -0.5334 -0.0029  0.3269
  138CHL1   C1816425   6.763   7.088  13.868  0.0455 -0.3136  0.0630
  138CHL1  H18A16426   6.785   7.164  13.790 -0.9417  0.1853  0.2466
  138CHL1  H18B16427   6.699   7.009  13.824 -3.4420  0.2557  3.5412
  138CHL1  H18C16428   6.692   7.146  13.932 -0.8352 -1.0630 -0.2239
  138CHL1   C1216429   7.009   7.128  13.948 -0.3087 -0.3031  0.0295
  138CHL1  H12A16430   6.973   7.222  13.997  1.0724 -0.4475  1.4152
  138CHL1  H12B16431   7.087   7.075  14.008 -0.3777 -0.3742  0.0559
  138CHL1   C1116432   7.055   7.151  13.797  0.6737  0.9492 -0.2273
  138CHL1  H11A16433   6.974   7.210  13.748 -0.1049  0.3829  0.3622
  138CHL1  H11B16434   7.143   7.219  13.802  0.6743  0.8447  1.8562
  138CHL1    C916435   7.090   7.023  13.708 -0.0888 -0.5141 -0.7218
  138CHL1    H916436   7.177   6.976  13.758 -0.7068 -0.5889  0.3168
  138CHL1   C1016437   7.133   7.045  13.560 -0.0435  0.3532  0.3496
  138CHL1   C1916438   7.015   7.127  13.488  0.2972 -0.0762 -0.3696
  138CHL1  H19A16439   7.007   7.226  13.538  0.1238  1.2565 -2.9024
  138CHL1  H19B16440   7.022   7.138  13.378  1.3826 -2.3816 -0.6064
  138CHL1  H19C16441   6.917   7.082  13.512 -1.2687  1.8158 -2.7798
  138CHL1    C116442   7.274   7.119  13.538 -0.3636 -0.1155  0.0022
  138CHL1   H1A16443   7.247   7.224  13.563 -1.8137 -0.2937 -0.7059
  138CHL1   H1B16444   7.343   7.078  13.615 -1.8584  0.3415  1.6463
  138CHL1    C216445   7.333   7.106  13.400  0.2663 -0.7443 -0.1256
  138CHL1   H2A16446   7.442   7.129  13.396  0.5476 -2.0106 -0.2457
  138CHL1   H2B16447   7.275   7.180  13.340  0.1549  0.4650  1.4113
  138CHL1   C2016448   6.760   7.056  14.182 -0.0765  0.0761 -0.0442
  138CHL1   H2016449   6.678   7.106  14.126  0.3074 -0.2839 -0.9463
  138CHL1   C2116450   6.842   7.164  14.252  0.8808  0.1033  0.1399
  138CHL1  H21A16451   6.864   7.257  14.195 -0.6143  1.1215  1.1408
  138CHL1  H21B16452   6.936   7.117  14.289  0.2258 -0.6420  0.9048
  138CHL1  H21C16453   6.785   7.209  14.336 -0.2669 -0.3599 -0.3750
  138CHL1   C2216454   6.682   6.987  14.288  0.1909 -0.8098  0.4945
  138CHL1  H22A16455   6.613   7.058  14.338 -2.1141 -2.4048 -0.2457
  138CHL1  H22B16456   6.609   6.929  14.227  0.5026  0.4988 -1.2270
  138CHL1   C2316457   6.760   6.899  14.384  0.6987 -0.1175  0.1242
  138CHL1  H23A16458   6.817   6.820  14.330 -1.2579  0.3379 -2.8284
  138CHL1  H23B16459   6.836   6.960  14.438  0.7353 -0.0731  0.0245
  138CHL1   C2416460   6.683   6.819  14.496 -0.1469 -1.0565  0.1387
  138CHL1  H24A16461   6.618   6.739  14.456  1.2661 -2.1997  0.0430
  138CHL1  H24B16462   6.756   6.766  14.562  0.6481  0.0953  0.2241
  138CHL1   C2516463   6.597   6.902  14.590  0.4807  0.4105  0.6044
  138CHL1   H2516464   6.515   6.959  14.540 -3.3537 -2.3957  3.1793
  138CHL1   C2616465   6.531   6.806  14.687  0.0391  0.2856 -0.8048
  138CHL1  H26A16466   6.458   6.744  14.631  0.5956 -0.9025 -0.2445
  138CHL1  H26B16467   6.594   6.734  14.745  1.1184  0.4324 -1.7498
  138CHL1  H26C16468   6.477   6.858  14.769  0.6179  0.6767 -0.6649
  138CHL1   C2716469   6.684   7.005  14.665  0.5291 -0.0292 -0.1695
  138CHL1  H27A16470   6.767   6.939  14.700  1.1741  0.2841 -1.0754
  138CHL1  H27B16471   6.710   7.083  14.591 -0.2449 -0.7187 -1.2052
  138CHL1  H27C16472   6.628   7.052  14.749  0.1820 -0.1111 -0.3519
  139CHL1    C316473   0.717   6.288  13.650 -0.5061  0.0441  0.1221
  139CHL1    H316474   0.825   6.300  13.676 -0.0674 -0.4086 -1.3827
  139CHL1    O316475   0.704   6.329  13.512 -0.5436 -0.6048  0.2829
  139CHL1   H3'16476   0.659   6.254  13.472  1.3355 -1.5786 -0.1281
  139CHL1    C416477   0.674   6.145  13.664 -0.4512  0.6188 -0.1068
  139CHL1   H4A16478   0.572   6.125  13.626 -1.2129  3.6841  0.0761
  139CHL1   H4B16479   0.734   6.087  13.591 -1.1565  0.4649 -0.5756
  139CHL1    C516480   0.696   6.092  13.805  0.1004  0.2607 -0.4952
  139CHL1    C616481   0.774   5.983  13.832  0.2811  0.2182  0.2628
  139CHL1    H616482   0.819   5.928  13.748 -0.4122  0.8955 -0.5648
  139CHL1    C716483   0.799   5.923  13.970  0.1904 -0.2123  0.2838
  139CHL1   H7A16484   0.765   5.817  13.969  1.0893 -0.5144 -1.1926
  139CHL1   H7B16485   0.909   5.923  13.982  0.4889  2.6034 -1.3985
  139CHL1    C816486   0.709   5.992  14.081 -0.5210  0.1139  0.1954
  139CHL1    H816487   0.613   5.937  14.067 -0.3564 -0.1379  0.0450
  139CHL1   C1416488   0.756   5.968  14.218  0.2262  0.4683 -0.8338
  139CHL1   H1416489   0.856   6.016  14.225  0.4512 -0.1896  1.0917
  139CHL1   C1516490   0.778   5.822  14.262  0.4288 -0.1263  0.3288
  139CHL1  H15A16491   0.698   5.758  14.218 -0.4079 -0.0026  1.6093
  139CHL1  H15B16492   0.878   5.792  14.223 -0.1628 -0.6320 -0.8693
  139CHL1   C1616493   0.771   5.825  14.413  0.6079  0.3773  0.6291
  139CHL1  H16A16494   0.700   5.749  14.453 -1.3749 -0.0030 -3.1238
  139CHL1  H16B16495   0.872   5.803  14.452  0.0406 -2.2937  0.8051
  139CHL1   C1716496   0.728   5.970  14.451  0.0598  0.5986 -0.9882
  139CHL1   H1716497   0.823   6.022  14.471  0.0759  0.6845 -1.2888
  139CHL1   C1316498   0.663   6.029  14.328  0.2625  0.0718 -0.4382
  139CHL1   C1816499   0.523   5.968  14.306 -0.2258 -1.0234  0.2980
  139CHL1  H18A16500   0.527   5.858  14.294  0.7249 -0.9878  0.2138
  139CHL1  H18B16501   0.454   5.996  14.388  0.6027 -0.6108  0.8663
  139CHL1  H18C16502   0.483   6.016  14.214  3.0333  1.0325 -0.2219
  139CHL1   C1216503   0.655   6.181  14.312  0.0327  0.0045  0.1159
  139CHL1  H12A16504   0.592   6.233  14.387 -0.4120 -0.0466 -0.2195
  139CHL1  H12B16505   0.759   6.218  14.323 -0.5721  1.4608  1.3399
  139CHL1   C1116506   0.616   6.229  14.164  0.1592  0.1875  0.0687
  139CHL1  H11A16507   0.508   6.206  14.152  0.8842 -4.2221  0.3688
  139CHL1  H11B16508   0.621   6.339  14.151 -1.1010  0.1050 -1.4469
  139CHL1    C916509   0.689   6.147  14.056  0.2127 -0.4985 -0.3602
  139CHL1    H916510   0.792   6.189  14.047 -0.2818  0.4365 -2.0823
  139CHL1   C1016511   0.633   6.184  13.917 -0.3164 -0.4477 -0.1812
  139CHL1   C1916512   0.482   6.150  13.908  0.1818 -0.5358  0.2221
  139CHL1  H19A16513   0.439   6.172  13.807  1.8370  0.3529 -0.3275
  139CHL1  H19B16514   0.460   6.043  13.927  1.3464 -0.6170  1.2134
  139CHL1  H19C16515   0.425   6.209  13.983  0.6528  0.6830 -0.3336
  139CHL1    C116516   0.652   6.335  13.890 -0.1925  0.7102  0.8280
  139CHL1   H1A16517   0.589   6.396  13.957 -1.1045  2.0978 -1.1888
  139CHL1   H1B16518   0.757   6.353  13.922  0.8629 -0.1703 -1.8318
  139CHL1    C216519   0.641   6.382  13.744 -0.2706 -0.0009  0.8101
  139CHL1   H2A16520   0.687   6.481  13.723  1.1861 -0.5960  1.1222
  139CHL1   H2B16521   0.534   6.399  13.718  0.2124  1.2544 -0.5522
  139CHL1   C2016522   0.655   5.966  14.585 -0.3037 -0.0512 -0.8393
  139CHL1   H2016523   0.555   5.924  14.563  0.5391 -3.4854  1.1649
  139CHL1   C2116524   0.625   6.106  14.648 -0.1215  0.3777 -0.6202
  139CHL1  H21A16525   0.726   6.145  14.671  1.3714 -2.9910 -0.8599
  139CHL1  H21B16526   0.562   6.105  14.740  0.3379 -0.7659 -0.2922
  139CHL1  H21C16527   0.578   6.175  14.575  0.0213  1.7445  0.5543
  139CHL1   C2216528   0.725   5.875  14.692 -0.0543 -0.0112 -0.2393
  139CHL1  H22A16529   0.706   5.771  14.658  3.0554 -0.4108 -1.0965
  139CHL1  H22B16530   0.836   5.886  14.687 -0.0559  0.1801  0.1043
  139CHL1   C2316531   0.675   5.892  14.835 -0.8355  0.4478 -0.2340
  139CHL1  H23A16532   0.699   5.991  14.878  1.2632 -0.7191  1.4332
  139CHL1  H23B16533   0.565   5.878  14.837 -1.1422  2.6198  1.4373
  139CHL1   C2416534   0.724   5.786  14.934 -0.0337  0.3472  0.6077
  139CHL1  H24A16535   0.698   5.689  14.888 -1.8786  0.8341  0.5506
  139CHL1  H24B16536   0.834   5.781  14.949 -0.3988 -1.4615  3.5557
  139CHL1   C2516537   0.654   5.786  15.065  0.3743  1.3694 -0.0390
  139CHL1   H2516538   0.547   5.758  15.058  0.5223  0.6911  0.3443
  139CHL1   C2616539   0.709   5.677  15.164 -0.2121  0.1470  0.6835
  139CHL1  H26A16540   0.638   5.647  15.244 -0.1977 -0.0601  0.6171
  139CHL1  H26B16541   0.722   5.586  15.102  0.3173  0.4888  0.2801
  139CHL1  H26C16542   0.812   5.705  15.197  0.0105  0.6023 -0.3533
  139CHL1   C2716543   0.659   5.919  15.141  0.4428  0.4570  0.5024
  139CHL1  H27A16544   0.604   5.998  15.086 -0.7093 -0.4041  0.3670
  139CHL1  H27B16545   0.618   5.921  15.244 -0.7709  0.8474  0.0362
  139CHL1  H27C16546   0.761   5.961  15.150 -0.7920  4.3696 -1.3311
  140CHL1    C316547   0.397   7.204  13.364 -1.0513  0.2443 -0.0015
  140CHL1    H316548   0.453   7.114  13.399  0.4803  0.8583 -0.7807
  140CHL1    O316549   0.470   7.249  13.248  0.4741  0.9214 -0.6845
  140CHL1   H3'16550   0.418   7.321  13.211 -0.9064 -0.6914 -2.0630
  140CHL1    C416551   0.250   7.164  13.326 -0.4712 -0.2258  0.3328
  140CHL1   H4A16552   0.212   7.248  13.265  0.1452  0.3053  0.6584
  140CHL1   H4B16553   0.259   7.078  13.257  2.1899 -0.6763  1.1279
  140CHL1    C516554   0.161   7.125  13.443  0.0408  0.1345  0.1865
  140CHL1    C616555   0.102   7.006  13.447  0.1762 -0.2586 -0.6738
  140CHL1    H616556   0.119   6.939  13.362  0.5060 -0.3792 -0.5166
  140CHL1    C716557   0.014   6.970  13.567  0.0533  0.0033  0.0525
  140CHL1   H7A16558  -0.086   6.940  13.529  0.2533 -0.3462 -0.2018
  140CHL1   H7B16559   0.046   6.877  13.619 -2.2012 -1.0981 -0.3942
  140CHL1    C816560  -0.022   7.087  13.659 -0.0772  0.1741 -0.4734
  140CHL1    H816561  -0.100   7.146  13.607  1.0917  1.8675 -0.3676
  140CHL1   C1416562  -0.070   7.028  13.791  0.3832  0.0414 -0.3965
  140CHL1   H1416563   0.024   6.978  13.823  3.3768  4.9329 -0.4083
  140CHL1   C1516564  -0.181   6.918  13.800  0.5818  0.7603  0.1358
  140CHL1  H15A16565  -0.260   6.939  13.725  0.3348  1.3987  0.5646
  140CHL1  H15B16566  -0.131   6.825  13.766 -0.8348 -0.5224  1.4202
  140CHL1   C1616567  -0.228   6.922  13.948 -0.2318  0.4927 -0.2816
  140CHL1  H16A16568  -0.339   6.934  13.948 -0.4252 -1.0458 -1.0768
  140CHL1  H16B16569  -0.196   6.834  14.007  1.0809  1.9498  1.2616
  140CHL1   C1716570  -0.148   7.034  14.016 -0.6427  0.8610 -0.3646
  140CHL1   H1716571  -0.050   6.992  14.045 -1.5774 -0.8311  0.4892
  140CHL1   C1316572  -0.108   7.130  13.900 -0.4480  0.5734  0.4051
  140CHL1   C1816573  -0.224   7.217  13.860  0.0652 -0.4993  0.1246
  140CHL1  H18A16574  -0.210   7.241  13.753  0.4296 -2.1599 -0.2345
  140CHL1  H18B16575  -0.324   7.169  13.867 -0.4998  0.5975 -0.2073
  140CHL1  H18C16576  -0.236   7.306  13.925  0.8616 -0.4064  0.1472
  140CHL1   C1216577   0.014   7.219  13.920  0.1857 -0.1958 -0.3349
  140CHL1  H12A16578  -0.029   7.302  13.981 -1.7349 -1.0041 -0.5018
  140CHL1  H12B16579   0.100   7.168  13.969 -2.4262 -2.5252  2.1754
  140CHL1   C1116580   0.055   7.281  13.789 -0.8152  0.4107 -0.1549
  140CHL1  H11A16581  -0.016   7.358  13.753 -1.5274  0.2011  0.7518
  140CHL1  H11B16582   0.147   7.339  13.817 -0.6597  0.9045 -1.6327
  140CHL1    C916583   0.093   7.179  13.681 -0.1564 -0.2405  0.1582
  140CHL1    H916584   0.175   7.120  13.726  0.2464 -0.9554 -1.4232
  140CHL1   C1016585   0.160   7.228  13.551 -0.2613  0.4470  0.1009
  140CHL1   C1916586   0.077   7.351  13.508  0.2814  0.2303 -0.2881
  140CHL1  H19A16587   0.114   7.382  13.408  2.1155  0.5986  0.4617
  140CHL1  H19B16588  -0.025   7.311  13.489  0.9790 -2.3823  1.0205
  140CHL1  H19C16589   0.086   7.437  13.577  2.1513 -0.0096 -0.1840
  140CHL1    C116590   0.304   7.280  13.590  0.9988 -0.3527 -0.3422
  140CHL1   H1A16591   0.291   7.371  13.653 -2.5371 -0.9365 -0.0536
  140CHL1   H1B16592   0.361   7.216  13.661  1.4811 -0.2542 -0.6315
  140CHL1    C216593   0.392   7.316  13.471  0.4288  0.6963  0.0191
  140CHL1   H2A16594   0.491   7.336  13.517 -0.4192  2.1497  1.2752
  140CHL1   H2B16595   0.360   7.412  13.425  0.8498  0.0555 -1.7279
  140CHL1   C2016596  -0.202   7.078  14.150  0.0892  0.2361 -0.2584
  140CHL1   H2016597  -0.191   6.993  14.221  0.1424 -1.2117 -1.9318
  140CHL1   C2116598  -0.352   7.103  14.141  0.3782 -0.0724 -0.6084
  140CHL1  H21A16599  -0.416   7.020  14.103  0.1588  0.6251 -1.8073
  140CHL1  H21B16600  -0.365   7.194  14.080 -2.3863  0.4372  0.5608
  140CHL1  H21C16601  -0.397   7.128  14.240 -0.4592 -2.3753 -0.3259
  140CHL1   C2216602  -0.128   7.191  14.227 -0.0941 -0.3582 -0.2018
  140CHL1  H22A16603  -0.018   7.175  14.215  0.5448  0.1748  3.6737
  140CHL1  H22B16604  -0.155   7.290  14.185  0.3440 -0.2078 -0.1421
  140CHL1   C2316605  -0.145   7.201  14.377 -0.4281 -0.3987 -0.2604
  140CHL1  H23A16606  -0.250   7.219  14.405 -0.3927 -0.0984 -0.3175
  140CHL1  H23B16607  -0.102   7.104  14.412  0.8107  0.3109  0.2657
  140CHL1   C2416608  -0.067   7.320  14.430  0.0001 -0.2819  0.0716
  140CHL1  H24A16609   0.042   7.319  14.408 -0.0574  1.7313 -0.5032
  140CHL1  H24B16610  -0.091   7.416  14.379  0.7128 -1.3154 -2.3345
  140CHL1   C2516611  -0.075   7.337  14.578 -0.1392 -0.0347 -0.4423
  140CHL1   H2516612  -0.179   7.364  14.605  0.4585  0.8761  1.1463
  140CHL1   C2616613   0.009   7.453  14.639 -0.0543 -0.1594  0.1213
  140CHL1  H26A16614  -0.019   7.471  14.745  0.7436  0.2503  0.2731
  140CHL1  H26B16615   0.118   7.433  14.645  0.9148  3.0332 -2.8809
  140CHL1  H26C16616  -0.004   7.552  14.588 -0.5679  0.6227  1.7165
  140CHL1   C2716617  -0.015   7.210  14.646 -0.1853  0.5808 -0.6251
  140CHL1  H27A16618   0.085   7.193  14.602 -0.3893 -1.5623 -0.3335
  140CHL1  H27B16619  -0.003   7.225  14.755 -1.3578  1.1929 -0.5618
  140CHL1  H27C16620  -0.077   7.119  14.631 -0.4130  0.6010  0.1816
  141DOPC     N16621   4.507   1.966  17.021  0.6630  0.3325 -0.2517
  141DOPC   C1216622   4.553   2.066  16.920  0.1002 -0.1107  0.1710
  141DOPC  H12A16623   4.486   2.069  16.835  0.1757  0.6175  0.1348
  141DOPC  H12B16624   4.647   2.034  16.877  0.2951  1.3274 -0.5214
  141DOPC   C1316625   4.480   1.834  16.957 -0.5288 -0.1696  0.3217
  141DOPC  H13A16626   4.570   1.806  16.904 -1.4248 -0.7288 -0.9615
  141DOPC  H13B16627   4.452   1.762  17.033 -0.3970  0.4888  1.0102
  141DOPC  H13C16628   4.409   1.842  16.876  1.8322  0.7964 -1.7843
  141DOPC   C1416629   4.382   2.004  17.096 -0.2630  0.0325  0.0121
  141DOPC  H14A16630   4.397   2.098  17.146  0.2800 -0.1296  0.1502
  141DOPC  H14B16631   4.303   2.017  17.022 -0.3733 -1.2959 -0.1290
  141DOPC  H14C16632   4.353   1.926  17.164  2.3255  0.7570  2.1041
  141DOPC   C1516633   4.612   1.934  17.131  0.5750 -0.4001  0.6458
  141DOPC  H15A16634   4.709   1.916  17.087  0.2444 -3.5062  0.9694
  141DOPC  H15B16635   4.585   1.843  17.182 -2.0189 -0.7232 -1.0994
  141DOPC  H15C16636   4.620   2.013  17.205 -1.5650  2.1184 -1.5932
  141DOPC   C1116637   4.566   2.205  16.971 -0.1534 -0.5247 -0.6247
  141DOPC  H11A16638   4.608   2.193  17.074  0.1960 -2.7779 -0.9822
  141DOPC  H11B16639   4.645   2.262  16.917 -1.0367  0.7229 -0.6574
  141DOPC     P16640   4.366   2.322  16.845 -0.2436  0.1997  0.1333
  141DOPC   O1316641   4.381   2.473  16.832  0.3903  0.7100  0.2988
  141DOPC   O1416642   4.229   2.265  16.845  0.0531 -0.5835 -0.1038
  141DOPC   O1216643   4.438   2.275  16.971  0.8628  0.3811  0.3417
  141DOPC   O1116644   4.454   2.247  16.731 -0.5592  0.4504  0.2104
  141DOPC    C116645   4.476   2.320  16.608  0.9074  0.5965 -0.1079
  141DOPC    HA16646   4.572   2.283  16.566 -0.2107 -0.9525 -1.4233
  141DOPC    HB16647   4.493   2.429  16.620 -0.0413  0.6980  0.4294
  141DOPC    C216648   4.370   2.292  16.490 -0.1921  0.1051  0.6096
  141DOPC    HS16649   4.421   2.315  16.394  0.8799  0.3962  1.2320
  141DOPC   O2116650   4.251   2.367  16.515  0.0441 -0.7090 -0.4877
  141DOPC   C2116651   4.273   2.499  16.488  0.1651 -0.6015  0.9557
  141DOPC   O2216652   4.378   2.549  16.447  0.0917  0.0196 -0.8049
  141DOPC   C2216653   4.145   2.574  16.515  0.1986  0.4431  0.2164
  141DOPC   H2R16654   4.123   2.577  16.623 -0.4781 -0.6147  0.1125
  141DOPC   H2S16655   4.058   2.525  16.467  1.2113  0.5552 -1.8829
  141DOPC    C316656   4.333   2.143  16.464  0.3801  0.0013  0.1933
  141DOPC    HX16657   4.286   2.102  16.555 -0.7861  2.3924  0.7362
  141DOPC    HY16658   4.425   2.086  16.435 -0.2832  0.0522 -2.1999
  141DOPC   O3116659   4.237   2.130  16.353 -0.4362 -0.5503  0.0293
  141DOPC   C3116660   4.117   2.150  16.393  0.6824  0.0108  0.0299
  141DOPC   O3216661   4.068   2.151  16.504 -0.8689  0.2076 -0.0492
  141DOPC   C3216662   4.028   2.164  16.269 -0.0712 -0.4206  0.1390
  141DOPC   H2X16663   4.088   2.155  16.176  0.4346 -1.7769  0.5698
  141DOPC   H2Y16664   3.949   2.089  16.250  1.2024 -1.7361 -0.1046
  141DOPC   C2316665   4.130   2.722  16.461  0.2210  0.1471  0.0874
  141DOPC   H3R16666   4.147   2.714  16.351 -0.9937 -0.9169 -0.0509
  141DOPC   H3S16667   4.208   2.783  16.510 -0.7638 -0.2652  2.2633
  141DOPC   C2416668   3.990   2.786  16.462 -0.4373  0.4622 -1.0684
  141DOPC   H4R16669   3.988   2.875  16.395 -2.4363  2.3716  1.3517
  141DOPC   H4S16670   3.979   2.827  16.564  3.3676 -1.0303  0.1164
  141DOPC   C2516671   3.872   2.693  16.413 -0.1513  0.6146 -0.2233
  141DOPC   H5R16672   3.833   2.626  16.493  0.1567  0.9019  0.1693
  141DOPC   H5S16673   3.902   2.626  16.329 -1.7271 -3.0362  1.8834
  141DOPC   C2616674   3.757   2.782  16.375  0.0713  0.2402  0.1540
  141DOPC   H6R16675   3.794   2.854  16.300  2.6764 -0.6192  0.5244
  141DOPC   H6S16676   3.728   2.833  16.470 -2.0520 -0.1599 -0.2325
  141DOPC   C2716677   3.636   2.707  16.318 -0.0176  0.4918  0.0154
  141DOPC   H7R16678   3.579   2.642  16.388  0.3442 -1.1320 -1.1534
  141DOPC   H7S16679   3.684   2.650  16.236 -0.2109 -0.0719  0.2930
  141DOPC   C2816680   3.532   2.801  16.251 -0.4149 -0.4051 -0.3556
  141DOPC   H8R16681   3.582   2.855  16.168  1.6164 -0.3555  0.8186
  141DOPC   H8S16682   3.509   2.875  16.331  0.2883 -1.3323  0.7311
  141DOPC   C2916683   3.406   2.740  16.202 -0.5442 -0.1501 -0.1332
  141DOPC   H9R16684   3.340   2.716  16.287  0.4824 -0.4085  0.6116
  141DOPC  C21016685   3.366   2.720  16.077 -0.7179 -0.1693  0.1493
  141DOPC  H10R16686   3.265   2.688  16.049  0.3834 -2.3331 -1.7078
  141DOPC  C21116687   3.440   2.775  15.957  0.7004 -0.2489  0.2189
  141DOPC  H11R16688   3.550   2.756  15.956  0.5998 -0.9927 -1.9750
  141DOPC  H11S16689   3.426   2.885  15.958 -0.1687 -0.3453  1.5937
  141DOPC  C21216690   3.382   2.714  15.823 -1.1225 -0.5372  0.0412
  141DOPC  H12R16691   3.290   2.771  15.799 -0.0168  0.7692 -1.3066
  141DOPC  H12S16692   3.354   2.608  15.836 -0.2478 -0.7743  0.0719
  141DOPC  C21316693   3.468   2.725  15.701 -0.2401 -0.2805 -0.3836
  141DOPC  H13R16694   3.545   2.646  15.710 -0.3680 -0.3500  0.1943
  141DOPC  H13S16695   3.517   2.824  15.697 -0.6771 -0.0581 -0.2968
  141DOPC  C21416696   3.384   2.684  15.588 -0.1237  0.4669  0.8211
  141DOPC  H14R16697   3.292   2.746  15.595  1.0012  2.6600 -1.8093
  141DOPC  H14S16698   3.366   2.574  15.590  4.3391 -0.4605  0.8919
  141DOPC  C21516699   3.430   2.727  15.445 -0.2285  0.2535  0.4696
  141DOPC  H15R16700   3.533   2.690  15.431 -0.5451 -0.0913 -1.0286
  141DOPC  H15S16701   3.449   2.837  15.442  1.9805 -0.0933 -0.3624
  141DOPC  C21616702   3.361   2.689  15.312 -0.0479 -0.4369 -0.6560
  141DOPC  H16R16703   3.254   2.715  15.331  0.1171  1.0457 -1.6625
  141DOPC  H16S16704   3.371   2.578  15.304  1.3180 -0.4291  0.5396
  141DOPC  C21716705   3.425   2.760  15.192  0.1064  0.4573  0.2406
  141DOPC  H17R16706   3.532   2.774  15.218 -0.3435  1.6232  1.5684
  141DOPC  H17S16707   3.374   2.857  15.177 -0.0121  0.1887 -1.3385
  141DOPC  C21816708   3.435   2.686  15.061  0.2705  0.3282 -0.9761
  141DOPC  H18R16709   3.476   2.752  14.982  2.1476  0.2749 -0.1063
  141DOPC  H18S16710   3.330   2.673  15.025  0.3026  1.4159 -1.4749
  141DOPC  H18T16711   3.479   2.584  15.065  0.4023  0.3349 -2.1575
  141DOPC   C3316712   3.964   2.310  16.274  0.0445  0.0574  0.8909
  141DOPC   H3X16713   4.047   2.381  16.293  1.1842 -1.2764  1.0640
  141DOPC   H3Y16714   3.896   2.307  16.361  0.0493  1.2236  0.9440
  141DOPC   C3416715   3.880   2.348  16.155 -0.0494  0.0003  0.0809
  141DOPC   H4X16716   3.948   2.360  16.068  0.0674  0.1254  0.1895
  141DOPC   H4Y16717   3.837   2.447  16.180 -0.0544  0.3413 -1.1865
  141DOPC   C3516718   3.760   2.254  16.113 -0.4185  0.1091  0.1670
  141DOPC   H5X16719   3.711   2.211  16.203  1.1627  0.1980  1.1118
  141DOPC   H5Y16720   3.800   2.169  16.055  1.5709  0.6185  0.7036
  141DOPC   C3616721   3.656   2.334  16.032  0.3634 -0.0977  0.5589
  141DOPC   H6X16722   3.591   2.401  16.094 -0.6949  0.8947 -1.5185
  141DOPC   H6Y16723   3.708   2.401  15.961  0.6101 -0.2259  0.6208
  141DOPC   C3716724   3.547   2.244  15.958  0.2108  0.0739 -0.1374
  141DOPC   H7X16725   3.609   2.172  15.901 -0.1009 -0.9549  0.7830
  141DOPC   H7Y16726   3.476   2.195  16.028  2.3179 -0.4640  1.7558
  141DOPC   C3816727   3.467   2.326  15.856 -0.2767 -0.9501  0.1412
  141DOPC   H8X16728   3.540   2.381  15.792 -2.6654 -1.0537 -2.9445
  141DOPC   H8Y16729   3.401   2.396  15.912  0.8701  1.4541 -1.3728
  141DOPC   C3916730   3.380   2.248  15.765  0.1819 -0.6744  0.2782
  141DOPC   H9X16731   3.273   2.270  15.768  0.5697  1.7299 -0.9767
  141DOPC  C31016732   3.426   2.157  15.678  0.0975 -0.1239 -0.4603
  141DOPC  H10X16733   3.359   2.116  15.601 -0.0118  1.1771 -1.0679
  141DOPC  C31116734   3.570   2.122  15.643  0.2178  0.1568 -0.0915
  141DOPC  H11X16735   3.581   2.012  15.659  0.9564 -0.1113 -2.0849
  141DOPC  H11Y16736   3.652   2.171  15.699 -1.5923  1.2433  1.7414
  141DOPC  C31216737   3.605   2.144  15.498 -0.2828 -0.0432 -0.4777
  141DOPC  H12X16738   3.575   2.248  15.474 -0.3673  0.0676  0.0976
  141DOPC  H12Y16739   3.540   2.076  15.438 -0.0424  0.8095 -1.7345
  141DOPC  C31316740   3.747   2.115  15.452  0.0989  0.0123  0.4995
  141DOPC  H13X16741   3.824   2.178  15.502  1.3561 -0.0068 -1.3362
  141DOPC  H13Y16742   3.770   2.009  15.479  5.0694  0.3491 -1.4220
  141DOPC  C31416743   3.768   2.143  15.303  0.0962  0.3788 -0.0062
  141DOPC  H14X16744   3.732   2.246  15.284 -0.5700  0.6955  2.6340
  141DOPC  H14Y16745   3.877   2.151  15.283  0.1289 -0.3657 -0.1781
  141DOPC  C31516746   3.710   2.032  15.213 -0.3672 -0.5679  0.5868
  141DOPC  H15X16747   3.639   1.974  15.277  3.2084 -2.2205  3.4267
  141DOPC  H15Y16748   3.795   1.963  15.193 -1.4119 -1.9937  0.8455
  141DOPC  C31616749   3.638   2.087  15.083 -0.0024 -0.6455  0.0317
  141DOPC  H16X16750   3.596   1.997  15.033  0.7543 -2.3035  2.2088
  141DOPC  H16Y16751   3.553   2.150  15.116  0.4423 -0.1893  0.3236
  141DOPC  C31716752   3.726   2.172  15.001 -0.2132 -0.4368  0.1133
  141DOPC  H17X16753   3.796   2.233  15.063  1.1717 -1.3583 -0.4858
  141DOPC  H17Y16754   3.789   2.109  14.934 -0.7484 -1.7061  0.7485
  141DOPC  C31816755   3.639   2.268  14.916 -0.5804  0.0818 -0.1618
  141DOPC  H18X16756   3.559   2.206  14.870  0.1283 -1.9799  1.2412
  141DOPC  H18Y16757   3.595   2.355  14.968 -0.1203  0.2735 -0.0848
  141DOPC  H18Z16758   3.700   2.312  14.834 -2.6356  0.7909 -1.3734
  142DOPC     N16759   4.624   2.584  17.135  0.1253  0.4676 -0.5300
  142DOPC   C1216760   4.741   2.644  17.223 -0.0635  0.2499  0.0984
  142DOPC  H12A16761   4.822   2.575  17.208  1.8338  2.5908 -1.0256
  142DOPC  H12B16762   4.708   2.627  17.325  0.7157 -2.2234  0.0125
  142DOPC   C1316763   4.518   2.691  17.127  0.0042 -0.4008  0.5267
  142DOPC  H13A16764   4.561   2.774  17.073  0.9995 -0.7602  0.7347
  142DOPC  H13B16765   4.436   2.666  17.061 -1.5965  0.6333  2.0620
  142DOPC  H13C16766   4.475   2.724  17.220  1.1002  0.9289  0.5858
  142DOPC   C1416767   4.564   2.462  17.196  0.2418  0.4735  0.3080
  142DOPC  H14A16768   4.510   2.412  17.116  2.0609  0.2095 -0.8252
  142DOPC  H14B16769   4.638   2.388  17.224  0.1292  0.9590  1.9839
  142DOPC  H14C16770   4.496   2.485  17.276 -2.5457  1.4972 -2.1463
  142DOPC   C1516771   4.680   2.550  16.999  0.8456  0.6505  0.0754
  142DOPC  H15A16772   4.600   2.528  16.930  0.4352  0.8172  0.4874
  142DOPC  H15B16773   4.737   2.459  17.010 -1.5168 -0.9633 -0.1074
  142DOPC  H15C16774   4.733   2.633  16.957  1.4319 -0.2144 -0.9469
  142DOPC   C1116775   4.805   2.785  17.219 -0.3842  0.4466  0.1940
  142DOPC  H11A16776   4.726   2.857  17.248 -0.7982  1.8528 -3.8122
  142DOPC  H11B16777   4.886   2.782  17.295  0.7375 -0.7711 -0.9794
  142DOPC     P16778   4.901   2.953  17.036  0.0163  0.1810 -0.3173
  142DOPC   O1316779   5.027   2.979  17.100  0.3125 -0.6684 -0.2642
  142DOPC   O1416780   4.799   3.059  17.054 -0.4450 -0.0743 -0.1519
  142DOPC   O1216781   4.856   2.815  17.091  0.1184  0.3439 -0.1729
  142DOPC   O1116782   4.928   2.923  16.891  0.4260 -0.0166  0.2453
  142DOPC    C116783   4.844   2.838  16.812  0.3194  0.0576  0.5619
  142DOPC    HA16784   4.760   2.796  16.871  0.1877  0.2141  0.4852
  142DOPC    HB16785   4.906   2.748  16.788  0.2304  0.2276 -0.3161
  142DOPC    C216786   4.803   2.904  16.680  0.4442 -0.7927 -0.7676
  142DOPC    HS16787   4.712   2.967  16.694  1.8689  1.1768  0.0875
  142DOPC   O2116788   4.786   2.802  16.580  0.1646  0.1976  0.0759
  142DOPC   C2116789   4.708   2.700  16.594  0.8426 -0.1109  0.0757
  142DOPC   O2216790   4.626   2.687  16.684  0.3787 -0.8409  0.5242
  142DOPC   C2216791   4.747   2.587  16.498 -0.0313 -0.2827  0.1079
  142DOPC   H2R16792   4.660   2.572  16.431  1.0497  0.9071 -1.6254
  142DOPC   H2S16793   4.756   2.499  16.566 -0.9595 -0.5615 -0.1091
  142DOPC    C316794   4.905   3.015  16.633  0.2953  0.9489  0.4306
  142DOPC    HX16795   4.999   2.955  16.632 -0.2896 -0.0161 -1.2094
  142DOPC    HY16796   4.916   3.098  16.705  2.6405  0.0806  1.1592
  142DOPC   O3116797   4.859   3.063  16.500 -0.5561 -0.3303 -0.1140
  142DOPC   C3116798   4.954   3.125  16.434 -1.0105 -0.1408  0.2838
  142DOPC   O3216799   5.058   3.172  16.480  0.5885 -0.4309 -0.4160
  142DOPC   C3216800   4.923   3.126  16.285  0.5502  0.2342 -0.3196
  142DOPC   H2X16801   4.890   3.021  16.271 -2.7375  0.6013  3.1319
  142DOPC   H2Y16802   4.839   3.194  16.259 -0.4735 -0.5612  0.8049
  142DOPC   C2316803   4.886   2.592  16.437 -0.1597 -0.0779  0.2209
  142DOPC   H3R16804   4.964   2.574  16.514  0.4618 -1.8895 -0.7662
  142DOPC   H3S16805   4.910   2.693  16.397  1.5612 -0.4284  0.2827
  142DOPC   C2416806   4.921   2.505  16.316  0.0582  0.3353  0.6225
  142DOPC   H4R16807   4.912   2.400  16.353 -2.0609  0.6315  1.0998
  142DOPC   H4S16808   5.029   2.520  16.295  0.4447  2.1202  3.4941
  142DOPC   C2516809   4.834   2.552  16.188  0.1766  0.1246 -0.4089
  142DOPC   H5R16810   4.853   2.662  16.180 -1.9487  0.6332  0.7814
  142DOPC   H5S16811   4.726   2.541  16.211  0.0113  0.3321 -1.0699
  142DOPC   C2616812   4.868   2.482  16.056  0.1425 -0.8777  0.5722
  142DOPC   H6R16813   4.856   2.373  16.076  0.6585 -0.6790  2.1257
  142DOPC   H6S16814   4.977   2.491  16.036  0.1500  0.8830  1.2404
  142DOPC   C2716815   4.813   2.549  15.928  0.7586 -0.6521  0.2174
  142DOPC   H7R16816   4.704   2.547  15.951  0.7308 -0.6426  0.0867
  142DOPC   H7S16817   4.830   2.486  15.838  1.4773  1.9000 -1.5215
  142DOPC   C2816818   4.857   2.693  15.904  0.0303 -0.6512  0.5705
  142DOPC   H8R16819   4.961   2.697  15.864  0.3154  1.0128  1.3890
  142DOPC   H8S16820   4.860   2.760  15.993  0.9477  0.4956 -0.2876
  142DOPC   C2916821   4.763   2.760  15.805  0.2647  0.7895  0.7777
  142DOPC   H9R16822   4.675   2.808  15.850 -0.6018 -0.7517  0.7921
  142DOPC  C21016823   4.773   2.763  15.668 -0.7095 -0.7257 -0.1295
  142DOPC  H10R16824   4.702   2.834  15.625  2.0507  1.0557 -2.0959
  142DOPC  C21116825   4.888   2.721  15.576 -0.2353  0.4478  0.0280
  142DOPC  H11R16826   4.855   2.645  15.502  0.3529  1.1044 -0.9446
  142DOPC  H11S16827   4.966   2.674  15.639 -0.6310  0.1372  0.2925
  142DOPC  C21216828   4.953   2.842  15.499  0.1428 -0.5184 -0.0564
  142DOPC  H12R16829   5.041   2.799  15.448  0.5063 -0.4568  0.5064
  142DOPC  H12S16830   4.978   2.922  15.572  0.3257  0.9094 -1.6322
  142DOPC  C21316831   4.853   2.911  15.405 -0.1870 -0.7329 -0.5425
  142DOPC  H13R16832   4.885   3.018  15.395 -2.4579 -0.0576 -1.1348
  142DOPC  H13S16833   4.752   2.917  15.450  0.2874 -1.3554  0.6250
  142DOPC  C21416834   4.842   2.841  15.266  0.1583 -0.9643  0.0356
  142DOPC  H14R16835   4.790   2.743  15.278 -0.6773 -0.8031 -1.9059
  142DOPC  H14S16836   4.943   2.825  15.222  1.0153 -0.6628  1.8356
  142DOPC  C21516837   4.783   2.940  15.164 -0.0081 -0.3382 -0.3940
  142DOPC  H15R16838   4.870   3.007  15.149  1.9722 -1.8384  3.0446
  142DOPC  H15S16839   4.698   3.003  15.199 -0.1926  0.1825 -1.7193
  142DOPC  C21616840   4.749   2.879  15.027 -0.0188 -0.0063 -0.5887
  142DOPC  H16R16841   4.741   2.962  14.954  0.6033  3.0921  2.5825
  142DOPC  H16S16842   4.649   2.834  15.045  0.5466 -0.8049  0.6929
  142DOPC  C21716843   4.849   2.772  14.980 -0.0400 -0.4985 -0.7787
  142DOPC  H17R16844   4.810   2.720  14.890  0.3089 -0.5333 -0.9131
  142DOPC  H17S16845   4.871   2.695  15.057 -1.3668  0.5755  0.7056
  142DOPC  C21816846   4.982   2.838  14.929 -0.0776 -0.0736 -0.1145
  142DOPC  H18R16847   5.006   2.928  14.990 -1.3370  0.0059  0.3053
  142DOPC  H18S16848   4.962   2.876  14.826 -2.3264 -3.0806 -0.9154
  142DOPC  H18T16849   5.065   2.766  14.917  0.0380  0.2140 -1.1373
  142DOPC   C3316850   5.033   3.161  16.195  0.0880 -0.6424 -1.0987
  142DOPC   H3X16851   5.114   3.089  16.220 -2.9442 -2.7594  4.4324
  142DOPC   H3Y16852   5.079   3.261  16.202  0.0719 -0.5582 -2.0147
  142DOPC   C3416853   4.986   3.157  16.044 -0.6977  0.0859 -0.4381
  142DOPC   H4X16854   4.903   3.231  16.030 -1.1906  0.0807  1.9485
  142DOPC   H4Y16855   4.939   3.059  16.020 -1.5552  0.7826 -1.7404
  142DOPC   C3516856   5.096   3.178  15.937  0.4133 -0.6802  0.1452
  142DOPC   H5X16857   5.172   3.098  15.950 -0.9066 -2.0985 -0.6232
  142DOPC   H5Y16858   5.139   3.279  15.955  0.5963 -0.5192 -1.0811
  142DOPC   C3616859   5.037   3.162  15.788  0.2458 -0.5282  0.0595
  142DOPC   H6X16860   5.027   3.055  15.763 -0.2315 -0.3666 -0.4810
  142DOPC   H6Y16861   4.934   3.205  15.785  0.4873  0.0670  0.2202
  142DOPC   C3716862   5.125   3.240  15.694 -0.6720 -0.3613 -0.1872
  142DOPC   H7X16863   5.127   3.349  15.714 -1.5303  0.2528 -3.0806
  142DOPC   H7Y16864   5.230   3.207  15.707 -0.3889  0.4141 -0.4625
  142DOPC   C3816865   5.095   3.218  15.543  0.2627 -0.5618 -0.0977
  142DOPC   H8X16866   4.987   3.232  15.521 -0.1198 -2.1049  0.6990
  142DOPC   H8Y16867   5.122   3.113  15.521 -0.1102 -0.5436 -0.6671
  142DOPC   C3916868   5.181   3.303  15.457 -0.1780  0.0547 -0.1913
  142DOPC   H9X16869   5.284   3.314  15.495 -0.0102 -1.7398 -0.0418
  142DOPC  C31016870   5.137   3.394  15.365 -0.2558  0.1818  0.7780
  142DOPC  H10X16871   5.212   3.441  15.300 -0.6371 -1.1635 -0.7046
  142DOPC  C31116872   4.996   3.406  15.312 -0.8509  0.4605  0.4505
  142DOPC  H11X16873   4.953   3.484  15.379 -0.7803 -0.5674  1.7260
  142DOPC  H11Y16874   4.943   3.310  15.333  1.7059 -0.5178  3.0642
  142DOPC  C31216875   5.003   3.447  15.166 -0.2195 -0.5265 -0.1414
  142DOPC  H12X16876   5.062   3.539  15.146  1.3644 -1.8617 -1.8922
  142DOPC  H12Y16877   4.903   3.454  15.117 -0.1191 -1.7463 -0.5621
  142DOPC  C31316878   5.069   3.343  15.071  0.0712 -0.5889 -0.0883
  142DOPC  H13X16879   5.177   3.341  15.096  0.4986  1.2050 -1.6039
  142DOPC  H13Y16880   5.024   3.246  15.103 -0.5441 -0.9300 -1.8819
  142DOPC  C31416881   5.038   3.370  14.922 -0.3153  0.5701  0.3774
  142DOPC  H14X16882   4.933   3.401  14.906  0.2881  2.1484 -0.8006
  142DOPC  H14Y16883   5.097   3.459  14.890 -1.2429  1.4205  0.9782
  142DOPC  C31516884   5.077   3.250  14.828 -0.4690  0.0753 -0.0184
  142DOPC  H15X16885   5.049   3.267  14.722  2.5644  1.1174 -0.7629
  142DOPC  H15Y16886   5.012   3.166  14.860  0.5652 -0.0191  1.9908
  142DOPC  C31616887   5.229   3.217  14.843  0.2039  0.7302  0.3947
  142DOPC  H16X16888   5.290   3.308  14.823  1.0684  0.3324  1.1417
  142DOPC  H16Y16889   5.257   3.196  14.949  1.2924 -1.8402 -0.3162
  142DOPC  C31716890   5.280   3.100  14.760  0.0577  0.4844  0.4887
  142DOPC  H17X16891   5.213   3.012  14.770  0.4665  0.2125  0.8498
  142DOPC  H17Y16892   5.283   3.131  14.653  1.3533 -2.9570 -0.6102
  142DOPC  C31816893   5.427   3.056  14.790  0.3015 -0.1390  0.0473
  142DOPC  H18X16894   5.447   3.031  14.897 -0.1722  0.7566  0.3600
  142DOPC  H18Y16895   5.453   2.988  14.706 -0.2860  1.5209 -1.5454
  142DOPC  H18Z16896   5.495   3.142  14.770  0.8732 -0.0831  1.9899
  143DOPC     N16897   2.201   2.505  16.877  0.0527 -0.0000 -0.8772
  143DOPC   C1216898   2.316   2.439  16.810 -1.2019 -0.7308 -0.4764
  143DOPC  H12A16899   2.278   2.357  16.750 -2.6214  1.2655 -2.4487
  143DOPC  H12B16900   2.388   2.408  16.885 -0.8802  1.3513  0.1364
  143DOPC   C1316901   2.093   2.520  16.778 -0.0317  0.0140  0.0887
  143DOPC  H13A16902   2.044   2.427  16.753  0.3378 -0.4091  0.8884
  143DOPC  H13B16903   2.013   2.583  16.815 -0.2298  0.4306 -1.0363
  143DOPC  H13C16904   2.128   2.559  16.684 -1.3758  1.1018  0.0035
  143DOPC   C1416905   2.231   2.636  16.929  1.1399 -0.8187 -0.3994
  143DOPC  H14A16906   2.143   2.694  16.956  0.8794 -1.5066  0.2639
  143DOPC  H14B16907   2.294   2.629  17.017 -0.6803 -1.6480  0.9128
  143DOPC  H14C16908   2.290   2.696  16.861  0.2957  3.8455  2.4760
  143DOPC   C1516909   2.146   2.420  16.991 -0.0371  0.9663  0.1719
  143DOPC  H15A16910   2.231   2.370  17.036  0.2668  0.0786 -1.2983
  143DOPC  H15B16911   2.091   2.342  16.941  1.2374  0.8978 -1.2061
  143DOPC  H15C16912   2.092   2.481  17.062 -0.6907 -0.7281  1.1809
  143DOPC   C1116913   2.406   2.516  16.715  0.1096 -0.1017 -0.1586
  143DOPC  H11A16914   2.482   2.447  16.674 -1.1409 -1.5034 -0.1901
  143DOPC  H11B16915   2.342   2.539  16.627 -0.4100 -1.1254 -0.0616
  143DOPC     P16916   2.600   2.614  16.861  0.4336  0.0067  0.1972
  143DOPC   O1316917   2.593   2.505  16.962  0.2259  0.3127  0.0848
  143DOPC   O1416918   2.632   2.748  16.913 -0.3184 -0.1013  0.1101
  143DOPC   O1216919   2.467   2.631  16.776 -0.1587 -0.2241  0.4102
  143DOPC   O1116920   2.708   2.583  16.750 -0.2899 -0.0118 -0.4823
  143DOPC    C116921   2.757   2.686  16.664 -0.4811  0.8828 -0.2430
  143DOPC    HA16922   2.868   2.678  16.652 -0.5637  0.7280 -0.9826
  143DOPC    HB16923   2.741   2.788  16.704 -0.6658  0.6999  0.1504
  143DOPC    C216924   2.686   2.685  16.525  0.2386  0.9824  0.0651
  143DOPC    HS16925   2.581   2.712  16.550 -0.1400 -0.8732  0.6346
  143DOPC   O2116926   2.699   2.554  16.466 -0.1121  0.1752 -0.5020
  143DOPC   C2116927   2.598   2.517  16.390  0.0452 -0.0339 -0.0797
  143DOPC   O2216928   2.507   2.589  16.357  0.3237  0.7424  0.6324
  143DOPC   C2216929   2.636   2.373  16.336  0.7662  0.7341 -0.2239
  143DOPC   H2R16930   2.686   2.320  16.420 -0.5237 -3.5769 -1.9096
  143DOPC   H2S16931   2.713   2.386  16.257  1.6891 -2.0068  0.1368
  143DOPC    C316932   2.742   2.795  16.438 -0.1376  0.6225  0.7849
  143DOPC    HX16933   2.843   2.760  16.407  0.5597  3.0841  0.0258
  143DOPC    HY16934   2.756   2.894  16.488  0.6392  0.0957  1.6357
  143DOPC   O3116935   2.664   2.815  16.318 -0.1479 -0.0418  0.0947
  143DOPC   C3116936   2.551   2.883  16.337 -0.0677  0.1176 -0.9388
  143DOPC   O3216937   2.514   2.926  16.451  0.2860 -0.4064  0.8150
  143DOPC   C3216938   2.482   2.919  16.207  0.1290 -0.2267 -0.2986
  143DOPC   H2X16939   2.371   2.913  16.218  0.3949 -1.5762  2.1778
  143DOPC   H2Y16940   2.512   3.020  16.172 -2.1798  1.1103  1.2697
  143DOPC   C2316941   2.518   2.290  16.289 -0.2033 -0.4481 -0.0622
  143DOPC   H3R16942   2.487   2.331  16.190  1.6344  0.8254 -0.1712
  143DOPC   H3S16943   2.433   2.293  16.359  0.0094  0.6331  0.1730
  143DOPC   C2416944   2.557   2.139  16.282  0.8807  0.1331  0.8633
  143DOPC   H4R16945   2.591   2.099  16.380 -0.6748  0.5986  1.6182
  143DOPC   H4S16946   2.630   2.131  16.199 -2.0280 -1.7922 -1.7083
  143DOPC   C2516947   2.438   2.044  16.239 -0.8239 -0.7912 -0.1258
  143DOPC   H5R16948   2.347   2.080  16.292 -0.1665 -0.3466  0.7249
  143DOPC   H5S16949   2.472   1.943  16.271 -1.4004 -0.9876 -0.1336
  143DOPC   C2616950   2.418   2.050  16.088  0.0404 -0.5556 -1.0871
  143DOPC   H6R16951   2.518   2.039  16.040  1.6056  2.5700  1.0371
  143DOPC   H6S16952   2.379   2.151  16.061  1.2534  0.8074  1.7831
  143DOPC   C2716953   2.324   1.941  16.032  0.3925 -0.3323  0.4438
  143DOPC   H7R16954   2.221   1.948  16.074 -0.0908 -0.0858 -0.7403
  143DOPC   H7S16955   2.358   1.838  16.057 -2.0456 -2.1082 -2.6770
  143DOPC   C2816956   2.309   1.944  15.878 -0.5677 -0.0437  0.1664
  143DOPC   H8R16957   2.413   1.929  15.841 -0.3550 -1.0919  1.1372
  143DOPC   H8S16958   2.277   2.039  15.831  0.0573  0.2743  0.3637
  143DOPC   C2916959   2.214   1.841  15.815 -0.6081 -0.5694  0.0024
  143DOPC   H9R16960   2.107   1.862  15.833 -0.5340 -1.4641  1.6482
  143DOPC  C21016961   2.251   1.721  15.773  0.0551  0.4787 -0.1101
  143DOPC  H10R16962   2.175   1.656  15.730  0.1216 -0.7514  1.5129
  143DOPC  C21116963   2.388   1.652  15.766  0.6836 -0.2386  0.0376
  143DOPC  H11R16964   2.374   1.550  15.807 -0.1043  0.1686  0.8262
  143DOPC  H11S16965   2.451   1.700  15.845 -1.2929  0.8379  1.0500
  143DOPC  C21216966   2.460   1.632  15.635  1.0448  0.6223  0.8110
  143DOPC  H12R16967   2.405   1.554  15.579  0.4318  1.7459 -0.1957
  143DOPC  H12S16968   2.565   1.603  15.656  0.7062 -0.5743  0.9102
  143DOPC  C21316969   2.474   1.759  15.555  0.2287  0.1424 -0.1307
  143DOPC  H13R16970   2.529   1.723  15.465  1.2008  0.7518  0.1985
  143DOPC  H13S16971   2.541   1.837  15.598  2.4777 -0.4015 -2.4222
  143DOPC  C21416972   2.343   1.812  15.484 -0.0216 -0.4648 -0.1766
  143DOPC  H14R16973   2.293   1.871  15.564  0.9777  0.5520 -0.2731
  143DOPC  H14S16974   2.281   1.724  15.457  1.7412 -1.8110 -0.0210
  143DOPC  C21516975   2.356   1.919  15.375  0.3720  0.3622  0.3205
  143DOPC  H15R16976   2.415   1.883  15.287 -0.4404  1.3823 -0.6743
  143DOPC  H15S16977   2.422   1.997  15.420 -0.4178  0.0558  2.0916
  143DOPC  C21616978   2.217   1.966  15.330 -0.1302 -0.1043  0.3624
  143DOPC  H16R16979   2.153   1.973  15.420  0.7286 -0.5498  1.0218
  143DOPC  H16S16980   2.166   1.887  15.271 -2.0710  1.4301 -0.1060
  143DOPC  C21716981   2.209   2.089  15.235  0.1188  0.2587 -0.2032
  143DOPC  H17R16982   2.279   2.165  15.275 -0.6960  0.6473  0.5152
  143DOPC  H17S16983   2.110   2.138  15.243  0.4330  0.7398  0.9658
  143DOPC  C21816984   2.243   2.065  15.088  0.2790  0.1570 -0.3377
  143DOPC  H18R16985   2.167   2.011  15.028 -0.2199 -0.1266  0.5348
  143DOPC  H18S16986   2.338   2.008  15.083  0.1287 -0.0023 -1.6751
  143DOPC  H18T16987   2.266   2.160  15.036 -1.4595  0.7877 -0.0178
  143DOPC   C3316988   2.512   2.811  16.099  0.3734 -0.0739 -0.4159
  143DOPC   H3X16989   2.489   2.709  16.134  0.0356  0.1165 -0.0704
  143DOPC   H3Y16990   2.613   2.816  16.054  0.2570  2.9518 -0.5581
  143DOPC   C3416991   2.417   2.826  15.981  0.1001  0.0941 -0.1944
  143DOPC   H4X16992   2.434   2.924  15.932 -1.8108  0.0402 -1.0415
  143DOPC   H4Y16993   2.316   2.831  16.027  0.4688  1.1337  0.5340
  143DOPC   C3516994   2.428   2.720  15.874  0.6683  0.5646  0.3182
  143DOPC   H5X16995   2.483   2.635  15.919 -0.3864  0.1941  0.9175
  143DOPC   H5Y16996   2.491   2.761  15.792  0.5620  4.0617  1.8132
  143DOPC   C3616997   2.288   2.687  15.814 -0.1676  0.1570 -0.1278
  143DOPC   H6X16998   2.285   2.578  15.795  0.6902  0.2786 -1.0405
  143DOPC   H6Y16999   2.203   2.710  15.882  1.3780 -1.5372  2.5648
  143DOPC   C3717000   2.271   2.753  15.677 -0.2314  0.2339  0.2248
  143DOPC   H7X17001   2.255   2.862  15.688  0.7941  0.5593 -1.2583
  143DOPC   H7Y17002   2.367   2.739  15.624 -0.1639  0.6648  0.2293
  143DOPC   C3817003   2.144   2.694  15.601  0.0533 -0.2394 -0.3757
  143DOPC   H8X17004   2.062   2.682  15.675  0.1388  0.9708 -0.0739
  143DOPC   H8Y17005   2.170   2.591  15.567  1.0507 -0.1597  0.1029
  143DOPC   C3917006   2.107   2.773  15.475  0.3498 -0.4889 -0.4257
  143DOPC   H9X17007   2.057   2.869  15.496  0.8321 -0.5282  1.0446
  143DOPC  C31017008   2.118   2.730  15.349  0.0449  0.3876 -0.7371
  143DOPC  H10X17009   2.068   2.786  15.269 -0.3190 -1.8626 -2.1444
  143DOPC  C31117010   2.181   2.605  15.307  0.5531  0.2299 -0.1516
  143DOPC  H11X17011   2.266   2.583  15.376 -0.6881 -1.9834  0.7582
  143DOPC  H11Y17012   2.229   2.625  15.208  1.0922  0.5735  0.1751
  143DOPC  C31217013   2.091   2.477  15.284  0.1418  0.4637 -0.0058
  143DOPC  H12X17014   2.054   2.443  15.383  0.3176 -1.1488 -0.4767
  143DOPC  H12Y17015   2.160   2.396  15.253  1.5198  2.5697 -2.9275
  143DOPC  C31317016   1.973   2.491  15.197 -0.1727  1.0618  0.8892
  143DOPC  H13X17017   1.919   2.394  15.208 -1.3499  1.5267 -0.4837
  143DOPC  H13Y17018   1.912   2.579  15.230 -1.0517  0.6029  0.5260
  143DOPC  C31417019   2.012   2.514  15.050  0.7105 -0.8536  0.0401
  143DOPC  H14X17020   1.915   2.512  14.995  0.5795 -3.5224  0.2612
  143DOPC  H14Y17021   2.059   2.613  15.034  0.0385 -0.2522  1.5927
  143DOPC  C31517022   2.100   2.401  14.993 -0.7236  0.0303 -0.2649
  143DOPC  H15X17023   2.062   2.300  15.018 -3.6989  0.7967 -1.3027
  143DOPC  H15Y17024   2.195   2.428  15.043 -1.3130  2.3604 -0.2976
  143DOPC  C31617025   2.117   2.401  14.845  0.5024 -0.2345  0.4032
  143DOPC  H16X17026   2.025   2.384  14.785 -0.7593 -1.0654  2.4699
  143DOPC  H16Y17027   2.156   2.500  14.812  1.7581  0.0764  2.6319
  143DOPC  C31717028   2.228   2.300  14.804 -1.1515  0.2402  0.0168
  143DOPC  H17X17029   2.325   2.322  14.853 -1.6902  0.7240  0.9033
  143DOPC  H17Y17030   2.205   2.205  14.856 -0.8174 -0.1046 -0.4677
  143DOPC  C31817031   2.240   2.278  14.661 -0.3459 -0.1382  0.4245
  143DOPC  H18X17032   2.297   2.185  14.637 -2.1075 -0.9523 -0.7889
  143DOPC  H18Y17033   2.140   2.271  14.613 -0.0454  1.0151 -0.4321
  143DOPC  H18Z17034   2.291   2.363  14.609 -1.5939  0.7619  0.6474
  144DOPC     N17035   3.353   2.212  17.464  0.4526  0.6293 -0.4006
  144DOPC   C1217036   3.407   2.217  17.322 -0.0341  0.6796 -0.1732
  144DOPC  H12A17037   3.510   2.248  17.330 -0.0141  0.2606  1.6856
  144DOPC  H12B17038   3.353   2.281  17.255  1.0102  1.1710 -0.5621
  144DOPC   C1317039   3.209   2.193  17.448 -0.0315 -0.1281  0.1005
  144DOPC  H13A17040   3.170   2.254  17.368 -0.8069  3.4586  2.9454
  144DOPC  H13B17041   3.179   2.092  17.425 -0.3188  0.2913 -1.4321
  144DOPC  H13C17042   3.158   2.218  17.540 -1.2283  1.6948 -0.9992
  144DOPC   C1417043   3.371   2.340  17.533 -0.3308 -0.0182 -0.1595
  144DOPC  H14A17044   3.350   2.349  17.639 -0.3704  1.8551 -0.3078
  144DOPC  H14B17045   3.476   2.363  17.520  0.4542 -3.3235 -0.8088
  144DOPC  H14C17046   3.313   2.418  17.487  0.6663  0.0340 -1.3569
  144DOPC   C1517047   3.408   2.105  17.541  0.0744  0.5255  0.0433
  144DOPC  H15A17048   3.500   2.134  17.588 -0.5445  2.3864  0.1834
  144DOPC  H15B17049   3.417   2.019  17.475 -1.3258 -0.3186  0.8959
  144DOPC  H15C17050   3.335   2.075  17.615  1.7056 -0.6065  1.2469
  144DOPC   C1117051   3.394   2.091  17.237  0.4936  0.9474  0.7914
  144DOPC  H11A17052   3.289   2.057  17.250  0.7311 -0.6108 -0.9457
  144DOPC  H11B17053   3.402   2.111  17.128 -2.6871 -0.6954  0.1582
  144DOPC     P17054   3.625   1.989  17.247  0.5336  0.0065  0.3523
  144DOPC   O1317055   3.680   1.872  17.317 -0.2463 -0.6155  0.0646
  144DOPC   O1417056   3.680   2.124  17.280 -0.0926 -0.2555 -0.1195
  144DOPC   O1217057   3.469   1.979  17.275 -0.1702 -0.1338 -0.0843
  144DOPC   O1117058   3.627   1.962  17.097 -0.2829 -0.2845 -0.3110
  144DOPC    C117059   3.550   1.867  17.023  0.1950 -0.2596 -0.3698
  144DOPC    HA17060   3.442   1.871  17.049  0.5382  2.6090  1.0474
  144DOPC    HB17061   3.579   1.763  17.048 -0.0667  0.2891  2.5344
  144DOPC    C217062   3.554   1.888  16.869  0.0905 -1.0000  0.2182
  144DOPC    HS17063   3.495   1.811  16.814 -2.6207  0.8270  0.4285
  144DOPC   O2117064   3.695   1.888  16.829 -0.2456  0.4338  0.4872
  144DOPC   C2117065   3.743   1.761  16.815 -0.8915 -0.3065 -0.2615
  144DOPC   O2217066   3.694   1.658  16.852 -0.1037 -0.0014 -0.0564
  144DOPC   C2217067   3.894   1.785  16.766  0.3503 -0.4181  0.8222
  144DOPC   H2R17068   3.952   1.728  16.841 -0.7917 -2.7165  0.0638
  144DOPC   H2S17069   3.902   1.896  16.768 -2.3328 -0.1375  0.3278
  144DOPC    C317070   3.497   2.026  16.833  0.3693  0.0082  0.0932
  144DOPC    HX17071   3.536   2.104  16.902 -0.2850 -0.6542  1.2450
  144DOPC    HY17072   3.388   2.034  16.856  0.9168  3.0447  2.1686
  144DOPC   O3117073   3.517   2.061  16.694 -0.7034  0.3912  0.0547
  144DOPC   C3117074   3.598   2.157  16.662  0.4449  0.9742 -0.6110
  144DOPC   O3217075   3.650   2.231  16.743  0.5610  0.0476 -0.5394
  144DOPC   C3217076   3.596   2.154  16.507 -0.0707 -0.0766  0.1796
  144DOPC   H2X17077   3.704   2.160  16.483 -0.4139  0.6344 -1.3104
  144DOPC   H2Y17078   3.551   2.059  16.471 -2.1984 -0.4678  3.4216
  144DOPC   C2317079   3.928   1.742  16.624  0.7896  0.3899 -0.8051
  144DOPC   H3R17080   3.937   1.632  16.615  0.3297  0.4278 -1.7406
  144DOPC   H3S17081   4.033   1.778  16.611  1.2810 -0.7189 -0.0730
  144DOPC   C2417082   3.832   1.795  16.514  0.0743 -1.0866  0.4569
  144DOPC   H4R17083   3.810   1.899  16.548  2.7364 -0.1940 -0.2487
  144DOPC   H4S17084   3.741   1.734  16.530 -0.5122 -0.0179  1.3820
  144DOPC   C2517085   3.881   1.796  16.365  0.0471 -0.3672  0.8031
  144DOPC   H5R17086   3.920   1.697  16.334  2.8008  1.5992 -2.7916
  144DOPC   H5S17087   3.968   1.864  16.358 -0.6027  1.1485  4.7882
  144DOPC   C2617088   3.771   1.846  16.269  0.7501  0.2967 -0.8632
  144DOPC   H6R17089   3.761   1.956  16.279  0.9917  0.3271 -0.9399
  144DOPC   H6S17090   3.670   1.806  16.291  0.5630  0.6262 -1.1111
  144DOPC   C2717091   3.800   1.797  16.123  0.5129  0.5735  0.2804
  144DOPC   H7R17092   3.715   1.827  16.058 -1.2045  0.2443  2.2581
  144DOPC   H7S17093   3.796   1.687  16.134 -0.6796  0.6497  0.7745
  144DOPC   C2817094   3.937   1.848  16.069  0.3244  0.4059  0.4147
  144DOPC   H8R17095   4.018   1.808  16.134 -1.0393 -0.9199  1.3660
  144DOPC   H8S17096   3.934   1.958  16.086  2.2323  0.2547  2.0540
  144DOPC   C2917097   3.963   1.808  15.926 -0.2784  0.0904  0.0006
  144DOPC   H9R17098   3.931   1.707  15.894  0.5177 -0.3675  0.6260
  144DOPC  C21017099   4.004   1.890  15.826  0.7210 -0.1106  0.1934
  144DOPC  H10R17100   4.020   1.848  15.725  0.4207 -0.8957  0.4695
  144DOPC  C21117101   4.045   2.031  15.843 -0.4071 -0.2635  0.0729
  144DOPC  H11R17102   4.125   2.040  15.919 -0.6278  0.5369  0.2181
  144DOPC  H11S17103   3.967   2.095  15.889  1.8125  1.9196  1.0107
  144DOPC  C21217104   4.113   2.100  15.723  0.2149  0.0251  0.0445
  144DOPC  H12R17105   4.104   2.211  15.725 -0.4108  0.0572 -1.8582
  144DOPC  H12S17106   4.051   2.069  15.636  1.1340 -1.3613 -0.1418
  144DOPC  C21317107   4.258   2.055  15.703  0.5684  0.0389  0.1577
  144DOPC  H13R17108   4.261   1.944  15.705  3.7877  0.0547  0.5649
  144DOPC  H13S17109   4.304   2.090  15.798  0.6107  0.0689  0.1256
  144DOPC  C21417110   4.310   2.126  15.572 -0.1989  0.3922 -0.1282
  144DOPC  H14R17111   4.421   2.123  15.567 -0.2561  0.2697 -2.1777
  144DOPC  H14S17112   4.291   2.235  15.566  0.1602  0.5511  1.2539
  144DOPC  C21517113   4.266   2.043  15.452 -0.0071 -0.5612  0.2575
  144DOPC  H15R17114   4.157   2.055  15.440  0.1175  1.0631  0.5546
  144DOPC  H15S17115   4.284   1.934  15.459  1.6840 -0.2911  0.6137
  144DOPC  C21617116   4.351   2.096  15.332 -0.2032  0.1468 -0.2039
  144DOPC  H16R17117   4.459   2.081  15.352 -0.5278 -0.4849  1.1850
  144DOPC  H16S17118   4.345   2.207  15.327  3.9807  0.5494  0.3315
  144DOPC  C21717119   4.320   2.025  15.204 -0.4914  0.1870  0.7504
  144DOPC  H17R17120   4.338   1.916  15.214  1.8215  0.5345  0.9132
  144DOPC  H17S17121   4.388   2.050  15.120 -1.9777 -1.0488 -0.9021
  144DOPC  C21817122   4.183   2.055  15.150  0.4970  1.0179  0.2922
  144DOPC  H18R17123   4.117   1.982  15.202 -0.3515  1.5827  0.0286
  144DOPC  H18S17124   4.181   2.047  15.039  0.2170  3.9769  0.0071
  144DOPC  H18T17125   4.158   2.162  15.161  1.4157  1.4166 -1.2785
  144DOPC   C3317126   3.537   2.286  16.451  0.0784 -0.3519 -0.4321
  144DOPC   H3X17127   3.561   2.302  16.344 -3.1811  2.0128 -0.9567
  144DOPC   H3Y17128   3.595   2.368  16.498 -2.7161  2.2284 -1.1995
  144DOPC   C3417129   3.386   2.305  16.462  0.1953 -0.2505 -0.2041
  144DOPC   H4X17130   3.378   2.350  16.563  1.5505 -1.3102  0.4011
  144DOPC   H4Y17131   3.348   2.200  16.467 -1.5376  0.3568  0.0085
  144DOPC   C3517132   3.327   2.392  16.349  0.0090 -0.1641 -0.5435
  144DOPC   H5X17133   3.334   2.338  16.252  0.8711  1.4611 -1.4256
  144DOPC   H5Y17134   3.380   2.489  16.342 -0.6934  0.2318 -0.4232
  144DOPC   C3617135   3.179   2.424  16.372  0.0037  0.1740  0.7982
  144DOPC   H6X17136   3.121   2.329  16.367  1.0899 -0.4766  0.1321
  144DOPC   H6Y17137   3.172   2.461  16.477 -1.6840  0.6827  0.5317
  144DOPC   C3717138   3.119   2.534  16.278  0.1075  0.1644 -0.1771
  144DOPC   H7X17139   3.154   2.628  16.325  2.8478  0.1624 -2.0014
  144DOPC   H7Y17140   3.155   2.513  16.175 -1.1568 -2.0187 -0.2424
  144DOPC   C3817141   2.963   2.522  16.276  0.1239 -0.2136 -0.6858
  144DOPC   H8X17142   2.930   2.549  16.378 -0.5927 -0.6832 -0.7889
  144DOPC   H8Y17143   2.943   2.412  16.273  2.1430 -0.6810  0.8740
  144DOPC   C3917144   2.896   2.595  16.164  0.5233  0.0556 -0.3975
  144DOPC   H9X17145   2.832   2.678  16.198  0.9166  0.0016  0.5087
  144DOPC  C31017146   2.892   2.559  16.040  0.5003 -0.2223  0.0674
  144DOPC  H10X17147   2.814   2.606  15.978  1.3488 -0.2279 -1.0470
  144DOPC  C31117148   2.958   2.430  15.979  0.7806  0.9171 -0.3580
  144DOPC  H11X17149   2.878   2.367  15.934  0.5660  2.2632 -1.9547
  144DOPC  H11Y17150   3.002   2.377  16.066  0.3668  1.1620 -0.0008
  144DOPC  C31217151   3.050   2.452  15.859 -0.5108 -0.0454  0.4497
  144DOPC  H12X17152   3.112   2.363  15.838  1.9692  1.3932  1.2335
  144DOPC  H12Y17153   3.113   2.544  15.866 -0.5208 -0.0055  0.0179
  144DOPC  C31317154   2.967   2.474  15.729 -0.5695  0.2717 -0.5056
  144DOPC  H13X17155   2.901   2.384  15.736  1.0600 -0.8968  0.6368
  144DOPC  H13Y17156   2.915   2.571  15.718 -1.5663 -0.1805  0.0668
  144DOPC  C31417157   3.059   2.456  15.606  1.0068  0.0110  0.4086
  144DOPC  H14X17158   3.101   2.556  15.580 -1.5865  0.4881 -2.5707
  144DOPC  H14Y17159   3.141   2.386  15.633  0.5353 -1.0750 -0.8601
  144DOPC  C31517160   2.987   2.397  15.476 -0.4113 -0.1289  0.2177
  144DOPC  H15X17161   2.897   2.457  15.450 -0.4517 -0.1269  0.3599
  144DOPC  H15Y17162   2.955   2.293  15.499 -0.3723 -0.3972 -0.8852
  144DOPC  C31617163   3.083   2.391  15.353  0.4899 -0.1940  0.0016
  144DOPC  H16X17164   3.030   2.371  15.258  1.9678 -0.0098 -0.8860
  144DOPC  H16Y17165   3.135   2.489  15.339  2.1112 -0.8981  0.8414
  144DOPC  C31717166   3.195   2.288  15.361  0.3883  0.0896 -0.7204
  144DOPC  H17X17167   3.265   2.305  15.446  0.3234 -0.6660 -0.5105
  144DOPC  H17Y17168   3.147   2.189  15.376  0.4555 -0.0074 -1.1302
  144DOPC  C31817169   3.272   2.289  15.231 -0.3731 -0.8516  0.0963
  144DOPC  H18X17170   3.311   2.390  15.206 -0.4317 -0.6618  0.7388
  144DOPC  H18Y17171   3.355   2.215  15.241 -0.9000 -1.6265 -1.1174
  144DOPC  H18Z17172   3.200   2.266  15.150  0.6837  1.1131 -1.5018
  145DOPC     N17173   4.175   5.604  16.880 -0.0272  0.2682 -0.5208
  145DOPC   C1217174   4.171   5.553  16.737  0.9840  0.8259  0.3732
  145DOPC  H12A17175   4.253   5.593  16.680  0.9129  0.5526  0.0759
  145DOPC  H12B17176   4.080   5.582  16.687 -0.3656 -1.7330  1.1689
  145DOPC   C1317177   4.166   5.757  16.875  0.8907 -0.3319  0.5578
  145DOPC  H13A17178   4.079   5.782  16.816  1.1117  1.2030  0.8543
  145DOPC  H13B17179   4.148   5.806  16.970  2.0689  1.4679 -0.1054
  145DOPC  H13C17180   4.252   5.799  16.827 -0.1001  0.0694 -0.9389
  145DOPC   C1417181   4.309   5.573  16.943 -0.1069 -0.0201 -0.1766
  145DOPC  H14A17182   4.389   5.614  16.882 -1.4447 -0.0529 -2.0269
  145DOPC  H14B17183   4.316   5.608  17.045 -1.8913 -1.4687  0.4839
  145DOPC  H14C17184   4.334   5.471  16.968  0.2475 -0.2427 -1.3697
  145DOPC   C1517185   4.071   5.543  16.970 -1.1641 -0.4950  0.1697
  145DOPC  H15A17186   3.977   5.582  16.935 -0.0505  0.7549 -1.6310
  145DOPC  H15B17187   4.098   5.569  17.071  1.8179  1.5900 -1.0118
  145DOPC  H15C17188   4.068   5.435  16.959  2.4504 -0.8312  1.2525
  145DOPC   C1117189   4.192   5.401  16.728 -0.3982  0.2927 -0.3508
  145DOPC  H11A17190   4.202   5.371  16.622 -0.4989 -0.6663 -0.0931
  145DOPC  H11B17191   4.287   5.371  16.777 -1.5695 -3.6483 -0.1362
  145DOPC     P17192   4.066   5.180  16.806  0.6347  0.2968  0.0887
  145DOPC   O1317193   3.934   5.155  16.879 -0.1627 -0.0261  0.0434
  145DOPC   O1417194   4.186   5.138  16.874  0.1318 -0.5169 -0.1098
  145DOPC   O1217195   4.079   5.331  16.783  0.0250 -0.2903  0.1142
  145DOPC   O1117196   4.069   5.115  16.661  0.0141 -0.3387  0.0822
  145DOPC    C117197   3.961   5.163  16.565  0.4350 -0.4771  0.0592
  145DOPC    HA17198   3.932   5.267  16.588  0.4883  0.1804 -2.5133
  145DOPC    HB17199   3.872   5.097  16.576  1.9554 -2.4687  1.1415
  145DOPC    C217200   4.011   5.166  16.417 -0.1149 -0.3326  0.2289
  145DOPC    HS17201   3.923   5.182  16.350  1.0427 -1.6613 -1.7274
  145DOPC   O2117202   4.077   5.039  16.370  0.5051 -0.4533 -0.2803
  145DOPC   C2117203   4.020   4.967  16.276 -0.8114 -0.2754 -0.6163
  145DOPC   O2217204   3.910   4.980  16.230 -0.1216 -0.1730 -0.2255
  145DOPC   C2217205   4.117   4.859  16.238  0.9799  0.6378  0.4762
  145DOPC   H2R17206   4.102   4.776  16.310  0.4933  2.5788  2.7691
  145DOPC   H2S17207   4.220   4.900  16.244  1.2416  0.0090  0.3058
  145DOPC    C317208   4.111   5.274  16.393  0.5507  0.0966  1.2106
  145DOPC    HX17209   4.209   5.252  16.440  0.7014  1.1318  1.4151
  145DOPC    HY17210   4.079   5.370  16.440  0.4962  0.5549  0.2584
  145DOPC   O3117211   4.127   5.303  16.251 -0.3261  0.1831 -0.2761
  145DOPC   C3117212   4.219   5.234  16.191 -0.3554 -0.5593  0.1217
  145DOPC   O3217213   4.287   5.144  16.242  0.1828  0.1276  0.1118
  145DOPC   C3217214   4.246   5.303  16.062 -0.0511 -0.7087  0.3581
  145DOPC   H2X17215   4.214   5.409  16.073 -0.9760 -1.0872  1.4585
  145DOPC   H2Y17216   4.357   5.300  16.052 -0.0723 -0.3775  0.0069
  145DOPC   C2317217   4.097   4.823  16.080 -0.1052  0.8024 -0.7297
  145DOPC   H3R17218   4.142   4.907  16.024  2.1149  1.0247  1.2258
  145DOPC   H3S17219   3.990   4.807  16.054 -0.1768 -2.1650  0.9757
  145DOPC   C2417220   4.170   4.690  16.044  0.1757 -0.4299 -0.3060
  145DOPC   H4R17221   4.104   4.612  16.088  2.1902 -1.3148  1.3205
  145DOPC   H4S17222   4.267   4.688  16.098  0.4159  2.4258 -0.4764
  145DOPC   C2517223   4.198   4.678  15.893 -0.3675  0.6420  0.2293
  145DOPC   H5R17224   4.257   4.585  15.881  1.0963  1.2701  1.9387
  145DOPC   H5S17225   4.261   4.762  15.857  0.3020 -0.1619 -0.5095
  145DOPC   C2617226   4.076   4.651  15.805  0.0256  0.7199 -0.4266
  145DOPC   H6R17227   3.999   4.726  15.834  0.4350  0.4099  1.6152
  145DOPC   H6S17228   4.033   4.553  15.834 -1.3249  1.1331 -0.9659
  145DOPC   C2717229   4.098   4.651  15.652 -0.3720 -0.0767  0.2876
  145DOPC   H7R17230   3.999   4.640  15.605  0.7283 -0.1705 -2.1648
  145DOPC   H7S17231   4.163   4.565  15.624  1.4948  1.7541 -1.4016
  145DOPC   C2817232   4.187   4.765  15.613  0.3446  0.3121 -0.1959
  145DOPC   H8R17233   4.206   4.758  15.504 -1.7377  0.8008 -0.6323
  145DOPC   H8S17234   4.286   4.774  15.664 -0.4987 -1.1433  1.8325
  145DOPC   C2917235   4.109   4.897  15.619 -0.0919 -0.1231  0.1253
  145DOPC   H9R17236   4.096   4.926  15.725  0.7146  0.3362  0.1074
  145DOPC  C21017237   4.039   4.966  15.523 -0.3404  0.0594  0.3042
  145DOPC  H10R17238   4.006   5.063  15.562  0.4478  0.2028  0.6467
  145DOPC  C21117239   4.015   4.940  15.375 -0.1019 -0.3440 -0.6193
  145DOPC  H11R17240   3.905   4.955  15.366 -0.4229 -1.8257  0.4218
  145DOPC  H11S17241   4.041   4.840  15.335  1.5606 -0.0948 -0.2513
  145DOPC  C21217242   4.081   5.046  15.277 -0.3524  0.0076 -0.5972
  145DOPC  H12R17243   4.018   5.137  15.288 -0.1036 -0.0872  2.5973
  145DOPC  H12S17244   4.074   5.014  15.171  1.9452 -0.9827 -0.4974
  145DOPC  C21317245   4.229   5.092  15.310  0.2358  0.2358 -0.1581
  145DOPC  H13R17246   4.236   5.134  15.413 -2.2664  0.4730 -0.0358
  145DOPC  H13S17247   4.247   5.178  15.241 -1.1945  0.7503  0.0959
  145DOPC  C21417248   4.329   4.984  15.278 -0.3918 -0.3315  0.8036
  145DOPC  H14R17249   4.338   4.975  15.168  0.6217 -1.3245  0.9444
  145DOPC  H14S17250   4.301   4.881  15.312  2.5823 -0.6931  2.5557
  145DOPC  C21517251   4.468   5.020  15.335 -0.3769 -0.3278  0.2242
  145DOPC  H15R17252   4.501   5.118  15.294 -1.6623  1.2385  2.7223
  145DOPC  H15S17253   4.545   4.944  15.311  1.2406  1.5468 -0.8614
  145DOPC  C21617254   4.475   5.028  15.488  0.1923  0.2350  0.2218
  145DOPC  H16R17255   4.441   4.925  15.513  1.7382 -1.4200 -3.6705
  145DOPC  H16S17256   4.409   5.104  15.534  0.6408 -0.7000  2.5276
  145DOPC  C21717257   4.617   5.047  15.551  0.4605  0.4872 -0.2541
  145DOPC  H17R17258   4.668   5.134  15.505  3.5571 -0.4898  1.0417
  145DOPC  H17S17259   4.689   4.969  15.516 -0.0068 -0.2129  0.2968
  145DOPC  C21817260   4.617   5.063  15.702  0.0628 -0.3725 -0.3858
  145DOPC  H18R17261   4.576   4.979  15.761  2.0739 -0.2781  1.2400
  145DOPC  H18S17262   4.570   5.163  15.718  3.4748  1.4267 -0.6129
  145DOPC  H18T17263   4.719   5.061  15.745 -0.6337  0.3402  1.3927
  145DOPC   C3317264   4.173   5.236  15.946  0.4356 -0.0131 -0.4604
  145DOPC   H3X17265   4.066   5.259  15.966  0.8728  1.4890  0.2881
  145DOPC   H3Y17266   4.190   5.127  15.958 -0.1676  0.2225  4.2944
  145DOPC   C3417267   4.220   5.286  15.803  0.0069 -0.2184  0.4412
  145DOPC   H4X17268   4.168   5.220  15.731 -1.0891  1.9532 -0.8741
  145DOPC   H4Y17269   4.330   5.280  15.789 -0.2202 -0.0284 -1.7605
  145DOPC   C3517270   4.183   5.433  15.766  0.2288  0.2333  0.2887
  145DOPC   H5X17271   4.225   5.509  15.835  1.1642  0.8808 -0.9429
  145DOPC   H5Y17272   4.072   5.435  15.767  0.1253 -0.5367 -2.2142
  145DOPC   C3617273   4.218   5.462  15.618 -0.4362  0.2777  0.1711
  145DOPC   H6X17274   4.204   5.379  15.546  0.9359 -0.6148  0.8893
  145DOPC   H6Y17275   4.149   5.543  15.587 -0.8907 -0.4185 -0.6666
  145DOPC   C3717276   4.354   5.519  15.606 -0.7657 -0.1103  0.3103
  145DOPC   H7X17277   4.342   5.615  15.660  3.3708  1.5458 -1.2486
  145DOPC   H7Y17278   4.440   5.461  15.647 -0.2628  0.2574 -0.2001
  145DOPC   C3817279   4.404   5.555  15.463  1.0044 -0.1584 -1.1244
  145DOPC   H8X17280   4.489   5.626  15.462 -0.7800  2.0857 -2.2812
  145DOPC   H8Y17281   4.320   5.613  15.420 -3.0784 -2.8411  2.4301
  145DOPC   C3917282   4.440   5.434  15.378 -0.9056  0.3076  0.8143
  145DOPC   H9X17283   4.488   5.345  15.422 -0.2606 -0.9169 -2.1372
  145DOPC  C31017284   4.399   5.426  15.249 -0.4897 -0.3175 -0.0942
  145DOPC  H10X17285   4.423   5.335  15.192  2.2062  0.2827 -0.0466
  145DOPC  C31117286   4.339   5.543  15.171 -0.2945 -0.4892  0.4975
  145DOPC  H11X17287   4.385   5.548  15.069 -0.6282  0.9744  0.4043
  145DOPC  H11Y17288   4.366   5.644  15.208 -0.3072  0.0663 -0.9337
  145DOPC  C31217289   4.183   5.520  15.155 -0.7314  0.2893 -0.1705
  145DOPC  H12X17290   4.145   5.479  15.251 -1.7187  0.4571 -0.4801
  145DOPC  H12Y17291   4.168   5.445  15.075 -0.0272  0.1526 -0.1875
  145DOPC  C31317292   4.098   5.638  15.114  0.0553 -0.1736  0.5640
  145DOPC  H13X17293   4.143   5.688  15.026 -1.4718 -2.5332 -1.7179
  145DOPC  H13Y17294   4.000   5.603  15.074 -1.8792  2.8424  2.3311
  145DOPC  C31417295   4.079   5.748  15.225 -0.4166  0.4069 -0.3119
  145DOPC  H14X17296   4.023   5.716  15.315  0.5849  1.6080  0.7769
  145DOPC  H14Y17297   4.185   5.776  15.244 -0.3943 -0.1555  0.4430
  145DOPC  C31517298   4.010   5.871  15.174  0.4124  0.4322 -0.2320
  145DOPC  H15X17299   3.912   5.843  15.129  0.0203 -2.4056  2.0904
  145DOPC  H15Y17300   4.080   5.918  15.102  0.7521  1.7054  0.8727
  145DOPC  C31617301   3.986   5.985  15.285  0.4500 -0.4399 -0.5245
  145DOPC  H16X17302   3.944   5.928  15.370  1.8365  0.7461  1.0077
  145DOPC  H16Y17303   4.082   6.032  15.314 -0.4107 -0.4453  2.7042
  145DOPC  C31717304   3.886   6.094  15.230 -0.3734  0.2719 -0.3604
  145DOPC  H17X17305   3.947   6.148  15.154  0.1254 -1.4009 -1.2059
  145DOPC  H17Y17306   3.799   6.041  15.186  0.7944 -2.7401  0.6679
  145DOPC  C31817307   3.840   6.198  15.340  0.1560 -0.3104 -0.7291
  145DOPC  H18X17308   3.778   6.271  15.283  0.3760 -2.5603 -4.1282
  145DOPC  H18Y17309   3.775   6.143  15.411 -0.3044 -1.6811 -2.1449
  145DOPC  H18Z17310   3.932   6.236  15.387 -0.5357  0.1630  0.2679
  146DOPC     N17311   6.118   2.224  17.774  0.0035 -0.3336  0.6261
  146DOPC   C1217312   6.127   2.305  17.648 -0.9382  0.2897 -0.1460
  146DOPC  H12A17313   6.232   2.326  17.634 -1.2036  0.3920 -2.3347
  146DOPC  H12B17314   6.061   2.390  17.657 -0.6512  0.7729 -2.2240
  146DOPC   C1317315   6.163   2.303  17.894 -0.0203  0.2582  0.2893
  146DOPC  H13A17316   6.087   2.376  17.920  0.7702  1.3974 -0.5206
  146DOPC  H13B17317   6.185   2.241  17.980 -0.0501 -2.2373 -1.3932
  146DOPC  H13C17318   6.259   2.349  17.877  1.3374 -2.4958 -0.0428
  146DOPC   C1417319   6.216   2.112  17.769 -0.2660  0.0826  0.0652
  146DOPC  H14A17320   6.201   2.062  17.674 -0.4309  1.8792 -0.8987
  146DOPC  H14B17321   6.317   2.149  17.762 -0.4524  0.4204 -0.9315
  146DOPC  H14C17322   6.200   2.047  17.855 -0.1891 -1.1581 -0.8236
  146DOPC   C1517323   5.989   2.161  17.812 -0.0113 -0.1032  0.0045
  146DOPC  H15A17324   5.995   2.091  17.894 -0.6457 -0.7615 -0.5090
  146DOPC  H15B17325   5.936   2.119  17.728 -1.7204  2.7624 -0.4854
  146DOPC  H15C17326   5.918   2.235  17.845  0.8878  1.0225 -0.4880
  146DOPC   C1117327   6.091   2.235  17.518  0.5287 -0.5999  0.1116
  146DOPC  H11A17328   5.990   2.189  17.519  0.2500 -0.0872 -1.6410
  146DOPC  H11B17329   6.071   2.310  17.439  3.1418 -1.0230 -1.0652
  146DOPC     P17330   6.306   2.179  17.383  0.2444 -0.2831  0.3596
  146DOPC   O1317331   6.384   2.053  17.377 -0.0055  0.7030  0.0644
  146DOPC   O1417332   6.379   2.291  17.436  0.3006 -0.0500  0.0026
  146DOPC   O1217333   6.184   2.141  17.481 -0.1277  0.0224  0.1371
  146DOPC   O1117334   6.224   2.216  17.255  0.0198 -0.4628 -0.2002
  146DOPC    C117335   6.149   2.102  17.203 -0.0646 -0.2320  0.0175
  146DOPC    HA17336   6.079   2.060  17.278 -0.0598  0.6163  0.5038
  146DOPC    HB17337   6.224   2.030  17.162  0.5650  0.8002 -0.6817
  146DOPC    C217338   6.064   2.150  17.081  0.1255 -0.8143  0.1866
  146DOPC    HS17339   6.011   2.065  17.033  1.8819 -1.5728 -0.5216
  146DOPC   O2117340   6.151   2.208  16.984 -0.4565  0.4129  0.1517
  146DOPC   C2117341   6.224   2.124  16.906  0.5478 -0.1948 -0.1044
  146DOPC   O2217342   6.223   2.002  16.908  0.5685  0.3422  0.0293
  146DOPC   C2217343   6.294   2.207  16.808  0.7235 -0.2811  0.2914
  146DOPC   H2R17344   6.341   2.141  16.733  4.5032  2.0788  0.3501
  146DOPC   H2S17345   6.374   2.271  16.851  0.9191 -0.9616  0.9532
  146DOPC    C317346   5.943   2.247  17.119  0.8544 -0.1614 -0.0799
  146DOPC    HX17347   5.978   2.343  17.162  0.2816  1.6163 -3.2385
  146DOPC    HY17348   5.882   2.200  17.198  1.3590 -0.2992  0.2297
  146DOPC   O3117349   5.851   2.267  17.014  0.2004 -0.1211 -0.1853
  146DOPC   C3117350   5.883   2.353  16.925 -0.3424 -0.7542  0.1930
  146DOPC   O3217351   5.967   2.438  16.937 -0.9710 -0.7007  0.1115
  146DOPC   C3217352   5.793   2.347  16.800  0.3730 -0.2321  0.2801
  146DOPC   H2X17353   5.806   2.249  16.749 -2.3288 -0.2087 -0.6214
  146DOPC   H2Y17354   5.690   2.359  16.839  0.7330  0.9501  0.9101
  146DOPC   C2317355   6.191   2.283  16.724  0.3845 -0.3889  0.6007
  146DOPC   H3R17356   6.148   2.360  16.792  2.4731  1.3755  0.0325
  146DOPC   H3S17357   6.103   2.228  16.684 -1.0851  0.2458  2.7932
  146DOPC   C2417358   6.260   2.351  16.607  0.2847 -0.4856  0.0288
  146DOPC   H4R17359   6.335   2.286  16.557 -0.9802 -0.5424 -1.9372
  146DOPC   H4S17360   6.313   2.444  16.636 -0.2962 -0.4988  1.2003
  146DOPC   C2517361   6.171   2.397  16.490 -0.5056 -0.3601  0.2180
  146DOPC   H5R17362   6.239   2.442  16.415 -1.7738  0.8045 -0.2825
  146DOPC   H5S17363   6.094   2.475  16.509 -0.2829 -0.4636  1.5936
  146DOPC   C2617364   6.100   2.288  16.409 -0.5135  1.0967  0.0506
  146DOPC   H6R17365   5.996   2.280  16.449 -0.4397  0.3618  0.1130
  146DOPC   H6S17366   6.164   2.197  16.414 -0.8868  0.8395  0.2253
  146DOPC   C2717367   6.071   2.338  16.270 -0.2051  0.4394  0.3434
  146DOPC   H7R17368   6.166   2.341  16.212 -0.6404  1.0065 -0.3609
  146DOPC   H7S17369   6.028   2.440  16.279 -1.2398  0.1075 -0.7169
  146DOPC   C2817370   5.974   2.247  16.187 -0.5885  0.1725  0.4140
  146DOPC   H8R17371   5.948   2.312  16.101  0.1325  0.0220  0.0704
  146DOPC   H8S17372   5.879   2.231  16.242  0.1666 -0.2263  1.6548
  146DOPC   C2917373   6.026   2.115  16.134 -0.1760  0.2940  0.2540
  146DOPC   H9R17374   6.001   2.028  16.195 -0.4922 -1.0268 -1.6622
  146DOPC  C21017375   6.119   2.106  16.037 -0.1359  0.1499 -0.8557
  146DOPC  H10R17376   6.158   2.005  16.015  1.5488  0.4675  0.4629
  146DOPC  C21117377   6.189   2.219  15.967  0.4426  0.1352 -0.2315
  146DOPC  H11R17378   6.300   2.216  15.979  0.2148 -0.0555  2.3800
  146DOPC  H11S17379   6.159   2.318  16.005 -1.4097 -0.1615 -0.8225
  146DOPC  C21217380   6.151   2.212  15.820  0.6110 -0.2315  0.4659
  146DOPC  H12R17381   6.179   2.113  15.776  0.4196  0.5258 -1.4812
  146DOPC  H12S17382   6.203   2.289  15.759  2.4753 -0.8689  1.1742
  146DOPC  C21317383   5.998   2.232  15.788  0.4379 -0.2540  0.2244
  146DOPC  H13R17384   5.952   2.313  15.849  0.4313  0.6587 -0.9394
  146DOPC  H13S17385   5.938   2.143  15.817  0.9405 -0.8818 -0.6045
  146DOPC  C21417386   5.984   2.262  15.645 -0.4158  0.1593  0.4996
  146DOPC  H14R17387   6.041   2.196  15.576 -1.5937 -0.8444  0.4518
  146DOPC  H14S17388   6.034   2.358  15.624  1.0161 -0.4569  0.9513
  146DOPC  C21517389   5.838   2.264  15.597 -0.1474 -0.3089 -0.4628
  146DOPC  H15R17390   5.770   2.321  15.663 -0.8333 -2.1513  0.4772
  146DOPC  H15S17391   5.793   2.163  15.586 -1.7372  0.4383 -1.0475
  146DOPC  C21617392   5.831   2.345  15.462 -0.2560  0.3499 -1.1060
  146DOPC  H16R17393   5.905   2.307  15.388 -0.2978 -2.7583  0.3058
  146DOPC  H16S17394   5.864   2.448  15.488  0.1433 -0.3429  1.3290
  146DOPC  C21717395   5.695   2.346  15.399 -0.5910  1.0030  0.4650
  146DOPC  H17R17396   5.626   2.376  15.480 -1.7476 -0.5193  0.0816
  146DOPC  H17S17397   5.662   2.241  15.384 -0.5268  1.1652 -0.9533
  146DOPC  C21817398   5.676   2.429  15.270 -0.6531 -0.0611 -0.7445
  146DOPC  H18R17399   5.750   2.380  15.203  2.1114 -1.2972  2.8685
  146DOPC  H18S17400   5.694   2.539  15.279 -1.9317 -0.0352  4.5335
  146DOPC  H18T17401   5.574   2.440  15.228 -1.2617  2.4396  1.1499
  146DOPC   C3317402   5.814   2.454  16.691  0.2723 -0.1562 -0.0501
  146DOPC   H3X17403   5.923   2.458  16.667  0.3488 -0.1716  0.2897
  146DOPC   H3Y17404   5.811   2.551  16.745 -2.4413 -0.3522  0.3022
  146DOPC   C3417405   5.732   2.444  16.563  0.4385 -0.4139  0.2139
  146DOPC   H4X17406   5.624   2.453  16.587  0.2638 -0.5145 -0.5159
  146DOPC   H4Y17407   5.745   2.343  16.518 -1.4657 -0.0752 -1.2210
  146DOPC   C3517408   5.782   2.543  16.453 -0.7880 -0.5839 -0.5406
  146DOPC   H5X17409   5.888   2.516  16.436 -0.0180  0.6704  1.8692
  146DOPC   H5Y17410   5.777   2.647  16.492 -2.8793 -0.0750 -1.9681
  146DOPC   C3617411   5.701   2.536  16.322  0.5745 -0.0221 -0.4077
  146DOPC   H6X17412   5.695   2.435  16.275 -1.3488  0.9907 -2.5797
  146DOPC   H6Y17413   5.594   2.564  16.333  0.3606 -0.8684 -0.2507
  146DOPC   C3717414   5.770   2.621  16.211 -0.1690 -0.0200 -0.9993
  146DOPC   H7X17415   5.774   2.729  16.237  4.0588 -0.0154 -0.8822
  146DOPC   H7Y17416   5.876   2.589  16.206 -0.2175 -0.0042 -2.6300
  146DOPC   C3817417   5.705   2.617  16.070 -0.4509  0.7625  0.5644
  146DOPC   H8X17418   5.754   2.703  16.019  2.0991  1.1486  3.3396
  146DOPC   H8Y17419   5.596   2.635  16.085 -0.4202  1.5787 -0.1128
  146DOPC   C3917420   5.726   2.487  15.989  0.1687 -0.2901  0.1865
  146DOPC   H9X17421   5.808   2.427  16.031 -0.5556 -1.5275 -0.1019
  146DOPC  C31017422   5.659   2.444  15.879 -0.0403 -0.4074 -0.3465
  146DOPC  H10X17423   5.691   2.344  15.849  0.9544 -0.4931  0.8828
  146DOPC  C31117424   5.547   2.503  15.808  0.2499 -0.2837  0.4463
  146DOPC  H11X17425   5.572   2.498  15.700 -3.0402 -1.0179 -0.4185
  146DOPC  H11Y17426   5.530   2.609  15.838 -4.4554 -1.0331  1.2683
  146DOPC  C31217427   5.419   2.427  15.827  0.2792  0.0802 -0.0399
  146DOPC  H12X17428   5.396   2.436  15.936 -1.0123  0.6262 -0.3463
  146DOPC  H12Y17429   5.443   2.321  15.804 -0.5510 -0.1368  0.0474
  146DOPC  C31317430   5.301   2.471  15.744  0.5179 -0.4143  0.3657
  146DOPC  H13X17431   5.211   2.463  15.809  1.3158 -3.1492  1.2502
  146DOPC  H13Y17432   5.313   2.580  15.728 -2.2912 -0.4501 -3.4674
  146DOPC  C31417433   5.289   2.404  15.602 -0.0826  0.7235 -0.2954
  146DOPC  H14X17434   5.381   2.412  15.541  1.0091 -0.9011  1.0505
  146DOPC  H14Y17435   5.278   2.296  15.622  1.9284  0.8195  1.7426
  146DOPC  C31517436   5.179   2.461  15.515 -0.2866  0.4590  0.4632
  146DOPC  H15X17437   5.191   2.571  15.505 -1.0522  0.4657 -0.4998
  146DOPC  H15Y17438   5.076   2.448  15.555 -0.5919  2.8926  0.6331
  146DOPC  C31617439   5.181   2.410  15.369  0.2088 -0.3758  0.4908
  146DOPC  H16X17440   5.277   2.449  15.330 -0.3619 -0.4094 -0.9933
  146DOPC  H16Y17441   5.169   2.300  15.372  1.3379 -0.5828 -1.3523
  146DOPC  C31717442   5.074   2.467  15.283  1.2446 -0.7930 -0.1455
  146DOPC  H17X17443   4.972   2.432  15.308  2.1367 -2.1149  1.8835
  146DOPC  H17Y17444   5.074   2.578  15.292 -1.5605 -0.6930 -0.5215
  146DOPC  C31817445   5.100   2.442  15.135 -0.0418 -0.3720  0.6722
  146DOPC  H18X17446   5.082   2.335  15.109  1.2292 -0.8446  1.6519
  146DOPC  H18Y17447   5.047   2.502  15.058  0.8326 -0.4597 -0.0147
  146DOPC  H18Z17448   5.209   2.462  15.126 -0.1609 -0.5169 -1.5981
  147DOPC     N17449   1.582   3.294  17.098 -0.2009  0.6258  0.9972
  147DOPC   C1217450   1.652   3.295  16.959  0.3400 -0.5085 -0.6239
  147DOPC  H12A17451   1.669   3.400  16.940  3.0446 -0.6004  0.7421
  147DOPC  H12B17452   1.575   3.264  16.890  0.6533  0.2998 -1.3617
  147DOPC   C1317453   1.648   3.388  17.192  0.1912 -0.0373  0.0904
  147DOPC  H13A17454   1.599   3.398  17.288 -1.3476  0.2398 -0.6938
  147DOPC  H13B17455   1.749   3.353  17.208 -0.2283 -0.7186  1.4302
  147DOPC  H13C17456   1.646   3.487  17.149 -1.2754 -0.3324 -0.5537
  147DOPC   C1417457   1.587   3.156  17.156  0.6489 -0.2069 -0.2578
  147DOPC  H14A17458   1.688   3.123  17.175  0.8080  0.6547  0.4900
  147DOPC  H14B17459   1.524   3.148  17.243  1.3625  2.2434  0.5913
  147DOPC  H14C17460   1.555   3.081  17.085  0.4847 -2.3169  1.9220
  147DOPC   C1517461   1.440   3.338  17.078 -0.0768 -0.1923 -0.6181
  147DOPC  H15A17462   1.438   3.439  17.042  1.2338  0.3041  0.6414
  147DOPC  H15B17463   1.392   3.333  17.175  0.2968 -1.6472 -0.4875
  147DOPC  H15C17464   1.390   3.280  17.002  0.8468  0.6689 -1.9045
  147DOPC   C1117465   1.780   3.213  16.941  0.1384 -0.0723 -0.3211
  147DOPC  H11A17466   1.831   3.238  16.845  1.7002 -2.0821 -0.0587
  147DOPC  H11B17467   1.845   3.236  17.027  0.3401 -0.0974 -0.4668
  147DOPC     P17468   1.739   2.988  16.813  0.2763 -0.3833  0.2224
  147DOPC   O1317469   1.609   3.022  16.758 -0.6058  0.3595  0.3283
  147DOPC   O1417470   1.758   2.848  16.854 -0.0249 -0.5153 -0.2443
  147DOPC   O1217471   1.756   3.072  16.945 -0.1259  0.3637 -0.1267
  147DOPC   O1117472   1.863   3.051  16.729  0.8906 -0.1546  0.1201
  147DOPC    C117473   1.980   2.976  16.705  0.2758 -0.1124  0.8996
  147DOPC    HA17474   2.013   2.914  16.791  1.3863 -0.7893  0.0192
  147DOPC    HB17475   2.062   3.051  16.702  0.6520 -0.5161  0.8938
  147DOPC    C217476   1.995   2.903  16.562  0.4517  0.4761  0.1600
  147DOPC    HS17477   1.964   2.973  16.481 -0.1813 -0.6332 -0.5842
  147DOPC   O2117478   1.909   2.785  16.566  0.2516  0.5356  0.3449
  147DOPC   C2117479   1.788   2.802  16.525 -0.9769 -0.1040  0.5250
  147DOPC   O2217480   1.737   2.910  16.493  0.6204 -0.4996  0.0781
  147DOPC   C2217481   1.716   2.672  16.530 -1.0035  0.2354 -0.2608
  147DOPC   H2R17482   1.693   2.648  16.636  1.2768 -1.1205 -0.0097
  147DOPC   H2S17483   1.787   2.595  16.492 -0.9405 -1.4220  2.8833
  147DOPC    C317484   2.141   2.858  16.518 -0.9372  1.0467 -0.0376
  147DOPC    HX17485   2.181   2.788  16.595  0.4515  0.4925 -1.2052
  147DOPC    HY17486   2.202   2.950  16.510  2.4568 -0.9470  0.7059
  147DOPC   O3117487   2.132   2.799  16.391 -0.4320 -0.1190 -0.4359
  147DOPC   C3117488   2.148   2.664  16.379 -0.2952  0.3463 -0.8601
  147DOPC   O3217489   2.139   2.591  16.476  0.1129 -0.6161  0.0017
  147DOPC   C3217490   2.176   2.627  16.233  0.4065  0.1213 -1.1360
  147DOPC   H2X17491   2.249   2.703  16.197  1.5470 -0.5806 -0.3469
  147DOPC   H2Y17492   2.238   2.535  16.231  0.8123  0.1719  2.4876
  147DOPC   C2317493   1.591   2.670  16.436  0.0619 -0.2136 -0.0300
  147DOPC   H3R17494   1.520   2.754  16.452  0.3942 -0.1165  0.9769
  147DOPC   H3S17495   1.526   2.587  16.473 -1.1751  0.6854 -0.1274
  147DOPC   C2417496   1.620   2.656  16.286 -0.1300  0.5191 -0.0476
  147DOPC   H4R17497   1.718   2.606  16.280  0.5293  1.7776 -0.0725
  147DOPC   H4S17498   1.640   2.759  16.249 -1.7609  1.1421  0.7041
  147DOPC   C2517499   1.509   2.577  16.209  0.6595  0.3660 -0.7685
  147DOPC   H5R17500   1.445   2.650  16.155 -0.1063 -0.4900 -1.0299
  147DOPC   H5S17501   1.450   2.523  16.286  0.0473  1.2290 -0.6181
  147DOPC   C2617502   1.569   2.469  16.116  0.8250  0.3515 -0.1790
  147DOPC   H6R17503   1.645   2.507  16.044  0.0109  0.9502 -0.7440
  147DOPC   H6S17504   1.484   2.428  16.057  0.1036  0.4349  0.7917
  147DOPC   C2717505   1.609   2.334  16.185 -0.5757 -0.0707 -0.2678
  147DOPC   H7R17506   1.518   2.282  16.224 -0.8097  1.1066  0.8494
  147DOPC   H7S17507   1.665   2.353  16.279 -0.4215 -1.0061 -0.1607
  147DOPC   C2817508   1.682   2.238  16.097  0.7160  0.2603 -0.3594
  147DOPC   H8R17509   1.624   2.240  16.002  0.6299  3.3026 -0.3338
  147DOPC   H8S17510   1.677   2.140  16.150  0.6445  1.5921  2.2889
  147DOPC   C2917511   1.825   2.276  16.070 -0.0128  0.4069  0.2295
  147DOPC   H9R17512   1.892   2.279  16.158  1.4070  0.5870 -0.8167
  147DOPC  C21017513   1.884   2.310  15.951  0.6822  0.1342 -0.1973
  147DOPC  H10R17514   1.992   2.329  15.952  0.5019  1.2332  1.0251
  147DOPC  C21117515   1.831   2.317  15.813 -0.9178 -0.2835 -0.0575
  147DOPC  H11R17516   1.873   2.407  15.764 -0.1079 -0.1109  0.9228
  147DOPC  H11S17517   1.720   2.320  15.800 -1.0090 -0.9888  0.4721
  147DOPC  C21217518   1.874   2.196  15.729  0.7822 -0.7868 -0.4594
  147DOPC  H12R17519   1.836   2.216  15.627  0.1837 -0.0188 -0.0966
  147DOPC  H12S17520   1.820   2.103  15.758 -1.1601  0.5383  0.3990
  147DOPC  C21317521   2.021   2.173  15.724 -0.0639  0.6626 -0.1699
  147DOPC  H13R17522   2.032   2.076  15.670 -0.6805  0.5221 -0.0509
  147DOPC  H13S17523   2.055   2.155  15.828 -1.0319 -1.2634 -0.1411
  147DOPC  C21417524   2.110   2.276  15.665 -0.0170  0.2375 -0.1785
  147DOPC  H14R17525   2.098   2.375  15.714 -0.1524 -1.0285  2.5487
  147DOPC  H14S17526   2.091   2.283  15.556  0.3765 -0.7044 -0.3115
  147DOPC  C21517527   2.260   2.249  15.660 -0.0994  0.2379  0.1727
  147DOPC  H15R17528   2.265   2.142  15.631 -0.0572  0.2571  0.1089
  147DOPC  H15S17529   2.302   2.266  15.762  0.7466 -0.5380 -0.0321
  147DOPC  C21617530   2.335   2.342  15.563  0.2742  0.3935 -0.1416
  147DOPC  H16R17531   2.347   2.448  15.596 -0.7094 -0.0232  1.7090
  147DOPC  H16S17532   2.275   2.340  15.470 -0.1735  2.6603  0.0328
  147DOPC  C21717533   2.475   2.294  15.525 -0.3875  0.3361  0.1215
  147DOPC  H17R17534   2.522   2.348  15.440  0.2928 -1.1813 -0.5024
  147DOPC  H17S17535   2.477   2.187  15.496  2.1878  0.1792  0.6725
  147DOPC  C21817536   2.572   2.301  15.645  0.1142  0.1782 -0.0107
  147DOPC  H18R17537   2.676   2.293  15.605 -0.1002  1.0713 -0.7994
  147DOPC  H18S17538   2.548   2.220  15.717 -2.6276  0.0524 -0.9710
  147DOPC  H18T17539   2.579   2.408  15.677  2.5206  0.6192 -1.6912
  147DOPC   C3317540   2.050   2.622  16.136 -0.9359 -0.2138  0.0386
  147DOPC   H3X17541   1.982   2.536  16.153  0.0240 -0.9945  0.0617
  147DOPC   H3Y17542   2.088   2.593  16.035 -0.6591 -0.2385  0.1487
  147DOPC   C3417543   1.980   2.758  16.128 -0.2299  0.7498 -0.2501
  147DOPC   H4X17544   2.058   2.837  16.120  0.1554  0.3550 -0.3747
  147DOPC   H4Y17545   1.924   2.768  16.224  0.2157  0.5335  0.0372
  147DOPC   C3517546   1.886   2.770  16.015  0.0958 -0.2266  0.8157
  147DOPC   H5X17547   1.803   2.700  16.038 -0.2694  0.3319  1.2330
  147DOPC   H5Y17548   1.926   2.741  15.916 -1.8097  1.0376 -0.3920
  147DOPC   C3617549   1.836   2.919  15.998 -0.0573 -0.6586 -0.2014
  147DOPC   H6X17550   1.930   2.970  15.967  1.2400 -1.5087  2.0668
  147DOPC   H6Y17551   1.759   2.924  15.918 -1.1050  1.5876  0.8719
  147DOPC   C3717552   1.788   2.994  16.123 -0.2110 -0.1201 -0.3601
  147DOPC   H7X17553   1.721   2.937  16.190  0.8970 -1.0945 -0.0521
  147DOPC   H7Y17554   1.876   3.009  16.189 -0.0356 -2.7612  0.1024
  147DOPC   C3817555   1.719   3.126  16.104  0.2483 -0.4870  0.5382
  147DOPC   H8X17556   1.742   3.191  16.191  0.3259  0.2289 -0.0022
  147DOPC   H8Y17557   1.608   3.116  16.110  0.1268 -1.0021 -1.7457
  147DOPC   C3917558   1.762   3.209  15.986 -0.1521 -0.1182 -0.4762
  147DOPC   H9X17559   1.857   3.264  15.998  0.1142 -0.5655 -0.4872
  147DOPC  C31017560   1.689   3.230  15.879  0.3216 -0.5258 -0.1939
  147DOPC  H10X17561   1.736   3.285  15.796  3.2925 -3.1284 -0.3869
  147DOPC  C31117562   1.556   3.154  15.857 -0.4704  0.3817 -0.9745
  147DOPC  H11X17563   1.539   3.066  15.921 -0.1865  1.6794  0.9732
  147DOPC  H11Y17564   1.556   3.129  15.749  0.2857 -1.2419 -0.6239
  147DOPC  C31217565   1.431   3.245  15.892 -0.1134 -0.5360 -0.2821
  147DOPC  H12X17566   1.445   3.292  15.992 -1.1899  1.0476 -0.8375
  147DOPC  H12Y17567   1.338   3.185  15.895 -0.6670  0.2908 -0.5670
  147DOPC  C31317568   1.417   3.364  15.792 -0.2110  0.3579 -0.1595
  147DOPC  H13X17569   1.517   3.412  15.778  0.1023 -0.3877 -0.5018
  147DOPC  H13Y17570   1.388   3.334  15.690  0.1110  0.2006 -0.2058
  147DOPC  C31417571   1.332   3.480  15.853 -0.9635  0.0412 -0.4754
  147DOPC  H14X17572   1.235   3.445  15.895 -0.9143  1.0429  0.5249
  147DOPC  H14Y17573   1.390   3.527  15.936 -0.4312 -1.2415 -0.0911
  147DOPC  C31517574   1.290   3.605  15.759 -0.3162  0.0118 -0.0122
  147DOPC  H15X17575   1.211   3.572  15.688  0.2160  1.3494 -1.2960
  147DOPC  H15Y17576   1.384   3.642  15.712  1.1926 -1.4563  1.7061
  147DOPC  C31617577   1.230   3.722  15.835 -0.6081  0.4922  0.0216
  147DOPC  H16X17578   1.132   3.695  15.881 -1.7437  1.0133 -1.9371
  147DOPC  H16Y17579   1.303   3.761  15.908  0.1990  1.9809 -1.5106
  147DOPC  C31717580   1.190   3.839  15.746 -0.7232  0.3539 -0.2116
  147DOPC  H17X17581   1.278   3.878  15.690  0.2463 -0.3792  0.7700
  147DOPC  H17Y17582   1.121   3.793  15.672  1.7696 -0.4576 -2.1671
  147DOPC  C31817583   1.116   3.960  15.808  0.3953 -0.2499 -0.9101
  147DOPC  H18X17584   1.047   3.915  15.882 -1.4019  0.6071 -2.0062
  147DOPC  H18Y17585   1.195   4.015  15.864  0.3921 -3.7212  2.9790
  147DOPC  H18Z17586   1.067   4.022  15.730 -1.6903  0.1511  0.6256
  148DOPC     N17587   3.500   5.159  17.267 -0.6326 -0.4755 -0.1817
  148DOPC   C1217588   3.453   5.276  17.177  0.0924 -0.3067 -1.0424
  148DOPC  H12A17589   3.452   5.238  17.076  0.6747  0.6802 -1.4369
  148DOPC  H12B17590   3.528   5.354  17.170  2.7233 -2.6919 -1.6951
  148DOPC   C1317591   3.565   5.216  17.391  0.0614 -0.3810 -0.2029
  148DOPC  H13A17592   3.500   5.284  17.443  1.3622  1.6977 -1.1705
  148DOPC  H13B17593   3.586   5.139  17.464 -1.3970 -0.0641  0.5930
  148DOPC  H13C17594   3.656   5.270  17.371 -0.7421  0.4898 -1.7129
  148DOPC   C1417595   3.598   5.089  17.185 -0.4170 -0.6064  0.0266
  148DOPC  H14A17596   3.637   5.000  17.232  1.1054  0.4796  0.9014
  148DOPC  H14B17597   3.546   5.053  17.097 -0.3164 -2.5991  0.7259
  148DOPC  H14C17598   3.676   5.160  17.162 -1.7760  0.1943 -2.4771
  148DOPC   C1517599   3.391   5.067  17.306  0.6186  0.5608  0.8678
  148DOPC  H15A17600   3.328   5.115  17.380 -0.8556  1.3144 -0.7831
  148DOPC  H15B17601   3.425   4.974  17.349  0.4933  1.0130  1.9747
  148DOPC  H15C17602   3.321   5.036  17.230  0.3857  0.7154  1.0173
  148DOPC   C1117603   3.320   5.335  17.217  0.2925 -0.5605 -0.7298
  148DOPC  H11A17604   3.236   5.262  17.210 -0.4563  0.4055 -2.3088
  148DOPC  H11B17605   3.324   5.370  17.322 -0.6505  0.8696 -1.1412
  148DOPC     P17606   3.199   5.455  17.022  0.5379 -0.0401 -0.0306
  148DOPC   O1317607   3.236   5.567  16.932 -0.4733 -0.0136 -0.4868
  148DOPC   O1417608   3.058   5.448  17.069  0.3915  0.2326  0.6001
  148DOPC   O1217609   3.298   5.454  17.141  0.6080 -0.3268 -0.6118
  148DOPC   O1117610   3.222   5.313  16.954 -0.1378  0.3465 -0.6857
  148DOPC    C117611   3.315   5.314  16.840  0.2879  0.1029  0.8539
  148DOPC    HA17612   3.396   5.241  16.861  1.8261  1.8957  1.4108
  148DOPC    HB17613   3.353   5.412  16.803  0.0836  0.1358  0.7292
  148DOPC    C217614   3.232   5.254  16.722  0.0377 -0.3632  0.6731
  148DOPC    HS17615   3.305   5.271  16.640 -0.1495  0.3547  0.6456
  148DOPC   O2117616   3.109   5.334  16.703 -0.5085 -0.0847 -0.5640
  148DOPC   C2117617   3.131   5.459  16.661  0.0001 -0.2370 -0.0654
  148DOPC   O2217618   3.228   5.501  16.605  0.1028  0.1240 -0.1977
  148DOPC   C2217619   3.002   5.548  16.687 -0.0260  0.1300 -0.0431
  148DOPC   H2R17620   3.030   5.631  16.755  1.9817 -0.9391  0.5073
  148DOPC   H2S17621   2.921   5.492  16.738  0.0296  0.2345  0.1595
  148DOPC    C317622   3.194   5.105  16.712  0.6954 -0.3125  0.5482
  148DOPC    HX17623   3.129   5.076  16.797  0.9505 -2.0403  0.1835
  148DOPC    HY17624   3.286   5.044  16.728 -0.3506 -1.7022  1.4616
  148DOPC   O3117625   3.145   5.083  16.579  0.3340 -0.1423  0.8151
  148DOPC   C3117626   3.015   5.070  16.559  0.7378 -0.2060 -0.0148
  148DOPC   O3217627   2.927   5.090  16.641 -0.1628 -0.5460  0.0218
  148DOPC   C3217628   2.994   5.039  16.411  0.3068  0.3835  0.1966
  148DOPC   H2X17629   3.032   4.936  16.395  0.3369  0.5614 -1.0008
  148DOPC   H2Y17630   2.884   5.048  16.396  0.6450  0.6560 -2.6217
  148DOPC   C2317631   2.953   5.604  16.555  0.4144  0.4796 -0.2123
  148DOPC   H3R17632   3.032   5.640  16.486 -0.0337  0.7169 -0.6110
  148DOPC   H3S17633   2.879   5.684  16.577 -0.0025 -0.4332  1.9930
  148DOPC   C2417634   2.881   5.494  16.477 -1.0226  0.5598 -0.5843
  148DOPC   H4R17635   2.828   5.428  16.549 -0.5564  1.1762  0.3450
  148DOPC   H4S17636   2.962   5.426  16.443 -0.4885  1.7050 -1.7183
  148DOPC   C2517637   2.788   5.540  16.366 -0.1513 -0.7692  0.2171
  148DOPC   H5R17638   2.707   5.586  16.427 -0.0243 -0.3507  0.0731
  148DOPC   H5S17639   2.749   5.447  16.320 -0.2757 -1.3765  1.5090
  148DOPC   C2617640   2.838   5.640  16.258 -0.4019  0.0142  0.2179
  148DOPC   H6R17641   2.875   5.732  16.308  0.7321 -0.0628 -0.4566
  148DOPC   H6S17642   2.754   5.681  16.199  0.6319  1.1554 -0.5095
  148DOPC   C2717643   2.949   5.588  16.177  0.0222 -0.2153  0.7805
  148DOPC   H7R17644   2.917   5.508  16.107 -2.0932 -0.3999  1.8878
  148DOPC   H7S17645   3.031   5.554  16.244 -0.7147  0.8932  2.3082
  148DOPC   C2817646   3.008   5.699  16.085 -0.0009  0.7754 -0.1292
  148DOPC   H8R17647   3.103   5.662  16.041 -0.2890  0.1399 -0.2240
  148DOPC   H8S17648   3.025   5.791  16.146 -0.8756  0.0695  1.2366
  148DOPC   C2917649   2.913   5.741  15.974  0.5203  0.2960  0.2808
  148DOPC   H9R17650   2.814   5.776  16.008  0.3252 -0.8199  0.9312
  148DOPC  C21017651   2.931   5.704  15.845  0.4744 -0.0957  0.2831
  148DOPC  H10R17652   2.854   5.745  15.779 -1.9229 -0.4250  2.6667
  148DOPC  C21117653   3.044   5.631  15.785  0.0478  0.1172  0.3913
  148DOPC  H11R17654   3.107   5.585  15.865  1.4442 -0.6315 -1.0869
  148DOPC  H11S17655   3.108   5.695  15.720  2.5707 -2.2727  0.3421
  148DOPC  C21217656   3.000   5.517  15.687  0.0035  0.5158 -0.1904
  148DOPC  H12R17657   2.929   5.452  15.743  0.4440  2.1281  2.3763
  148DOPC  H12S17658   3.088   5.455  15.658 -0.8075 -0.4170 -0.7120
  148DOPC  C21317659   2.942   5.578  15.562  0.7442  0.5589  0.3823
  148DOPC  H13R17660   3.012   5.657  15.527 -0.2594  0.5315 -1.8217
  148DOPC  H13S17661   2.846   5.632  15.579 -0.1992 -1.1269  0.5892
  148DOPC  C21417662   2.917   5.472  15.461 -0.1391  0.8166  0.0915
  148DOPC  H14R17663   2.846   5.401  15.510  1.2302  1.2085  2.8740
  148DOPC  H14S17664   3.012   5.418  15.449 -1.0881 -0.4633 -2.1776
  148DOPC  C21517665   2.868   5.523  15.330 -0.3218 -0.4591 -0.3441
  148DOPC  H15R17666   2.935   5.604  15.291 -0.1737 -1.2582 -1.8496
  148DOPC  H15S17667   2.762   5.555  15.338 -0.2312 -0.5173  1.2165
  148DOPC  C21617668   2.872   5.411  15.223  0.1506 -0.2836 -0.0760
  148DOPC  H16R17669   2.780   5.353  15.245  0.1773  0.1245  1.1857
  148DOPC  H16S17670   2.967   5.354  15.229  0.5537  0.3500 -0.3325
  148DOPC  C21717671   2.869   5.462  15.078  0.1554 -0.2088 -0.6223
  148DOPC  H17R17672   2.953   5.532  15.060  0.6850 -0.5633  0.3684
  148DOPC  H17S17673   2.778   5.524  15.062 -0.4763 -0.7212  0.7782
  148DOPC  C21817674   2.875   5.342  14.980  0.7401 -0.3659  0.2503
  148DOPC  H18R17675   2.914   5.382  14.884  0.4834  0.7117  0.5789
  148DOPC  H18S17676   2.778   5.294  14.957  0.9713  0.2413 -2.3549
  148DOPC  H18T17677   2.940   5.257  15.008 -1.9754 -2.9384 -0.7508
  148DOPC   C3317678   3.071   5.143  16.322 -0.2298  0.0307  0.3140
  148DOPC   H3X17679   3.177   5.154  16.351 -0.3547  0.8954  0.4764
  148DOPC   H3Y17680   3.027   5.242  16.345 -0.7698 -0.7051  2.7353
  148DOPC   C3417681   3.067   5.113  16.171 -0.3567  0.0040 -0.4664
  148DOPC   H4X17682   2.963   5.098  16.133 -0.3111  1.3847 -1.2326
  148DOPC   H4Y17683   3.128   5.024  16.145  0.9879  0.5007  0.8453
  148DOPC   C3517684   3.135   5.213  16.074  0.5098 -0.1347  0.6741
  148DOPC   H5X17685   3.239   5.232  16.109  0.0615 -0.0236  2.0162
  148DOPC   H5Y17686   3.073   5.306  16.074  0.0740 -0.3652  2.5537
  148DOPC   C3617687   3.141   5.154  15.931  0.1812 -0.1081  0.4308
  148DOPC   H6X17688   3.215   5.071  15.931  0.0756 -0.2898 -2.1320
  148DOPC   H6Y17689   3.040   5.118  15.900 -0.3365 -0.8798  2.8198
  148DOPC   C3717690   3.180   5.270  15.835  0.1310 -0.1671 -0.2408
  148DOPC   H7X17691   3.135   5.249  15.736  1.5520  0.9768 -1.1720
  148DOPC   H7Y17692   3.138   5.363  15.879 -0.1163 -0.7300  0.7466
  148DOPC   C3817693   3.335   5.296  15.824  0.7782  0.1490 -0.7120
  148DOPC   H8X17694   3.376   5.197  15.793 -0.3974 -1.1418  1.5660
  148DOPC   H8Y17695   3.374   5.313  15.927  0.4682 -2.2246 -0.1417
  148DOPC   C3917696   3.367   5.421  15.737  0.0838 -0.3790  0.1832
  148DOPC   H9X17697   3.378   5.522  15.779 -0.0076 -0.5546  0.6341
  148DOPC  C31017698   3.378   5.412  15.601  0.6562  0.5839 -0.1947
  148DOPC  H10X17699   3.404   5.499  15.539 -0.5653  0.1240 -1.4037
  148DOPC  C31117700   3.377   5.278  15.530 -0.7905  0.1818  0.4188
  148DOPC  H11X17701   3.359   5.189  15.593  0.2109 -0.2059  0.1884
  148DOPC  H11Y17702   3.478   5.275  15.484 -0.4132 -0.2112  1.2580
  148DOPC  C31217703   3.276   5.281  15.413  0.0661  0.1144 -0.0675
  148DOPC  H12X17704   3.278   5.378  15.358 -1.7706 -0.1236 -0.5986
  148DOPC  H12Y17705   3.171   5.272  15.446  0.1964 -0.1526  0.2774
  148DOPC  C31317706   3.303   5.166  15.322  0.3658  0.2160 -0.5644
  148DOPC  H13X17707   3.403   5.187  15.278 -0.5355  2.1866 -1.7855
  148DOPC  H13Y17708   3.316   5.075  15.385  0.2252  0.1656 -0.6063
  148DOPC  C31417709   3.203   5.148  15.203  1.0425 -0.8370  0.7492
  148DOPC  H14X17710   3.106   5.140  15.256  1.6152  0.4932  2.1014
  148DOPC  H14Y17711   3.204   5.237  15.136 -0.9592  0.4468  2.3057
  148DOPC  C31517712   3.230   5.018  15.124 -0.3900  0.1396 -0.1377
  148DOPC  H15X17713   3.246   4.940  15.201  0.0152 -1.3371 -1.6479
  148DOPC  H15Y17714   3.330   5.030  15.077 -1.2386  0.8964 -1.8577
  148DOPC  C31617715   3.109   4.979  15.027  0.0700  0.1127 -0.0449
  148DOPC  H16X17716   3.014   4.997  15.082  0.5564 -3.1529  2.1708
  148DOPC  H16Y17717   3.133   5.046  14.941  2.3698 -0.8513 -0.2198
  148DOPC  C31717718   3.117   4.832  14.972 -0.5612 -0.8676 -0.4659
  148DOPC  H17X17719   3.218   4.792  14.996 -0.9863 -0.7395  1.6961
  148DOPC  H17Y17720   3.043   4.773  15.029  0.2049  1.5690  3.4625
  148DOPC  C31817721   3.096   4.820  14.824 -0.0396 -0.0751  0.5552
  148DOPC  H18X17722   2.991   4.841  14.793  0.3546  0.6011 -0.3533
  148DOPC  H18Y17723   3.164   4.894  14.777 -0.5919 -0.5846 -1.0978
  148DOPC  H18Z17724   3.134   4.719  14.798 -0.1417 -0.1980  0.8784
  149DOPC     N17725   3.059   1.017  17.026 -0.5079 -0.3664 -0.3625
  149DOPC   C1217726   3.191   1.099  17.039 -0.6185 -0.1921  0.4150
  149DOPC  H12A17727   3.262   1.025  17.073  2.4144  1.6277 -1.5515
  149DOPC  H12B17728   3.171   1.169  17.118  1.3675 -0.1207  0.9037
  149DOPC   C1317729   3.049   0.938  17.148  1.0892 -0.4192  0.2614
  149DOPC  H13A17730   3.130   0.866  17.156 -0.4237 -2.1752  0.5109
  149DOPC  H13B17731   3.049   1.010  17.229  2.0325 -1.0188  0.8166
  149DOPC  H13C17732   2.951   0.892  17.150  0.0135  1.7803  0.8425
  149DOPC   C1417733   3.066   0.925  16.911 -0.5981 -0.4932 -0.4758
  149DOPC  H14A17734   2.990   0.851  16.928 -1.7408  0.5515 -0.8941
  149DOPC  H14B17735   3.045   0.983  16.823  0.2517  0.1213 -0.2910
  149DOPC  H14C17736   3.157   0.868  16.904  0.3402  0.8609  0.0182
  149DOPC   C1517737   2.946   1.112  17.010  0.2311 -0.2377  0.0100
  149DOPC  H15A17738   2.855   1.062  16.979 -0.2959  0.2924  0.6457
  149DOPC  H15B17739   2.963   1.176  16.925  0.2588  0.0134  0.2053
  149DOPC  H15C17740   2.922   1.172  17.096 -0.2328 -0.7084  0.2204
  149DOPC   C1117741   3.258   1.159  16.914  0.2654 -0.3455  0.3118
  149DOPC  H11A17742   3.361   1.195  16.932 -0.4582  2.5596 -0.8854
  149DOPC  H11B17743   3.278   1.077  16.841 -0.8094 -2.2303  2.0084
  149DOPC     P17744   3.137   1.396  16.893 -0.1120  0.4662 -0.3886
  149DOPC   O1317745   3.191   1.418  17.033 -0.1203  0.4156 -0.3680
  149DOPC   O1417746   2.992   1.396  16.889 -0.0358 -0.2885 -0.1357
  149DOPC   O1217747   3.177   1.255  16.843  0.3688 -0.2328 -0.3383
  149DOPC   O1117748   3.200   1.505  16.802  0.0848  0.8680  0.0357
  149DOPC    C117749   3.343   1.510  16.784 -0.3401 -0.5751 -1.1075
  149DOPC    HA17750   3.402   1.431  16.835  1.1704 -0.4390 -2.5404
  149DOPC    HB17751   3.373   1.611  16.819  1.5406 -0.5374 -2.6325
  149DOPC    C217752   3.384   1.493  16.632 -0.0453  0.5323  0.6328
  149DOPC    HS17753   3.314   1.563  16.581 -0.4439 -1.0506 -1.0682
  149DOPC   O2117754   3.365   1.354  16.593 -0.4697  0.1112  0.3850
  149DOPC   C2117755   3.246   1.323  16.548 -0.2857  0.2687 -0.3343
  149DOPC   O2217756   3.152   1.395  16.534 -0.1334 -0.4771  0.6984
  149DOPC   C2217757   3.243   1.174  16.518 -0.3074  0.2330  0.6111
  149DOPC   H2R17758   3.185   1.130  16.602 -2.4510  1.0869 -0.3434
  149DOPC   H2S17759   3.342   1.125  16.518 -1.2318 -1.6932  0.3923
  149DOPC    C317760   3.533   1.541  16.603 -0.3544  0.5893 -0.2343
  149DOPC    HX17761   3.592   1.479  16.674  0.6610  0.8737 -0.8217
  149DOPC    HY17762   3.541   1.645  16.641  0.0286 -0.2044  2.0291
  149DOPC   O3117763   3.571   1.527  16.466 -0.2565  0.7344  0.4191
  149DOPC   C3117764   3.683   1.455  16.445 -0.0345  0.8653  0.0069
  149DOPC   O3217765   3.759   1.407  16.529  0.4488  0.6092 -0.0629
  149DOPC   C3217766   3.717   1.448  16.294 -0.7151  0.7231  0.1741
  149DOPC   H2X17767   3.632   1.391  16.249  0.9091 -3.0540  1.4716
  149DOPC   H2Y17768   3.716   1.551  16.252  2.1780  0.0991 -1.6536
  149DOPC   C2317769   3.176   1.146  16.385  0.6140  0.2062 -0.4236
  149DOPC   H3R17770   3.069   1.167  16.405  0.7776  0.8105 -0.1593
  149DOPC   H3S17771   3.199   1.046  16.343 -0.0767  0.7658 -2.2292
  149DOPC   C2417772   3.217   1.232  16.266  0.1012 -0.0149 -0.5660
  149DOPC   H4R17773   3.180   1.336  16.273  0.2252  0.1747 -2.2172
  149DOPC   H4S17774   3.170   1.193  16.173  1.3243 -2.6592 -0.1822
  149DOPC   C2517775   3.368   1.237  16.245 -0.4285  0.8844 -0.3132
  149DOPC   H5R17776   3.416   1.137  16.234 -0.0337  1.0676 -0.2782
  149DOPC   H5S17777   3.415   1.304  16.320  0.8365 -0.4293  0.1237
  149DOPC   C2617778   3.409   1.306  16.109 -0.3513  0.3209  0.0016
  149DOPC   H6R17779   3.339   1.272  16.030  0.2029  1.8255 -1.1615
  149DOPC   H6S17780   3.515   1.286  16.083 -0.5372 -0.8401  0.0571
  149DOPC   C2717781   3.386   1.457  16.111 -0.2084  0.3938  0.2083
  149DOPC   H7R17782   3.429   1.504  16.202 -2.0441 -0.9012  1.8413
  149DOPC   H7S17783   3.276   1.471  16.123 -0.1306  0.2443  1.2406
  149DOPC   C2817784   3.440   1.526  15.988  0.1915 -0.5940  0.1263
  149DOPC   H8R17785   3.372   1.493  15.905 -0.5233  1.1919 -0.0347
  149DOPC   H8S17786   3.541   1.484  15.973 -0.3983 -2.2592  0.5634
  149DOPC   C2917787   3.468   1.673  16.000  0.0072  0.3549 -0.0718
  149DOPC   H9R17788   3.532   1.705  16.083  0.2304  3.3106 -1.2692
  149DOPC  C21017789   3.447   1.770  15.910 -0.5364 -0.6687 -0.1213
  149DOPC  H10R17790   3.473   1.873  15.937 -0.2895 -0.5702 -0.7221
  149DOPC  C21117791   3.383   1.762  15.778  0.2021  0.2598  0.3393
  149DOPC  H11R17792   3.326   1.854  15.753  0.8643  0.2757 -1.1885
  149DOPC  H11S17793   3.300   1.689  15.779 -0.7412  1.1662 -2.4732
  149DOPC  C21217794   3.472   1.727  15.659  0.6508 -0.1451 -0.4618
  149DOPC  H12R17795   3.557   1.667  15.700 -0.3969 -2.1742 -1.1089
  149DOPC  H12S17796   3.519   1.819  15.619 -2.8719  1.0418 -2.2358
  149DOPC  C21317797   3.397   1.666  15.538  0.2864 -0.3089 -0.2702
  149DOPC  H13R17798   3.289   1.670  15.566  0.7030 -0.2048  1.4324
  149DOPC  H13S17799   3.424   1.558  15.530  0.3755 -0.3475  0.5038
  149DOPC  C21417800   3.419   1.753  15.418  0.0628  0.1036 -0.5257
  149DOPC  H14R17801   3.526   1.741  15.389 -0.2770  0.3766 -1.9722
  149DOPC  H14S17802   3.395   1.859  15.440 -1.2329 -0.1763 -0.5096
  149DOPC  C21517803   3.331   1.712  15.299  0.1170 -0.0199  0.5554
  149DOPC  H15R17804   3.226   1.723  15.335  0.1419  1.0542  0.3283
  149DOPC  H15S17805   3.353   1.609  15.263  1.2238  1.2415 -2.7248
  149DOPC  C21617806   3.330   1.807  15.188 -0.3940 -0.3640  0.0094
  149DOPC  H16R17807   3.427   1.819  15.136 -0.8179 -2.0753 -1.2588
  149DOPC  H16S17808   3.312   1.910  15.226  1.8132 -0.8104  2.5384
  149DOPC  C21717809   3.226   1.765  15.090 -0.1667 -0.2095  0.2142
  149DOPC  H17R17810   3.126   1.769  15.138  0.3391 -0.2187  1.2960
  149DOPC  H17S17811   3.245   1.660  15.058  1.0306  0.2051 -0.5421
  149DOPC  C21817812   3.236   1.861  14.966 -0.2312  0.5984 -0.2425
  149DOPC  H18R17813   3.328   1.841  14.906 -0.9284 -1.3915 -0.7306
  149DOPC  H18S17814   3.236   1.968  14.997 -3.1331  0.5935  0.0738
  149DOPC  H18T17815   3.142   1.844  14.909  0.6511 -0.4314 -1.4571
  149DOPC   C3317816   3.853   1.376  16.273  0.0190  0.9975 -0.1013
  149DOPC   H3X17817   3.858   1.292  16.345 -1.3547  2.9821  2.4663
  149DOPC   H3Y17818   3.934   1.446  16.302 -0.7255  1.0395  2.0217
  149DOPC   C3417819   3.861   1.315  16.126 -0.1482 -0.1041 -0.1578
  149DOPC   H4X17820   3.858   1.399  16.054  1.1231 -0.1249 -0.2694
  149DOPC   H4Y17821   3.769   1.260  16.098 -0.3338  1.1206 -2.1896
  149DOPC   C3517822   3.980   1.213  16.104  0.2648 -0.5322 -0.1880
  149DOPC   H5X17823   3.958   1.169  16.004  1.8448 -2.0542  0.0933
  149DOPC   H5Y17824   3.981   1.133  16.180 -0.7541  0.5458  0.9940
  149DOPC   C3617825   4.116   1.290  16.121  0.2150  0.3156 -0.4263
  149DOPC   H6X17826   4.100   1.339  16.219 -0.0986 -1.6587  0.5611
  149DOPC   H6Y17827   4.199   1.216  16.119  0.2597  0.3475  0.0837
  149DOPC   C3717828   4.136   1.397  16.014 -0.2055 -0.7012  0.6490
  149DOPC   H7X17829   4.052   1.469  16.016  1.0769  0.8410  1.8496
  149DOPC   H7Y17830   4.230   1.449  16.042 -0.8636  0.0403  1.5420
  149DOPC   C3817831   4.152   1.340  15.871 -0.2103  0.7076 -0.2289
  149DOPC   H8X17832   4.099   1.243  15.881  0.7056 -0.0347 -2.0561
  149DOPC   H8Y17833   4.257   1.314  15.844 -0.3067  1.7071 -1.6885
  149DOPC   C3917834   4.090   1.426  15.764 -0.6437 -0.6690 -0.0922
  149DOPC   H9X17835   4.147   1.519  15.753 -1.5578 -0.0409  0.3347
  149DOPC  C31017836   3.974   1.418  15.703 -0.2204  0.5939  0.2429
  149DOPC  H10X17837   3.943   1.507  15.647 -0.3749  1.7889  2.1549
  149DOPC  C31117838   3.874   1.308  15.716  0.2444  0.2995 -0.1217
  149DOPC  H11X17839   3.904   1.228  15.786 -0.8752 -1.8437 -1.9801
  149DOPC  H11Y17840   3.877   1.244  15.626 -2.3248 -0.1708  0.0515
  149DOPC  C31217841   3.725   1.351  15.730 -0.3452  0.1889 -0.2457
  149DOPC  H12X17842   3.727   1.434  15.803  2.1698 -1.6258  1.9418
  149DOPC  H12Y17843   3.663   1.269  15.772  0.8755 -0.4579  0.3443
  149DOPC  C31317844   3.667   1.405  15.601 -0.4867 -0.2885  0.1254
  149DOPC  H13X17845   3.575   1.467  15.610  0.0372  1.0010 -2.5242
  149DOPC  H13Y17846   3.738   1.479  15.558 -0.5762  0.7978  1.7624
  149DOPC  C31417847   3.640   1.287  15.505  0.2170 -0.4325 -0.5177
  149DOPC  H14X17848   3.731   1.224  15.493 -0.5628 -1.3957 -1.5026
  149DOPC  H14Y17849   3.560   1.218  15.539 -0.7107  0.0147 -1.7572
  149DOPC  C31517850   3.599   1.341  15.365  0.4466  0.3157  1.0770
  149DOPC  H15X17851   3.697   1.376  15.327  1.2439 -0.2025  2.5719
  149DOPC  H15Y17852   3.530   1.428  15.378 -0.0235  0.1965 -0.4321
  149DOPC  C31617853   3.539   1.235  15.271 -0.2810 -0.6315  0.1490
  149DOPC  H16X17854   3.459   1.179  15.324  0.3305 -3.1571 -1.4267
  149DOPC  H16Y17855   3.484   1.275  15.183  0.7874 -2.3500 -1.3713
  149DOPC  C31717856   3.651   1.139  15.217  0.0231 -0.2381 -0.0884
  149DOPC  H17X17857   3.748   1.160  15.268  0.1400 -0.4975 -0.2041
  149DOPC  H17Y17858   3.617   1.036  15.242 -0.4150 -0.1440 -0.2890
  149DOPC  C31817859   3.681   1.155  15.069 -0.2959 -0.0557  0.4687
  149DOPC  H18X17860   3.728   1.255  15.059 -0.5582 -0.1788 -3.5607
  149DOPC  H18Y17861   3.751   1.074  15.039 -0.5678 -0.6999  1.5120
  149DOPC  H18Z17862   3.592   1.164  15.002 -0.3252  3.6633  0.7865
  150DOPC     N17863   6.087   3.198  17.214  0.2136  0.1310 -0.5740
  150DOPC   C1217864   6.199   3.199  17.113  0.7429 -0.1402  0.2573
  150DOPC  H12A17865   6.168   3.166  17.015  0.8582  2.2484 -0.6498
  150DOPC  H12B17866   6.267   3.122  17.146  2.2750  1.0923  0.0796
  150DOPC   C1317867   6.018   3.065  17.229  0.1251  0.1423 -0.6658
  150DOPC  H13A17868   5.968   3.026  17.142 -1.6220 -1.7632  1.0805
  150DOPC  H13B17869   6.085   2.983  17.250 -0.0980 -0.0651 -0.7578
  150DOPC  H13C17870   5.944   3.076  17.307  0.8031 -0.2016  0.0389
  150DOPC   C1417871   5.985   3.299  17.175  0.2843 -0.3986  0.2499
  150DOPC  H14A17872   6.024   3.399  17.188 -1.7333  0.4276  0.2700
  150DOPC  H14B17873   5.951   3.291  17.073 -0.4945 -0.7022  0.5275
  150DOPC  H14C17874   5.899   3.292  17.240 -0.6352  2.6327 -0.5136
  150DOPC   C1517875   6.147   3.235  17.351  0.2156 -0.3503  0.3840
  150DOPC  H15A17876   6.220   3.164  17.387  0.0616 -1.3544 -1.1648
  150DOPC  H15B17877   6.070   3.238  17.427 -0.7241 -0.8801 -0.5146
  150DOPC  H15C17878   6.196   3.330  17.340  0.4269 -0.6449 -1.5971
  150DOPC   C1117879   6.279   3.327  17.091 -0.1457 -0.5302  0.1345
  150DOPC  H11A17880   6.356   3.292  17.019  0.8588 -1.0680  1.4414
  150DOPC  H11B17881   6.224   3.403  17.032  1.2280  0.6461  0.3001
  150DOPC     P17882   6.416   3.518  17.183 -0.0656  0.3721  0.5242
  150DOPC   O1317883   6.559   3.499  17.227  0.1372  0.3447 -0.6957
  150DOPC   O1417884   6.342   3.617  17.258 -0.0180  0.2961 -0.4114
  150DOPC   O1217885   6.340   3.380  17.204  0.3148  0.5152  0.1687
  150DOPC   O1117886   6.413   3.552  17.026 -0.2980  0.2451 -0.0786
  150DOPC    C117887   6.390   3.688  16.990  0.4586  0.1457 -0.3641
  150DOPC    HA17888   6.440   3.713  16.894  1.6913  1.4306  0.5703
  150DOPC    HB17889   6.417   3.765  17.066 -0.3602  1.1733 -1.0827
  150DOPC    C217890   6.236   3.713  16.980 -0.0939 -0.1438  0.2586
  150DOPC    HS17891   6.186   3.634  17.041 -3.6124  1.5980 -0.0746
  150DOPC   O2117892   6.199   3.692  16.839  0.3512 -0.1726 -0.1712
  150DOPC   C2117893   6.080   3.630  16.834  0.1382 -0.7767 -0.2300
  150DOPC   O2217894   6.000   3.617  16.929 -0.3180 -0.0330  0.1858
  150DOPC   C2217895   6.056   3.577  16.694 -0.7847 -0.6220 -0.2825
  150DOPC   H2R17896   6.128   3.492  16.687  2.4784  1.6510  2.6035
  150DOPC   H2S17897   6.094   3.652  16.621  1.0483 -1.1128  0.1198
  150DOPC    C317898   6.190   3.845  17.036 -0.1285 -0.2801 -0.1085
  150DOPC    HX17899   6.232   3.845  17.139  0.9718 -2.3419 -0.5085
  150DOPC    HY17900   6.080   3.842  17.045 -0.0965 -0.9527  0.1082
  150DOPC   O3117901   6.236   3.966  16.973 -0.2950  0.2121 -0.1353
  150DOPC   C3117902   6.167   3.996  16.866  0.3214  0.4131  0.1783
  150DOPC   O3217903   6.065   3.938  16.826 -0.3984  0.5746 -0.1858
  150DOPC   C3217904   6.236   4.104  16.794  0.6571  0.3496 -0.2431
  150DOPC   H2X17905   6.174   4.146  16.711  0.2853 -2.7535 -1.6681
  150DOPC   H2Y17906   6.259   4.180  16.872  2.2206 -1.2397  0.9050
  150DOPC   C2317907   5.916   3.517  16.683 -0.2818 -0.2724  0.4620
  150DOPC   H3R17908   5.894   3.450  16.769 -0.6151 -0.8218 -0.0470
  150DOPC   H3S17909   5.915   3.446  16.598  0.1745 -0.3128  0.4897
  150DOPC   C2417910   5.813   3.624  16.659  0.2278  0.2248  0.0598
  150DOPC   H4R17911   5.843   3.683  16.570 -0.6030  0.5473 -0.0128
  150DOPC   H4S17912   5.800   3.688  16.749  2.0897  0.8893 -0.1007
  150DOPC   C2517913   5.677   3.561  16.618 -0.0954 -0.4956  0.1737
  150DOPC   H5R17914   5.650   3.506  16.711 -1.2037  0.6264  0.5380
  150DOPC   H5S17915   5.688   3.493  16.530  0.3732 -0.8201  0.4768
  150DOPC   C2617916   5.577   3.673  16.571 -0.4828 -0.4493  0.0905
  150DOPC   H6R17917   5.637   3.743  16.509 -0.5419 -1.7278 -1.4867
  150DOPC   H6S17918   5.544   3.721  16.665  1.6507  1.1477  0.0889
  150DOPC   C2717919   5.454   3.626  16.498  0.4130  0.2086  0.2645
  150DOPC   H7R17920   5.420   3.527  16.535  1.4170  0.0939  0.9165
  150DOPC   H7S17921   5.487   3.603  16.395  0.8563  1.5648  0.0817
  150DOPC   C2817922   5.329   3.726  16.497 -0.8143 -0.3196 -0.1737
  150DOPC   H8R17923   5.366   3.815  16.441 -1.4978  0.1245  0.0790
  150DOPC   H8S17924   5.313   3.755  16.603  3.0601  0.9716  0.2422
  150DOPC   C2917925   5.219   3.658  16.430 -0.2675 -0.5089 -0.2235
  150DOPC   H9R17926   5.159   3.586  16.488 -1.1944  0.9927  0.7377
  150DOPC  C21017927   5.187   3.679  16.301  0.9144 -0.7057  0.2537
  150DOPC  H10R17928   5.100   3.629  16.256  0.6921 -0.2948  0.2191
  150DOPC  C21117929   5.263   3.765  16.196  0.3276 -0.1218  0.0676
  150DOPC  H11R17930   5.287   3.870  16.224 -2.6669  1.2772 -2.0696
  150DOPC  H11S17931   5.204   3.767  16.102  0.5286 -1.2207 -0.0971
  150DOPC  C21217932   5.386   3.684  16.138 -0.3101  0.3139  0.2819
  150DOPC  H12R17933   5.341   3.599  16.082  0.3252  1.2494 -1.7532
  150DOPC  H12S17934   5.457   3.650  16.216  1.2944 -0.8046 -1.5666
  150DOPC  C21317935   5.480   3.769  16.044  0.7081 -0.5637 -0.1372
  150DOPC  H13R17936   5.418   3.816  15.964 -1.1685  0.0195  1.5835
  150DOPC  H13S17937   5.555   3.697  16.005  1.9904  0.6098  0.0710
  150DOPC  C21417938   5.563   3.876  16.120 -0.0854 -0.1655  0.1220
  150DOPC  H14R17939   5.491   3.939  16.177 -1.0916 -0.4300 -0.8160
  150DOPC  H14S17940   5.614   3.944  16.050  2.5534 -2.5165 -0.4115
  150DOPC  C21517941   5.678   3.813  16.200  0.2676 -0.3946 -0.0096
  150DOPC  H15R17942   5.732   3.736  16.141  0.3211  0.8291 -1.6684
  150DOPC  H15S17943   5.634   3.765  16.289 -1.2913  0.5931 -0.2046
  150DOPC  C21617944   5.784   3.916  16.246  0.1558  0.1855 -0.8568
  150DOPC  H16R17945   5.727   3.996  16.298 -1.6227  0.0354 -2.4764
  150DOPC  H16S17946   5.827   3.972  16.161  1.5125 -0.9507 -0.9440
  150DOPC  C21717947   5.893   3.845  16.327  0.1286  0.1367 -0.1949
  150DOPC  H17R17948   5.982   3.850  16.261 -0.7632  1.1386 -1.3841
  150DOPC  H17S17949   5.861   3.746  16.367 -1.9284  0.4957 -0.8271
  150DOPC  C21817950   5.926   3.935  16.449  0.1157 -0.1745  0.2957
  150DOPC  H18R17951   6.001   3.899  16.523  0.5761 -1.2537 -0.6566
  150DOPC  H18S17952   5.838   3.964  16.511 -1.1924 -1.3845 -0.9189
  150DOPC  H18T17953   5.956   4.036  16.415 -0.7957 -0.2459 -0.7727
  150DOPC   C3317954   6.370   4.068  16.727 -0.7883 -0.2687  0.0575
  150DOPC   H3X17955   6.434   4.019  16.803 -1.3918  0.0490  0.7892
  150DOPC   H3Y17956   6.429   4.152  16.685 -0.1615 -1.3819 -1.3734
  150DOPC   C3417957   6.353   3.976  16.601 -0.2017 -0.1076 -0.8395
  150DOPC   H4X17958   6.281   3.896  16.627  0.5849 -0.6904 -0.3904
  150DOPC   H4Y17959   6.452   3.937  16.568 -0.2434  0.5733 -1.8264
  150DOPC   C3517960   6.294   4.049  16.478 -0.4917  0.3224 -0.4557
  150DOPC   H5X17961   6.347   4.139  16.441 -0.5188  0.7761  0.5686
  150DOPC   H5Y17962   6.194   4.085  16.511 -0.3721 -0.9261  1.4163
  150DOPC   C3617963   6.283   3.952  16.360  0.0578  0.3416 -0.2200
  150DOPC   H6X17964   6.231   3.857  16.388  1.0089 -0.1706 -0.1520
  150DOPC   H6Y17965   6.227   3.999  16.276  2.4557 -0.6324 -2.4887
  150DOPC   C3717966   6.424   3.917  16.300  0.7108 -0.2363 -0.5319
  150DOPC   H7X17967   6.500   3.987  16.339  2.0120 -2.0262  0.2720
  150DOPC   H7Y17968   6.455   3.814  16.327  1.3718 -0.8787 -3.4050
  150DOPC   C3817969   6.433   3.923  16.145  0.1901  0.0290  0.0942
  150DOPC   H8X17970   6.535   3.894  16.111  0.8494  1.1402  1.0807
  150DOPC   H8Y17971   6.425   4.030  16.118 -0.2710  0.4338  1.7712
  150DOPC   C3917972   6.333   3.836  16.073  0.2515 -0.4862 -0.1379
  150DOPC   H9X17973   6.252   3.792  16.132 -1.1876 -1.9078 -2.9408
  150DOPC  C31017974   6.351   3.776  15.955  0.0450 -0.0616 -0.1918
  150DOPC  H10X17975   6.261   3.733  15.909  0.0483 -0.9969  0.6398
  150DOPC  C31117976   6.478   3.785  15.872 -0.1413  1.1478  0.3623
  150DOPC  H11X17977   6.507   3.689  15.824 -0.3348  1.1145  0.3144
  150DOPC  H11Y17978   6.567   3.822  15.928  0.9949 -0.8766 -0.0111
  150DOPC  C31217979   6.461   3.883  15.751  0.1993 -0.0961 -0.2995
  150DOPC  H12X17980   6.555   3.912  15.700 -0.7849  0.8374 -1.6406
  150DOPC  H12Y17981   6.438   3.976  15.808 -2.1370 -1.9871  2.1536
  150DOPC  C31317982   6.351   3.844  15.647 -0.5575  0.1801  0.4631
  150DOPC  H13X17983   6.370   3.743  15.604 -2.7514 -2.1376  4.3107
  150DOPC  H13Y17984   6.256   3.834  15.703 -0.9003  3.2030  0.5593
  150DOPC  C31417985   6.335   3.953  15.544 -0.5250 -0.0036  0.2114
  150DOPC  H14X17986   6.323   4.053  15.590 -0.9470 -0.8069  1.9494
  150DOPC  H14Y17987   6.421   3.957  15.473  0.0455 -0.6743  0.8387
  150DOPC  C31517988   6.216   3.929  15.462  0.4377  0.3599  0.5760
  150DOPC  H15X17989   6.126   3.889  15.514 -1.3779  2.6999 -0.5965
  150DOPC  H15Y17990   6.230   3.854  15.381  1.1966  0.6037  0.4672
  150DOPC  C31617991   6.162   4.051  15.398  0.5838 -0.3106 -0.6371
  150DOPC  H16X17992   6.156   4.133  15.473 -2.2402  0.9020 -2.0120
  150DOPC  H16Y17993   6.230   4.084  15.317  1.8838 -0.8394  0.2006
  150DOPC  C31717994   6.020   4.024  15.325 -0.2256  0.0475 -0.1592
  150DOPC  H17X17995   6.039   3.956  15.239  1.0824  1.1498 -0.7840
  150DOPC  H17Y17996   5.967   3.972  15.407 -0.8579 -2.3251 -1.9761
  150DOPC  C31817997   5.950   4.153  15.280 -0.5465  0.2644 -0.4577
  150DOPC  H18X17998   5.846   4.138  15.244 -0.5793 -0.7388  0.0127
  150DOPC  H18Y17999   5.943   4.229  15.361  2.5008 -0.5610  0.7252
  150DOPC  H18Z18000   6.014   4.208  15.207 -0.4841 -1.5206 -1.8084
  151DOPC     N18001   1.130   4.111  16.832 -0.2336  0.1882  0.0482
  151DOPC   C1218002   1.182   4.084  16.689 -0.6218 -0.0913  0.2019
  151DOPC  H12A18003   1.190   4.177  16.634  1.2812  1.3965  2.7584
  151DOPC  H12B18004   1.109   4.025  16.636 -0.9868  0.6740 -0.1557
  151DOPC   C1318005   1.095   3.985  16.894 -0.2241  0.4136  0.0657
  151DOPC  H13A18006   1.058   3.997  16.995 -0.0622  1.3729  0.0140
  151DOPC  H13B18007   1.016   3.933  16.842 -3.3110  0.6190  4.0651
  151DOPC  H13C18008   1.182   3.920  16.892  0.9371  1.8802  0.9163
  151DOPC   C1418009   1.010   4.192  16.817  0.7524 -0.0476  0.0544
  151DOPC  H14A18010   0.942   4.138  16.752 -0.6750  2.4441 -0.6630
  151DOPC  H14B18011   0.948   4.197  16.905 -1.6572  0.2779 -1.5621
  151DOPC  H14C18012   1.027   4.289  16.772 -2.4431  1.2802  1.3860
  151DOPC   C1518013   1.228   4.185  16.910  0.3105 -0.5862 -0.0273
  151DOPC  H15A18014   1.265   4.270  16.855  0.7708 -1.3428 -0.9164
  151DOPC  H15B18015   1.308   4.117  16.934  0.5203 -0.0707  0.7752
  151DOPC  H15C18016   1.179   4.213  17.003  0.3204 -1.4902  0.2617
  151DOPC   C1118017   1.318   4.009  16.690  0.3501  0.2963  0.7437
  151DOPC  H11A18018   1.351   4.017  16.584 -2.5423  0.1521 -0.2525
  151DOPC  H11B18019   1.391   4.066  16.751 -1.7146  2.3269  1.4314
  151DOPC     P18020   1.295   3.753  16.655 -0.0650  0.0498  0.3776
  151DOPC   O1318021   1.156   3.747  16.596 -0.0147  0.2217  0.0481
  151DOPC   O1418022   1.347   3.632  16.734  1.2624 -0.5230 -0.1913
  151DOPC   O1218023   1.312   3.880  16.744 -0.3458  0.4012  0.1892
  151DOPC   O1118024   1.397   3.786  16.543  0.1072  0.0322  1.2507
  151DOPC    C118025   1.381   3.753  16.403  0.3251  0.7710  0.2468
  151DOPC    HA18026   1.437   3.832  16.348  0.0922  0.8825  0.1657
  151DOPC    HB18027   1.273   3.743  16.376  0.4668 -3.5926  0.5512
  151DOPC    C218028   1.451   3.615  16.368 -0.4183 -0.8135 -0.0733
  151DOPC    HS18029   1.402   3.534  16.426 -0.3098 -0.4042  0.5976
  151DOPC   O2118030   1.593   3.636  16.404  0.1163  0.1955 -0.2517
  151DOPC   C2118031   1.666   3.524  16.402  0.6964 -0.2794  0.3561
  151DOPC   O2218032   1.621   3.412  16.389 -0.0090 -0.1570 -0.6749
  151DOPC   C2218033   1.814   3.568  16.404  0.4845  0.0579 -0.5698
  151DOPC   H2R18034   1.872   3.473  16.397 -0.4627 -0.5261 -0.5772
  151DOPC   H2S18035   1.830   3.617  16.503 -3.2156 -1.3427  0.8835
  151DOPC    C318036   1.417   3.586  16.209  0.6806  0.2845 -0.0691
  151DOPC    HX18037   1.452   3.485  16.177 -2.1193 -0.5900 -0.6960
  151DOPC    HY18038   1.467   3.663  16.147 -1.6511  0.2810 -2.0979
  151DOPC   O3118039   1.281   3.598  16.178  0.4774 -0.4690 -0.4633
  151DOPC   C3118040   1.209   3.493  16.212  0.8549 -0.1479  0.8131
  151DOPC   O3218041   1.249   3.394  16.266  0.2465  0.2361 -0.3595
  151DOPC   C3218042   1.068   3.512  16.148 -0.9036 -0.1589 -0.5226
  151DOPC   H2X18043   1.005   3.561  16.225 -0.9898 -1.0354 -0.0234
  151DOPC   H2Y18044   1.069   3.586  16.065  0.3577  0.7231  0.2460
  151DOPC   C2318045   1.839   3.667  16.284 -0.0142 -0.3499  0.0064
  151DOPC   H3R18046   1.905   3.743  16.331 -1.6009  1.7910 -1.0289
  151DOPC   H3S18047   1.747   3.723  16.257 -1.9554 -2.5880  1.5640
  151DOPC   C2418048   1.901   3.598  16.161  0.1359  0.0475 -0.0965
  151DOPC   H4R18049   1.871   3.491  16.149  1.5385 -0.2915 -0.8789
  151DOPC   H4S18050   2.012   3.599  16.173 -0.0702 -0.9893  2.8766
  151DOPC   C2518051   1.866   3.671  16.031 -0.1589  0.9646 -0.2025
  151DOPC   H5R18052   1.919   3.768  16.025  0.2456  0.8964  1.7168
  151DOPC   H5S18053   1.756   3.689  16.032 -0.4102 -0.4277 -0.2515
  151DOPC   C2618054   1.914   3.592  15.909  0.0833 -0.0912 -0.3666
  151DOPC   H6R18055   1.860   3.495  15.904 -0.1893 -0.0128  0.8026
  151DOPC   H6S18056   2.021   3.565  15.917  0.6171  1.4314 -1.8495
  151DOPC   C2718057   1.883   3.675  15.783 -1.0238 -0.4488  0.5784
  151DOPC   H7R18058   1.939   3.770  15.797 -1.9755  0.0639  0.9796
  151DOPC   H7S18059   1.773   3.690  15.793 -0.9578 -0.5899  1.6317
  151DOPC   C2818060   1.919   3.606  15.648 -0.1849  0.1105 -0.0786
  151DOPC   H8R18061   2.024   3.576  15.667  0.1152  0.6136 -0.8752
  151DOPC   H8S18062   1.924   3.692  15.579 -1.8616  1.4743  1.4186
  151DOPC   C2918063   1.842   3.495  15.582 -0.1244 -0.6310  0.8366
  151DOPC   H9R18064   1.868   3.394  15.617 -1.8994 -1.9393 -1.3503
  151DOPC  C21018065   1.739   3.505  15.488 -1.0162  0.5073 -0.0916
  151DOPC  H10R18066   1.692   3.413  15.449  0.9178 -1.0487  1.0710
  151DOPC  C21118067   1.680   3.640  15.441  0.0239 -0.0564  0.2624
  151DOPC  H11R18068   1.720   3.656  15.339 -0.5657  0.4089  0.0951
  151DOPC  H11S18069   1.708   3.727  15.503 -2.1756  1.9179 -1.3279
  151DOPC  C21218070   1.530   3.654  15.441  0.5049  0.8754  0.7728
  151DOPC  H12R18071   1.499   3.755  15.405  2.3068  1.5351  0.9617
  151DOPC  H12S18072   1.495   3.644  15.545  1.6386 -1.1153  1.0143
  151DOPC  C21318073   1.464   3.555  15.345 -0.1764 -0.0666  0.1178
  151DOPC  H13R18074   1.496   3.454  15.378  0.9176  0.1635 -0.2045
  151DOPC  H13S18075   1.487   3.567  15.237 -0.2017  2.1892  0.3039
  151DOPC  C21418076   1.312   3.568  15.359  0.3588 -0.0074  0.7561
  151DOPC  H14R18077   1.278   3.521  15.454 -0.8350 -2.9045 -0.9499
  151DOPC  H14S18078   1.264   3.501  15.285 -0.8595  1.2512  0.3668
  151DOPC  C21518079   1.238   3.708  15.349  0.0635 -0.0736 -0.0960
  151DOPC  H15R18080   1.258   3.757  15.251 -1.0035  0.3944 -0.0885
  151DOPC  H15S18081   1.270   3.781  15.426 -0.4569 -1.1783  1.2114
  151DOPC  C21618082   1.091   3.685  15.361  0.3242 -0.7707 -1.1245
  151DOPC  H16R18083   1.062   3.677  15.468  1.1094 -1.1867 -0.9314
  151DOPC  H16S18084   1.074   3.589  15.309  1.2445 -0.6476 -1.6739
  151DOPC  C21718085   1.008   3.785  15.279 -0.0675  0.0849  0.2239
  151DOPC  H17R18086   1.027   3.771  15.170  2.3000 -1.3238  0.7560
  151DOPC  H17S18087   1.047   3.884  15.310  1.3498 -0.5007  0.4223
  151DOPC  C21818088   0.853   3.760  15.293 -0.5910  0.6132 -0.4545
  151DOPC  H18R18089   0.833   3.700  15.385  1.2025  0.5868 -0.0437
  151DOPC  H18S18090   0.808   3.700  15.211  0.5044 -1.5406  0.4491
  151DOPC  H18T18091   0.800   3.855  15.316 -0.8264  0.3929 -0.0717
  151DOPC   C3318092   1.013   3.382  16.083 -0.0203 -0.4238  0.0719
  151DOPC   H3X18093   0.999   3.301  16.159 -2.9940 -0.1184 -0.0098
  151DOPC   H3Y18094   1.084   3.351  16.003  2.1822 -2.2222  2.5364
  151DOPC   C3418095   0.866   3.405  16.039 -0.5496  0.2588 -0.0455
  151DOPC   H4X18096   0.843   3.508  16.075 -1.2398  0.0845  0.0156
  151DOPC   H4Y18097   0.794   3.346  16.099 -0.1662  0.2864  0.4427
  151DOPC   C3518098   0.834   3.390  15.892  0.3059  0.1342  0.2080
  151DOPC   H5X18099   0.768   3.302  15.877  2.8432 -1.6125 -1.5449
  151DOPC   H5Y18100   0.922   3.373  15.826 -0.0059  0.2651 -0.2423
  151DOPC   C3618101   0.773   3.521  15.834  0.3537  0.6834  0.2192
  151DOPC   H6X18102   0.677   3.539  15.887 -0.9110 -1.2195 -1.2742
  151DOPC   H6Y18103   0.840   3.610  15.839 -1.1128  1.7887  0.9012
  151DOPC   C3718104   0.730   3.517  15.687  0.1702  0.1598 -0.4757
  151DOPC   H7X18105   0.811   3.474  15.625  0.7491 -0.2749  0.5516
  151DOPC   H7Y18106   0.646   3.446  15.675  0.7471 -0.4809 -0.8250
  151DOPC   C3818107   0.684   3.655  15.626  1.0684 -0.0981 -0.3666
  151DOPC   H8X18108   0.662   3.618  15.523 -0.2434  0.7805 -0.4221
  151DOPC   H8Y18109   0.763   3.733  15.619  0.3131  0.9136  1.6324
  151DOPC   C3918110   0.560   3.715  15.697  0.0263  0.4455 -0.0431
  151DOPC   H9X18111   0.563   3.701  15.806  1.6395 -1.6526 -0.3027
  151DOPC  C31018112   0.443   3.757  15.644  0.5277 -0.0999  0.2911
  151DOPC  H10X18113   0.360   3.783  15.710  1.4777 -0.2404  1.5735
  151DOPC  C31118114   0.431   3.773  15.493  0.8612 -0.3584 -0.1008
  151DOPC  H11X18115   0.530   3.792  15.446  0.7178 -1.9957 -1.1424
  151DOPC  H11Y18116   0.351   3.845  15.467  2.2386  0.4974 -2.2496
  151DOPC  C31218117   0.382   3.651  15.412 -0.1149 -0.6272  0.1596
  151DOPC  H12X18118   0.282   3.615  15.447 -0.9164 -0.4172 -1.7880
  151DOPC  H12Y18119   0.453   3.567  15.428 -1.1288 -1.2547  1.6824
  151DOPC  C31318120   0.394   3.683  15.263 -0.2031 -0.0230 -0.2999
  151DOPC  H13X18121   0.317   3.761  15.247  1.0651  1.4533  0.4823
  151DOPC  H13Y18122   0.496   3.712  15.229  0.1256 -1.1729 -0.3618
  151DOPC  C31418123   0.344   3.561  15.194  0.6334 -0.5196  0.0804
  151DOPC  H14X18124   0.426   3.488  15.177  0.0217 -1.1203 -0.3289
  151DOPC  H14Y18125   0.270   3.498  15.248  1.6586 -0.3186  1.7871
  151DOPC  C31518126   0.296   3.597  15.056 -0.3033 -0.6823 -0.2655
  151DOPC  H15X18127   0.388   3.620  14.999  0.4544  0.7840  1.4706
  151DOPC  H15Y18128   0.229   3.686  15.055  0.6308  0.0811 -2.5458
  151DOPC  C31618129   0.237   3.470  14.978 -0.1596 -0.2003 -0.4290
  151DOPC  H16X18130   0.189   3.513  14.887 -0.6514  3.7444  1.4726
  151DOPC  H16Y18131   0.320   3.406  14.939  0.1996  0.3857 -0.6366
  151DOPC  C31718132   0.134   3.377  15.051  0.8337 -0.2709  0.0045
  151DOPC  H17X18133   0.191   3.322  15.129  2.3493  1.3388  0.0910
  151DOPC  H17Y18134   0.058   3.444  15.096  1.7182 -0.1057  1.2939
  151DOPC  C31818135   0.057   3.278  14.967  0.3160  0.2200 -0.5260
  151DOPC  H18X18136  -0.027   3.233  15.024  2.3279 -0.0235  2.4985
  151DOPC  H18Y18137   0.011   3.333  14.882  0.4579  1.0743 -0.0698
  151DOPC  H18Z18138   0.125   3.199  14.930 -1.0946 -1.1607 -0.2664
  152DOPC     N18139   3.778   0.773  17.103 -0.2149 -0.5419 -0.1727
  152DOPC   C1218140   3.681   0.825  16.996  0.0778 -0.0557 -0.1882
  152DOPC  H12A18141   3.687   0.933  16.994  1.9251 -0.0730  1.5590
  152DOPC  H12B18142   3.585   0.789  17.030  0.4737 -0.6104  0.3510
  152DOPC   C1318143   3.752   0.635  17.139  0.0092  0.0070  0.0569
  152DOPC  H13A18144   3.838   0.598  17.192 -1.1987 -1.4630  1.0549
  152DOPC  H13B18145   3.665   0.619  17.201  1.4461 -1.9892  1.6409
  152DOPC  H13C18146   3.751   0.565  17.056 -0.1601  0.4246 -0.3029
  152DOPC   C1418147   3.783   0.852  17.228  0.4990 -0.9045 -0.0011
  152DOPC  H14A18148   3.859   0.819  17.297 -1.0694  0.4210  2.5273
  152DOPC  H14B18149   3.806   0.955  17.203  0.5024 -1.1971 -1.2751
  152DOPC  H14C18150   3.685   0.858  17.273 -0.9121 -0.4556 -2.9003
  152DOPC   C1518151   3.922   0.776  17.049  0.8225  0.1425  0.4960
  152DOPC  H15A18152   3.930   0.728  16.952  4.7341 -0.1124  0.7727
  152DOPC  H15B18153   3.987   0.732  17.123  2.6661 -0.0488 -1.1610
  152DOPC  H15C18154   3.938   0.882  17.035 -0.4674  0.4186  0.9319
  152DOPC   C1118155   3.714   0.769  16.856 -0.0483  0.5980  0.0345
  152DOPC  H11A18156   3.643   0.814  16.783  1.5780  0.1941 -1.8869
  152DOPC  H11B18157   3.810   0.805  16.812 -1.5633  0.6308 -3.5951
  152DOPC     P18158   3.623   0.536  16.781  0.5770 -0.2526  0.0145
  152DOPC   O1318159   3.481   0.572  16.813  0.1371  0.0847  0.7253
  152DOPC   O1418160   3.660   0.398  16.806 -0.3377 -0.0219 -0.5263
  152DOPC   O1218161   3.725   0.634  16.850 -0.3861 -0.0330  0.1823
  152DOPC   O1118162   3.643   0.571  16.628 -0.1870  0.0032  0.4791
  152DOPC    C118163   3.776   0.567  16.569  0.1273 -0.2547  0.3069
  152DOPC    HA18164   3.858   0.567  16.644 -0.4036 -2.3772  0.9574
  152DOPC    HB18165   3.790   0.643  16.489 -1.0160 -1.0467 -0.6719
  152DOPC    C218166   3.800   0.431  16.498 -0.5721  1.1898 -0.1885
  152DOPC    HS18167   3.788   0.356  16.579 -0.4123  3.5471  2.1648
  152DOPC   O2118168   3.941   0.436  16.454 -0.4653  0.5447 -0.2427
  152DOPC   C2118169   3.996   0.314  16.427  0.2947 -0.3285  0.5901
  152DOPC   O2218170   3.962   0.212  16.477  0.5524  0.6780  0.1560
  152DOPC   C2218171   4.108   0.333  16.325 -0.0212 -0.4383 -0.3113
  152DOPC   H2R18172   4.189   0.394  16.371 -2.1952  0.3903  2.6868
  152DOPC   H2S18173   4.071   0.393  16.240  0.8145 -0.8983 -1.0247
  152DOPC    C318174   3.703   0.418  16.380  0.2308  0.3678 -0.4114
  152DOPC    HX18175   3.724   0.505  16.314 -1.5100  2.0283  1.0943
  152DOPC    HY18176   3.602   0.423  16.426  0.6661 -1.1921  0.7617
  152DOPC   O3118177   3.731   0.301  16.305 -0.3512  0.3179  0.0749
  152DOPC   C3118178   3.670   0.188  16.358 -0.7566 -0.5105 -0.1014
  152DOPC   O3218179   3.615   0.192  16.468 -0.2996 -0.2443  0.0674
  152DOPC   C3218180   3.678   0.073  16.256 -0.4964 -0.2516  0.1950
  152DOPC   H2X18181   3.668  -0.021  16.315  0.8065  0.3233  1.3966
  152DOPC   H2Y18182   3.589   0.095  16.194 -0.6626  0.5952  0.7118
  152DOPC   C2318183   4.171   0.194  16.281  0.1596 -0.1552  0.3120
  152DOPC   H3R18184   4.086   0.132  16.244 -1.6861  2.1151  0.5075
  152DOPC   H3S18185   4.207   0.148  16.376  0.8712 -0.9417 -0.3300
  152DOPC   C2418186   4.281   0.202  16.180 -0.4332  0.3103 -0.3702
  152DOPC   H4R18187   4.317   0.098  16.163 -0.7307  0.1255  0.1302
  152DOPC   H4S18188   4.370   0.259  16.215 -0.7796 -0.3565  1.7736
  152DOPC   C2518189   4.240   0.253  16.043 -0.5608  0.0373 -1.0737
  152DOPC   H5R18190   4.217   0.359  16.065 -1.6568 -0.5829  1.0492
  152DOPC   H5S18191   4.147   0.214  15.995 -0.8614  0.2813 -0.6969
  152DOPC   C2618192   4.363   0.255  15.959  0.8326 -0.1884 -0.7051
  152DOPC   H6R18193   4.378   0.148  15.930 -1.2418 -0.3763 -1.2349
  152DOPC   H6S18194   4.452   0.301  16.008 -1.8607  1.3500  3.2364
  152DOPC   C2718195   4.340   0.326  15.830  1.1806  0.2424 -0.0782
  152DOPC   H7R18196   4.281   0.419  15.845 -1.9822 -1.5759 -0.4935
  152DOPC   H7S18197   4.269   0.257  15.781 -1.2702 -0.5103  4.0356
  152DOPC   C2818198   4.461   0.352  15.745  0.2177  0.0723 -0.1627
  152DOPC   H8R18199   4.512   0.255  15.725  0.5970  0.4391 -1.0578
  152DOPC   H8S18200   4.536   0.413  15.798  0.2137 -0.0638 -0.0009
  152DOPC   C2918201   4.419   0.409  15.612  0.2516  0.3506  0.5326
  152DOPC   H9R18202   4.406   0.518  15.613  1.9664  0.5847  0.4691
  152DOPC  C21018203   4.398   0.345  15.496  0.5645  0.0405 -0.2180
  152DOPC  H10R18204   4.351   0.403  15.415 -0.7925 -0.5378  0.1401
  152DOPC  C21118205   4.436   0.205  15.458 -0.2065 -0.9063 -0.4104
  152DOPC  H11R18206   4.348   0.140  15.471 -1.3570  0.8350  1.0182
  152DOPC  H11S18207   4.514   0.158  15.522  0.8013  1.3104  0.1181
  152DOPC  C21218208   4.476   0.183  15.306 -0.4706 -0.1742  0.7278
  152DOPC  H12R18209   4.512   0.079  15.294  0.6390  0.2424  0.2376
  152DOPC  H12S18210   4.562   0.251  15.283  0.6986 -1.7519  0.2780
  152DOPC  C21318211   4.359   0.207  15.203  0.3849 -0.4298  0.3398
  152DOPC  H13R18212   4.317   0.308  15.223  2.2918  0.7995 -1.3958
  152DOPC  H13S18213   4.275   0.136  15.222 -0.0272 -0.0134  0.0815
  152DOPC  C21418214   4.401   0.207  15.054 -0.0301 -0.0252 -0.6424
  152DOPC  H14R18215   4.434   0.108  15.018  2.8531  0.4242  0.4928
  152DOPC  H14S18216   4.489   0.274  15.042  0.2023 -0.5237 -1.8143
  152DOPC  C21518217   4.284   0.257  14.968  0.2455 -0.6188  0.0507
  152DOPC  H15R18218   4.246   0.351  15.012 -1.0617 -1.7775  1.5235
  152DOPC  H15S18219   4.209   0.175  14.969  0.0748 -0.4557  0.8920
  152DOPC  C21618220   4.314   0.271  14.819 -0.3409  0.4750 -0.1770
  152DOPC  H16R18221   4.401   0.338  14.804  1.5071 -1.7769  0.0276
  152DOPC  H16S18222   4.223   0.311  14.769  0.4711  1.6074 -0.7950
  152DOPC  C21718223   4.359   0.139  14.746 -0.1270 -0.0691  0.0297
  152DOPC  H17R18224   4.273   0.070  14.735 -0.4996  0.2227  1.0348
  152DOPC  H17S18225   4.437   0.088  14.806  0.8416  0.6381 -0.6050
  152DOPC  C21818226   4.411   0.167  14.605 -0.1379 -0.2594  0.2089
  152DOPC  H18R18227   4.425   0.070  14.552  2.3794 -0.5225  1.2154
  152DOPC  H18S18228   4.512   0.213  14.614  0.1591 -0.6387 -0.9553
  152DOPC  H18T18229   4.343   0.239  14.555  0.0534  0.8098  1.4481
  152DOPC   C3318230   3.790   0.083  16.145 -0.2596  0.7397 -0.2570
  152DOPC   H3X18231   3.884   0.036  16.179 -0.3687  0.4522 -0.3496
  152DOPC   H3Y18232   3.812   0.187  16.111  0.6919  1.0392  1.1817
  152DOPC   C3418233   3.740   0.011  16.021  0.4462  0.0455  0.2072
  152DOPC   H4X18234   3.639   0.050  15.997 -0.8592 -2.9804  0.4045
  152DOPC   H4Y18235   3.732  -0.094  16.057  0.9134  0.2842  1.0409
  152DOPC   C3518236   3.839   0.017  15.902  0.8278 -0.9894 -0.2929
  152DOPC   H5X18237   3.920  -0.048  15.939 -0.3695 -2.8271 -0.7840
  152DOPC   H5Y18238   3.872   0.123  15.898  0.1594 -0.6516  1.8079
  152DOPC   C3618239   3.762  -0.023  15.773 -0.1068 -0.0639 -0.8283
  152DOPC   H6X18240   3.714  -0.117  15.808  1.8344 -0.3694  1.2606
  152DOPC   H6Y18241   3.681   0.050  15.751  1.7684  1.6717 -2.3594
  152DOPC   C3718242   3.850  -0.057  15.654  0.0238 -0.9043 -0.5087
  152DOPC   H7X18243   3.905   0.033  15.619 -1.5408 -0.2060 -1.2682
  152DOPC   H7Y18244   3.922  -0.131  15.693 -0.5132 -1.5851 -0.7832
  152DOPC   C3818245   3.769  -0.113  15.537  0.3684  0.3190  0.7135
  152DOPC   H8X18246   3.700  -0.197  15.560 -0.6038 -0.2037 -3.4557
  152DOPC   H8Y18247   3.846  -0.168  15.479 -0.0239 -1.5575  1.8684
  152DOPC   C3918248   3.706   0.001  15.458 -0.1595  0.5869  0.3099
  152DOPC   H9X18249   3.754   0.098  15.474  0.3142  0.4130 -0.0192
  152DOPC  C31018250   3.587   0.007  15.382 -0.0141  0.2343 -0.8585
  152DOPC  H10X18251   3.574   0.079  15.300 -2.6694 -1.8411 -2.4508
  152DOPC  C31118252   3.487  -0.111  15.357 -0.5061  0.3237  0.8286
  152DOPC  H11X18253   3.467  -0.151  15.459  1.6079 -0.5624  0.9630
  152DOPC  H11Y18254   3.529  -0.196  15.299  0.5716  1.2296  0.2359
  152DOPC  C31218255   3.365  -0.068  15.278  0.4397 -0.6232 -0.3375
  152DOPC  H12X18256   3.319   0.023  15.322  3.0265  1.0242 -0.7842
  152DOPC  H12Y18257   3.298  -0.156  15.281 -1.4611  0.6810 -1.9194
  152DOPC  C31318258   3.390  -0.031  15.127 -0.1248 -0.7411  0.2557
  152DOPC  H13X18259   3.440   0.068  15.127 -0.4517 -0.5702 -0.4441
  152DOPC  H13Y18260   3.469  -0.102  15.093 -1.4020 -1.5756 -1.1118
  152DOPC  C31418261   3.270  -0.037  15.035  0.0384 -0.1745 -0.2054
  152DOPC  H14X18262   3.205  -0.123  15.063 -0.5432  0.9103  2.1135
  152DOPC  H14Y18263   3.212   0.056  15.055 -1.7601 -1.4380  0.7132
  152DOPC  C31518264   3.292  -0.038  14.885 -0.0206  0.4014  0.0537
  152DOPC  H15X18265   3.371   0.040  14.876 -0.2140  0.9034  2.1653
  152DOPC  H15Y18266   3.208   0.009  14.831  0.9115  3.2613  0.8843
  152DOPC  C31618267   3.348  -0.169  14.832  0.5557  0.1949 -0.3359
  152DOPC  H16X18268   3.426  -0.199  14.905 -0.7626  0.1815  1.1237
  152DOPC  H16Y18269   3.272  -0.248  14.852  1.0614  0.3596  2.7753
  152DOPC  C31718270   3.382  -0.149  14.684 -0.1626 -0.8443  1.1499
  152DOPC  H17X18271   3.420  -0.047  14.663  0.5936 -1.7545 -2.4721
  152DOPC  H17Y18272   3.473  -0.207  14.659 -0.1265 -0.1164 -0.5206
  152DOPC  C31818273   3.263  -0.182  14.583 -0.1299  0.5086 -0.4610
  152DOPC  H18X18274   3.210  -0.270  14.624  0.8520  0.1740  0.0974
  152DOPC  H18Y18275   3.203  -0.090  14.563 -1.7524  0.0261  1.8251
  152DOPC  H18Z18276   3.300  -0.219  14.485  0.3104 -1.3627  0.3746
  153DOPC     N18277   4.733   5.802  17.076  0.2260 -0.7915  0.2457
  153DOPC   C1218278   4.826   5.873  16.968 -0.2880  1.0820 -0.5779
  153DOPC  H12A18279   4.886   5.950  17.015  0.7321 -0.5224  0.8593
  153DOPC  H12B18280   4.766   5.931  16.900 -2.1806  0.1823  0.2352
  153DOPC   C1318281   4.725   5.902  17.194 -0.8337  0.2008 -0.2017
  153DOPC  H13A18282   4.637   5.875  17.250 -2.3277 -0.1145 -2.5285
  153DOPC  H13B18283   4.812   5.888  17.255 -2.0861  0.5289  1.7336
  153DOPC  H13C18284   4.718   6.004  17.158  1.4402 -0.2861 -2.2676
  153DOPC   C1418285   4.793   5.676  17.118 -0.4241  0.6227  0.0658
  153DOPC  H14A18286   4.732   5.619  17.187  2.7568 -1.4002  1.4347
  153DOPC  H14B18287   4.823   5.615  17.034 -0.9875  0.1466  0.1984
  153DOPC  H14C18288   4.888   5.700  17.162 -0.0912 -0.1209 -0.2286
  153DOPC   C1518289   4.601   5.763  17.015  0.0433  0.1996  0.1707
  153DOPC  H15A18290   4.618   5.705  16.926  0.9071 -0.5340  0.7976
  153DOPC  H15B18291   4.543   5.844  16.974 -0.9232 -0.9915 -0.9029
  153DOPC  H15C18292   4.539   5.705  17.082 -1.4540  1.3379 -0.1643
  153DOPC   C1118293   4.930   5.785  16.880 -0.2617  0.2840 -0.5392
  153DOPC  H11A18294   4.884   5.687  16.856  0.3378  0.1498 -1.1705
  153DOPC  H11B18295   4.955   5.824  16.779 -0.9912  1.3075 -0.3364
  153DOPC     P18296   5.169   5.853  16.961  0.2032  0.2264  0.2431
  153DOPC   O1318297   5.270   5.807  17.060 -0.1161  0.6165  0.1996
  153DOPC   O1418298   5.111   5.987  16.979  0.0951  0.5592  0.1640
  153DOPC   O1218299   5.051   5.751  16.950 -0.2807 -0.1769 -0.5598
  153DOPC   O1118300   5.229   5.850  16.819  0.0011 -0.3780 -0.0624
  153DOPC    C118301   5.316   5.745  16.780  0.0191  0.1277  0.4228
  153DOPC    HA18302   5.261   5.649  16.784 -3.5353  1.9901  0.1474
  153DOPC    HB18303   5.408   5.733  16.841 -0.1399 -2.6577  0.2369
  153DOPC    C218304   5.360   5.752  16.629  0.4335 -0.3446  0.6138
  153DOPC    HS18305   5.393   5.653  16.590 -1.0955 -0.3530 -0.7989
  153DOPC   O2118306   5.454   5.867  16.608 -0.3068  0.2268  0.0615
  153DOPC   C2118307   5.575   5.825  16.635 -0.2902 -0.4486  0.2548
  153DOPC   O2218308   5.606   5.712  16.664  0.2213  0.1276 -0.0639
  153DOPC   C2218309   5.680   5.938  16.646  0.1458 -0.8083  0.1257
  153DOPC   H2R18310   5.780   5.903  16.613 -0.0478  0.1921 -1.6433
  153DOPC   H2S18311   5.677   5.970  16.753 -1.3459 -0.3838 -0.0146
  153DOPC    C318312   5.229   5.771  16.547  1.1512  0.1675  0.0938
  153DOPC    HX18313   5.203   5.877  16.566 -1.7649 -0.8189  2.3038
  153DOPC    HY18314   5.146   5.719  16.599 -0.6385  0.6941 -2.1004
  153DOPC   O3118315   5.249   5.728  16.412  0.3048  0.6352  0.2891
  153DOPC   C3118316   5.248   5.821  16.313  0.0442  0.8991  0.0553
  153DOPC   O3218317   5.277   5.939  16.323  0.2954 -0.4704 -0.3529
  153DOPC   C3218318   5.202   5.769  16.181  0.9779  0.2629 -0.1131
  153DOPC   H2X18319   5.203   5.659  16.197  3.1291  0.3060  0.4195
  153DOPC   H2Y18320   5.099   5.806  16.165  1.3260  0.4324 -2.2622
  153DOPC   C2318321   5.651   6.061  16.555 -0.3407 -0.5993  0.1068
  153DOPC   H3R18322   5.743   6.123  16.558 -1.2631  0.8872  3.9014
  153DOPC   H3S18323   5.566   6.115  16.603 -0.4469 -0.9628  0.3340
  153DOPC   C2418324   5.614   6.040  16.403  0.0611  0.1801  0.4552
  153DOPC   H4R18325   5.511   5.999  16.400  0.5072 -0.9083 -1.6455
  153DOPC   H4S18326   5.680   5.971  16.347  0.0522  0.4285  0.1370
  153DOPC   C2518327   5.614   6.168  16.322 -0.9756 -0.4475 -0.4558
  153DOPC   H5R18328   5.718   6.204  16.340 -1.3464 -0.2917  1.6724
  153DOPC   H5S18329   5.550   6.249  16.362  0.3746 -0.8655  2.9116
  153DOPC   C2618330   5.575   6.129  16.180 -0.0322 -0.3514  0.0690
  153DOPC   H6R18331   5.467   6.105  16.174  0.2296 -1.2039 -2.0031
  153DOPC   H6S18332   5.635   6.040  16.151 -1.3893 -1.1238 -0.4678
  153DOPC   C2718333   5.615   6.240  16.080 -0.2544 -0.1794  0.2269
  153DOPC   H7R18334   5.722   6.259  16.104  0.5908 -0.2516 -2.9413
  153DOPC   H7S18335   5.549   6.329  16.091 -1.2449 -0.9964  1.0537
  153DOPC   C2818336   5.602   6.195  15.928  0.1087 -0.2940 -0.7422
  153DOPC   H8R18337   5.497   6.174  15.898  0.1923 -1.5156 -0.2350
  153DOPC   H8S18338   5.667   6.105  15.929 -0.9564 -1.1001 -1.3747
  153DOPC   C2918339   5.660   6.305  15.839  0.5126 -0.8719  0.2246
  153DOPC   H9R18340   5.719   6.374  15.900 -2.3997  0.1436  2.1049
  153DOPC  C21018341   5.640   6.329  15.712  0.1992 -0.0368  0.4276
  153DOPC  H10R18342   5.700   6.410  15.667 -1.0495  0.9996  0.5623
  153DOPC  C21118343   5.553   6.237  15.626 -0.3504 -0.2643 -0.2120
  153DOPC  H11R18344   5.553   6.131  15.660  1.2582 -0.4384 -0.6633
  153DOPC  H11S18345   5.585   6.232  15.520 -1.1220 -1.5565 -0.4089
  153DOPC  C21218346   5.408   6.290  15.616  0.3581  0.2756 -0.1670
  153DOPC  H12R18347   5.411   6.382  15.554 -0.5703  0.0252 -0.6035
  153DOPC  H12S18348   5.368   6.319  15.716  0.9444  0.1297  0.1134
  153DOPC  C21318349   5.304   6.194  15.553 -0.1593 -0.0063 -0.2829
  153DOPC  H13R18350   5.210   6.255  15.556  1.7671  3.4003 -2.4287
  153DOPC  H13S18351   5.293   6.101  15.613 -1.0980  1.0867  1.3350
  153DOPC  C21418352   5.343   6.154  15.417  0.4843 -0.1030  0.0568
  153DOPC  H14R18353   5.435   6.091  15.416 -0.4047 -1.4416  0.3932
  153DOPC  H14S18354   5.371   6.243  15.356 -0.1304  0.4058  0.5068
  153DOPC  C21518355   5.234   6.087  15.334 -0.3115 -0.1542  0.3292
  153DOPC  H15R18356   5.145   6.152  15.336  1.0484  1.9157 -1.3376
  153DOPC  H15S18357   5.208   5.995  15.391 -0.0012 -0.5485 -0.1465
  153DOPC  C21618358   5.286   6.061  15.199 -0.2705 -0.4489 -0.0355
  153DOPC  H16R18359   5.374   5.996  15.213  0.9777  1.5032  1.7625
  153DOPC  H16S18360   5.324   6.155  15.154  1.0083 -0.1380  1.5944
  153DOPC  C21718361   5.182   5.997  15.105 -0.2712  0.9780  0.6918
  153DOPC  H17R18362   5.144   5.905  15.154 -0.6125  0.2234 -0.9472
  153DOPC  H17S18363   5.245   5.960  15.022 -1.0949  3.1393 -0.9718
  153DOPC  C21818364   5.079   6.097  15.054  0.2016 -0.3664  0.2436
  153DOPC  H18R18365   4.996   6.102  15.127 -0.5924 -1.2143 -0.5685
  153DOPC  H18S18366   5.040   6.066  14.954  2.1369 -0.2024 -0.6124
  153DOPC  H18T18367   5.134   6.191  15.033 -0.7699 -0.1069 -1.3093
  153DOPC   C3318368   5.294   5.807  16.064  0.1696 -0.3956  0.1718
  153DOPC   H3X18369   5.398   5.779  16.091  0.4878  0.6615  0.1138
  153DOPC   H3Y18370   5.294   5.918  16.058  0.4806 -0.3056  1.4929
  153DOPC   C3418371   5.257   5.754  15.922  0.2892 -0.0043 -0.7973
  153DOPC   H4X18372   5.165   5.804  15.885  0.1842  1.0178  0.7608
  153DOPC   H4Y18373   5.249   5.643  15.927 -0.2612  0.0776  0.4403
  153DOPC   C3518374   5.375   5.778  15.834  1.1900  0.5670  0.4905
  153DOPC   H5X18375   5.472   5.734  15.867  1.5345  0.4876 -0.6010
  153DOPC   H5Y18376   5.384   5.888  15.840  0.8761  0.5888  0.5705
  153DOPC   C3618377   5.358   5.734  15.693 -1.1773  0.0703 -0.1842
  153DOPC   H6X18378   5.364   5.624  15.677 -0.8294  0.1645 -0.7535
  153DOPC   H6Y18379   5.253   5.757  15.664 -0.8080 -0.7463 -2.3809
  153DOPC   C3718380   5.441   5.810  15.584 -0.1995  0.1401  0.5211
  153DOPC   H7X18381   5.441   5.919  15.607  4.1485  0.3068  0.4163
  153DOPC   H7Y18382   5.548   5.783  15.589  0.5993  2.8954  0.0937
  153DOPC   C3818383   5.390   5.778  15.438 -0.0001 -0.3815  0.4413
  153DOPC   H8X18384   5.452   5.844  15.375  0.0190  0.1360  0.9943
  153DOPC   H8Y18385   5.283   5.805  15.421  0.0063 -1.5238 -1.8868
  153DOPC   C3918386   5.396   5.634  15.401  0.1114  0.5746 -0.4520
  153DOPC   H9X18387   5.350   5.564  15.474 -1.0960  0.7896 -0.9719
  153DOPC  C31018388   5.466   5.594  15.295 -0.1199  0.1545  0.0636
  153DOPC  H10X18389   5.476   5.486  15.282  0.1070  0.3392 -1.4149
  153DOPC  C31118390   5.536   5.679  15.199 -0.2769 -0.3188  0.6261
  153DOPC  H11X18391   5.475   5.769  15.178 -0.7032 -0.7725 -0.0998
  153DOPC  H11Y18392   5.535   5.627  15.101 -1.8060 -0.7593  0.8618
  153DOPC  C31218393   5.675   5.716  15.239 -0.0807  0.6993 -0.5397
  153DOPC  H12X18394   5.740   5.644  15.293 -0.4877 -0.1918 -1.2227
  153DOPC  H12Y18395   5.661   5.806  15.303  0.2478  0.9337 -0.7958
  153DOPC  C31318396   5.745   5.782  15.122 -0.3012 -0.3504  0.1198
  153DOPC  H13X18397   5.772   5.701  15.051 -1.7730 -1.5616  0.8785
  153DOPC  H13Y18398   5.669   5.844  15.069 -0.6291 -1.1032 -0.3101
  153DOPC  C31418399   5.868   5.856  15.152 -0.2584  0.2754 -0.4126
  153DOPC  H14X18400   5.860   5.927  15.237 -1.1725  0.0545 -0.3037
  153DOPC  H14Y18401   5.935   5.773  15.183 -0.9379 -0.4802 -0.9686
  153DOPC  C31518402   5.932   5.935  15.036 -0.5546 -0.1910  0.3124
  153DOPC  H15X18403   5.856   6.005  14.996  0.5841  0.2355 -1.2192
  153DOPC  H15Y18404   5.977   5.868  14.959  3.6129  1.0369  1.4062
  153DOPC  C31618405   6.054   6.017  15.074  0.0282 -0.4364 -0.3723
  153DOPC  H16X18406   6.104   6.071  14.991  2.5535 -1.6599  0.2420
  153DOPC  H16Y18407   6.031   6.082  15.162  0.7599  0.2891 -0.7016
  153DOPC  C31718408   6.166   5.923  15.126 -0.1128 -0.0003 -0.1517
  153DOPC  H17X18409   6.130   5.859  15.209 -0.7385 -0.6399 -0.8944
  153DOPC  H17Y18410   6.201   5.855  15.045  0.6571  1.4798 -1.1246
  153DOPC  C31818411   6.290   5.995  15.177 -0.6855 -0.3573 -0.9030
  153DOPC  H18X18412   6.357   5.915  15.215 -0.6742 -0.3772 -0.9662
  153DOPC  H18Y18413   6.341   6.043  15.092 -0.2026  1.9858  0.6179
  153DOPC  H18Z18414   6.262   6.075  15.249  4.5648  0.4188  0.7200
  154DOPC     N18415   6.947   2.742  17.259 -0.4153  0.1461 -0.5741
  154DOPC   C1218416   6.848   2.722  17.139 -0.0670 -0.5490  0.0809
  154DOPC  H12A18417   6.903   2.687  17.053  0.1528  0.3728 -0.1563
  154DOPC  H12B18418   6.808   2.817  17.107  1.3761 -0.2268 -0.8754
  154DOPC   C1318419   7.048   2.844  17.224 -0.6245  0.0905  0.0090
  154DOPC  H13A18420   7.115   2.870  17.304 -0.1685 -2.7010  0.6343
  154DOPC  H13B18421   7.104   2.804  17.141  0.4720 -1.8532  1.6080
  154DOPC  H13C18422   6.994   2.933  17.196 -1.4607 -0.5873 -0.5761
  154DOPC   C1418423   7.016   2.609  17.281 -0.3084 -0.3578  0.2361
  154DOPC  H14A18424   6.942   2.537  17.313 -0.4753 -0.3052 -0.0303
  154DOPC  H14B18425   7.062   2.571  17.192 -1.0748 -0.5912 -0.0707
  154DOPC  H14C18426   7.085   2.617  17.364  1.1762  0.5665 -1.0489
  154DOPC   C1518427   6.875   2.780  17.382  0.0442 -0.3624  0.2490
  154DOPC  H15A18428   6.947   2.805  17.458  0.4560 -1.9049  0.3912
  154DOPC  H15B18429   6.810   2.698  17.408  1.5202 -2.1177 -1.3441
  154DOPC  H15C18430   6.819   2.870  17.361 -0.1338 -0.5356 -0.0293
  154DOPC   C1118431   6.724   2.626  17.157 -0.0188  0.4801 -0.1183
  154DOPC  H11A18432   6.660   2.680  17.230 -0.4087 -0.5856  0.3437
  154DOPC  H11B18433   6.663   2.623  17.064 -0.6613  0.5265  0.2981
  154DOPC     P18434   6.795   2.399  17.071  0.1580 -0.0951 -0.1252
  154DOPC   O1318435   6.887   2.291  17.123 -0.1272 -0.1113 -0.1047
  154DOPC   O1418436   6.846   2.472  16.954 -0.3527  0.8942  0.2342
  154DOPC   O1218437   6.756   2.491  17.194  0.2111  0.0375 -0.3402
  154DOPC   O1118438   6.652   2.342  17.029 -0.0347 -0.0807 -0.0525
  154DOPC    C118439   6.627   2.204  17.007 -0.8164 -0.0952 -0.5110
  154DOPC    HA18440   6.519   2.183  17.013 -0.7756 -0.1172  4.1994
  154DOPC    HB18441   6.670   2.145  17.091 -1.5480  0.5960  0.3655
  154DOPC    C218442   6.684   2.142  16.874 -0.2175  0.6911  0.8452
  154DOPC    HS18443   6.795   2.147  16.879 -0.0655  3.2165 -2.0345
  154DOPC   O2118444   6.622   2.217  16.765  0.4438  0.1537  0.1780
  154DOPC   C2118445   6.704   2.284  16.685 -0.4814 -0.7135 -0.2416
  154DOPC   O2218446   6.825   2.301  16.711  0.8765  0.3594 -0.0930
  154DOPC   C2218447   6.639   2.338  16.552 -0.9459 -0.3678  0.2373
  154DOPC   H2R18448   6.557   2.409  16.579  0.6815  1.7173 -0.0953
  154DOPC   H2S18449   6.586   2.248  16.514 -0.0996 -0.6997 -0.1642
  154DOPC    C318450   6.654   1.989  16.853 -0.0628 -0.3600  0.5611
  154DOPC    HX18451   6.543   1.991  16.851 -0.0604  2.0262 -0.0928
  154DOPC    HY18452   6.692   1.947  16.948 -0.5794  3.0068  2.4244
  154DOPC   O3118453   6.723   1.945  16.733 -0.1542  0.5843 -0.2699
  154DOPC   C3118454   6.661   1.845  16.677  0.4098  0.7705 -0.2709
  154DOPC   O3218455   6.558   1.782  16.714  0.2614 -0.0157  0.1633
  154DOPC   C3218456   6.720   1.839  16.541  0.4331  0.0107 -0.6533
  154DOPC   H2X18457   6.831   1.840  16.539  0.4626 -0.6868  0.1252
  154DOPC   H2Y18458   6.681   1.745  16.496 -1.6549  1.6677 -2.5848
  154DOPC   C2318459   6.750   2.395  16.457  1.0213 -0.5824  0.5438
  154DOPC   H3R18460   6.833   2.322  16.452  0.3689 -1.2501 -1.2802
  154DOPC   H3S18461   6.794   2.492  16.489  3.0468 -0.9894 -0.8450
  154DOPC   C2418462   6.682   2.407  16.316 -0.2424 -0.2707 -0.5602
  154DOPC   H4R18463   6.617   2.496  16.323  0.1982  0.1817 -1.9574
  154DOPC   H4S18464   6.626   2.317  16.282  0.1620 -0.1622 -1.5515
  154DOPC   C2518465   6.790   2.433  16.207  0.3683  0.1428 -0.6249
  154DOPC   H5R18466   6.864   2.350  16.214 -1.0143 -1.0263  0.7341
  154DOPC   H5S18467   6.841   2.527  16.236  1.3417  0.3045 -2.6715
  154DOPC   C2618468   6.739   2.450  16.059 -0.1795 -0.2447 -0.5227
  154DOPC   H6R18469   6.669   2.537  16.065 -0.7771 -0.7921  0.8935
  154DOPC   H6S18470   6.683   2.358  16.033  1.1609 -1.1687 -0.2664
  154DOPC   C2718471   6.860   2.452  15.973  0.0041 -0.4408 -0.3455
  154DOPC   H7R18472   6.935   2.375  15.999  1.8469  1.2160 -0.4958
  154DOPC   H7S18473   6.925   2.542  15.984  1.2880 -1.4596  0.7229
  154DOPC   C2818474   6.822   2.434  15.828  0.4894  0.5838  0.9312
  154DOPC   H8R18475   6.725   2.383  15.810  0.7623  0.0566  0.9584
  154DOPC   H8S18476   6.896   2.371  15.775 -0.5155 -0.3618  0.6120
  154DOPC   C2918477   6.805   2.566  15.754 -0.4885 -0.0399 -0.8369
  154DOPC   H9R18478   6.725   2.629  15.794 -0.9589 -0.9432 -0.3367
  154DOPC  C21018479   6.870   2.600  15.641  0.9343  0.3225 -0.3086
  154DOPC  H10R18480   6.856   2.703  15.603 -0.3436  0.5083  0.6134
  154DOPC  C21118481   6.970   2.516  15.558 -0.4414 -0.0652  0.2599
  154DOPC  H11R18482   7.039   2.457  15.623 -1.1022  0.5722  1.5717
  154DOPC  H11S18483   7.040   2.576  15.495  0.0139 -1.0822 -0.2351
  154DOPC  C21218484   6.897   2.419  15.457 -0.1456 -0.1928  0.6709
  154DOPC  H12R18485   6.831   2.349  15.511 -0.8298 -0.6076 -0.6542
  154DOPC  H12S18486   6.966   2.348  15.406 -1.2560  0.1225 -1.3765
  154DOPC  C21318487   6.817   2.478  15.337 -0.1799 -0.4997 -0.1107
  154DOPC  H13R18488   6.721   2.522  15.370  0.5822  1.0167  0.1590
  154DOPC  H13S18489   6.792   2.391  15.273  0.4297  0.3753 -1.5822
  154DOPC  C21418490   6.897   2.565  15.231  0.2735  0.0122 -0.3581
  154DOPC  H14R18491   6.921   2.664  15.275  0.3433  0.2983 -1.0315
  154DOPC  H14S18492   6.824   2.575  15.148 -0.8586 -0.6575  0.5388
  154DOPC  C21518493   7.019   2.491  15.168 -0.2107  0.1092  0.3079
  154DOPC  H15R18494   6.990   2.397  15.117  3.4443 -0.1640 -1.5746
  154DOPC  H15S18495   7.088   2.460  15.250  0.5093  0.0227 -0.3205
  154DOPC  C21618496   7.102   2.581  15.075 -0.7429  0.1142 -0.0164
  154DOPC  H16R18497   7.193   2.524  15.045 -0.2878  1.2120 -0.7877
  154DOPC  H16S18498   7.142   2.667  15.132  2.0056 -0.2739 -1.1880
  154DOPC  C21718499   7.030   2.620  14.948  0.2070 -0.1900  0.8051
  154DOPC  H17R18500   6.932   2.667  14.971 -0.2335 -0.7718  0.1460
  154DOPC  H17S18501   7.016   2.527  14.888  1.0822  0.2524 -0.1036
  154DOPC  C21818502   7.119   2.728  14.867  0.4100 -0.3141  0.0754
  154DOPC  H18R18503   7.094   2.831  14.900 -1.1246 -0.6511  0.0651
  154DOPC  H18S18504   7.109   2.707  14.759  3.4148 -2.6773  0.1248
  154DOPC  H18T18505   7.225   2.711  14.894  0.5756 -0.6216 -0.7402
  154DOPC   C3318506   6.668   1.948  16.444  0.0881  0.3550  0.8801
  154DOPC   H3X18507   6.733   2.034  16.472  1.2588 -0.6904  1.5193
  154DOPC   H3Y18508   6.566   1.985  16.469  1.1270  3.3161  1.1828
  154DOPC   C3418509   6.691   1.907  16.299  0.0217 -0.0578  0.7399
  154DOPC   H4X18510   6.685   1.798  16.279 -1.0067  0.0747  0.2654
  154DOPC   H4Y18511   6.799   1.931  16.284 -0.1116  0.0648 -0.0583
  154DOPC   C3518512   6.614   1.987  16.199  0.6696 -0.1122  0.7898
  154DOPC   H5X18513   6.651   2.092  16.193  1.8965 -0.5474  0.3819
  154DOPC   H5Y18514   6.507   2.000  16.225  0.5412 -2.8637  1.9585
  154DOPC   C3618515   6.626   1.940  16.057 -0.0683 -0.1775 -0.2795
  154DOPC   H6X18516   6.735   1.925  16.041  0.1474  0.0570  0.8770
  154DOPC   H6Y18517   6.579   1.840  16.041 -1.2163  0.6876 -2.9042
  154DOPC   C3718518   6.568   2.040  15.951  0.1966  0.0083  0.0643
  154DOPC   H7X18519   6.459   2.058  15.962  0.5793  3.1198 -0.4291
  154DOPC   H7Y18520   6.614   2.140  15.966  1.6208 -0.6763  0.4987
  154DOPC   C3818521   6.606   2.000  15.806 -0.4587 -0.1359 -0.2456
  154DOPC   H8X18522   6.540   1.917  15.774 -1.1789  0.2913  0.1031
  154DOPC   H8Y18523   6.711   1.963  15.811 -0.9748 -1.6300 -0.1440
  154DOPC   C3918524   6.578   2.117  15.718 -0.3983 -0.1385 -0.4261
  154DOPC   H9X18525   6.586   2.215  15.767 -0.8279 -1.6646  2.9376
  154DOPC  C31018526   6.585   2.115  15.579 -0.0297  0.1111  0.0035
  154DOPC  H10X18527   6.524   2.188  15.524 -1.1326 -0.0339  0.9803
  154DOPC  C31118528   6.606   1.988  15.504 -0.5147  0.1103  0.9143
  154DOPC  H11X18529   6.629   1.902  15.570 -0.5345 -0.0979  0.6528
  154DOPC  H11Y18530   6.691   1.987  15.433 -2.0729  1.7154 -1.1314
  154DOPC  C31218531   6.488   1.964  15.402 -0.5739  0.7024  0.3239
  154DOPC  H12X18532   6.504   1.869  15.348  0.8365  0.9271  0.2910
  154DOPC  H12Y18533   6.495   2.028  15.311 -0.7833 -0.7021 -0.6983
  154DOPC  C31318534   6.345   1.973  15.456 -0.3809 -0.2341 -0.1792
  154DOPC  H13X18535   6.339   1.900  15.540 -1.5176 -1.0498 -0.9387
  154DOPC  H13Y18536   6.317   2.071  15.499  1.2429  0.2798 -0.1964
  154DOPC  C31418537   6.234   1.941  15.355  0.3330  0.0128  0.2792
  154DOPC  H14X18538   6.244   2.016  15.274  0.6877  1.8416  1.9525
  154DOPC  H14Y18539   6.248   1.839  15.313  0.2424 -0.5285  1.5003
  154DOPC  C31518540   6.086   1.966  15.410 -0.0847 -0.2157  0.0382
  154DOPC  H15X18541   6.072   2.076  15.396 -2.4111 -0.1150  2.4376
  154DOPC  H15Y18542   6.082   1.945  15.519 -0.6702  1.8030  0.4561
  154DOPC  C31618543   5.971   1.898  15.335  0.0348  0.1831  0.6924
  154DOPC  H16X18544   5.974   1.934  15.230 -0.1750 -0.8368  0.3263
  154DOPC  H16Y18545   5.984   1.788  15.330  3.0989  0.3679  2.4025
  154DOPC  C31718546   5.836   1.931  15.400  0.3843 -0.1315  0.6621
  154DOPC  H17X18547   5.827   2.041  15.414 -2.0097 -0.1936 -0.0467
  154DOPC  H17Y18548   5.769   1.895  15.319 -0.8083  1.6008  0.8498
  154DOPC  C31818549   5.814   1.853  15.529 -0.6134  0.1856  0.2019
  154DOPC  H18X18550   5.716   1.872  15.577 -1.6478  0.0472 -1.7481
  154DOPC  H18Y18551   5.841   1.749  15.500  0.7005 -0.6611  3.9611
  154DOPC  H18Z18552   5.887   1.878  15.609  0.1873  4.2129 -1.5526
  155DOPC     N18553   2.517   1.585  17.170 -0.6363  0.0782 -0.4525
  155DOPC   C1218554   2.387   1.568  17.246 -0.6345  0.9127  0.0239
  155DOPC  H12A18555   2.386   1.628  17.336 -0.7677  1.1919 -0.1581
  155DOPC  H12B18556   2.384   1.463  17.272  0.4194  0.3591 -1.9318
  155DOPC   C1318557   2.548   1.734  17.151 -0.0336 -0.5722  0.3859
  155DOPC  H13A18558   2.549   1.787  17.245  0.2587 -0.8512  0.5428
  155DOPC  H13B18559   2.636   1.747  17.089 -0.3876 -0.4376 -0.0967
  155DOPC  H13C18560   2.466   1.775  17.094  0.8618  0.1020 -0.4765
  155DOPC   C1418561   2.512   1.491  17.049 -0.3023  0.2274 -0.0423
  155DOPC  H14A18562   2.496   1.388  17.077  0.2210 -0.6151 -2.5523
  155DOPC  H14B18563   2.439   1.528  16.979  0.0995  0.9719 -0.0824
  155DOPC  H14C18564   2.614   1.489  17.012 -0.6012 -1.5672 -0.8469
  155DOPC   C1518565   2.626   1.540  17.259 -0.1449 -0.2718 -0.9870
  155DOPC  H15A18566   2.722   1.553  17.212  0.8386  1.5428  1.3258
  155DOPC  H15B18567   2.629   1.438  17.293  1.9656  0.2730  0.6751
  155DOPC  H15C18568   2.625   1.593  17.353  3.2343  0.6667 -1.3500
  155DOPC   C1118569   2.258   1.595  17.170  0.2280 -0.0530 -0.6841
  155DOPC  H11A18570   2.239   1.504  17.109 -0.3840  0.4285 -1.2368
  155DOPC  H11B18571   2.174   1.597  17.243 -1.1989 -1.1200 -2.2170
  155DOPC     P18572   2.232   1.722  16.928 -0.3849  0.1210 -0.0040
  155DOPC   O1318573   2.193   1.865  16.897  0.3015  0.3210 -0.3991
  155DOPC   O1418574   2.124   1.623  16.910 -0.3787 -0.2316  0.0611
  155DOPC   O1218575   2.260   1.719  17.090  0.7474  0.6259  0.4116
  155DOPC   O1118576   2.359   1.682  16.854  0.0582  0.3407 -0.6751
  155DOPC    C118577   2.431   1.746  16.750 -0.6967  0.1163  0.7162
  155DOPC    HA18578   2.538   1.718  16.756 -0.2265  0.1354 -3.8568
  155DOPC    HB18579   2.428   1.856  16.766 -1.7816  0.3760 -0.9780
  155DOPC    C218580   2.376   1.696  16.614  0.4037  0.4946  0.6894
  155DOPC    HS18581   2.441   1.752  16.543 -0.9287  1.8952  0.5247
  155DOPC   O2118582   2.237   1.734  16.593 -0.4120  0.3604  0.6897
  155DOPC   C2118583   2.212   1.864  16.574  0.3438 -0.1950 -0.2816
  155DOPC   O2218584   2.290   1.952  16.552 -0.0663  0.1701 -0.3923
  155DOPC   C2218585   2.062   1.875  16.573 -0.7609  0.1724  0.3253
  155DOPC   H2R18586   2.034   1.972  16.620 -0.2916  0.5795 -0.2144
  155DOPC   H2S18587   2.017   1.787  16.623  1.0181 -2.2679 -2.1035
  155DOPC    C318588   2.402   1.548  16.561  0.3572  0.4799  0.3335
  155DOPC    HX18589   2.336   1.484  16.622  0.5714 -0.4477 -0.3875
  155DOPC    HY18590   2.509   1.520  16.576  0.2989 -1.2252 -1.8887
  155DOPC   O3118591   2.375   1.539  16.419 -0.3295  0.1034 -0.0623
  155DOPC   C3118592   2.278   1.452  16.387  0.4460 -0.4184  0.4547
  155DOPC   O3218593   2.222   1.375  16.467 -0.4457 -0.5337 -0.0049
  155DOPC   C3218594   2.246   1.477  16.240  0.2400  0.8481  0.7100
  155DOPC   H2X18595   2.221   1.584  16.220 -1.2906  0.1801 -1.3213
  155DOPC   H2Y18596   2.336   1.442  16.185 -0.4898 -2.2915  1.2978
  155DOPC   C2318597   2.002   1.860  16.424  1.1128  1.0496 -0.0019
  155DOPC   H3R18598   1.893   1.880  16.425  0.4395 -2.0940  1.0301
  155DOPC   H3S18599   2.009   1.755  16.387  0.7502  0.7979  0.6219
  155DOPC   C2418600   2.061   1.960  16.317  0.3963 -0.0553  0.4042
  155DOPC   H4R18601   2.158   1.920  16.280  0.8419  1.8083 -0.5759
  155DOPC   H4S18602   2.065   2.054  16.376  2.3107 -1.0676  2.0315
  155DOPC   C2518603   1.955   1.982  16.210  0.0975  0.2222  0.0717
  155DOPC   H5R18604   1.998   2.053  16.136 -2.1135 -0.2635 -1.7675
  155DOPC   H5S18605   1.868   2.035  16.253  0.8159  2.4088 -1.0039
  155DOPC   C2618606   1.921   1.851  16.132  0.5986 -0.0584 -0.2437
  155DOPC   H6R18607   1.867   1.781  16.199  0.2328  1.2112  0.8309
  155DOPC   H6S18608   2.013   1.817  16.082  1.7357  2.3843  0.0384
  155DOPC   C2718609   1.833   1.899  16.016  0.3482 -0.3320  0.1415
  155DOPC   H7R18610   1.894   1.958  15.944 -1.7684  0.4717 -1.0704
  155DOPC   H7S18611   1.761   1.968  16.064 -0.8380  1.1120 -3.3859
  155DOPC   C2818612   1.762   1.789  15.946  0.5884  0.0718  0.2361
  155DOPC   H8R18613   1.692   1.754  16.025  1.1738  1.3868  1.3882
  155DOPC   H8S18614   1.832   1.706  15.923 -0.2554 -1.2008  2.0626
  155DOPC   C2918615   1.680   1.834  15.824 -0.6195 -0.0471 -0.3643
  155DOPC   H9R18616   1.593   1.897  15.848  1.5103  2.3536  1.6745
  155DOPC  C21018617   1.713   1.814  15.698 -0.6814  0.1773 -0.2441
  155DOPC  H10R18618   1.648   1.858  15.621 -0.8228 -0.7055 -0.6405
  155DOPC  C21118619   1.845   1.754  15.655  0.1000 -0.1697  0.6958
  155DOPC  H11R18620   1.835   1.647  15.627 -1.5023  1.1214 -4.9467
  155DOPC  H11S18621   1.929   1.775  15.725  2.9729  0.6375 -2.7182
  155DOPC  C21218622   1.894   1.816  15.526 -0.0175 -0.0028 -0.2577
  155DOPC  H12R18623   2.004   1.798  15.532 -0.0921  0.0001  3.2636
  155DOPC  H12S18624   1.885   1.927  15.523 -0.4352 -0.0489 -2.4033
  155DOPC  C21318625   1.831   1.765  15.397  0.5903  0.2379  0.0286
  155DOPC  H13R18626   1.724   1.736  15.406  0.7617 -1.0032 -1.5661
  155DOPC  H13S18627   1.878   1.668  15.370  0.0261  0.3180 -1.3267
  155DOPC  C21418628   1.858   1.860  15.287 -0.0353  0.3383  0.3554
  155DOPC  H14R18629   1.881   1.799  15.197  0.1700  0.6841  0.1684
  155DOPC  H14S18630   1.951   1.914  15.317  0.0254  0.0686  0.6578
  155DOPC  C21518631   1.735   1.962  15.247 -0.1896  0.1078 -0.6487
  155DOPC  H15R18632   1.691   1.994  15.344  2.9809  1.2829  0.5250
  155DOPC  H15S18633   1.654   1.904  15.198  0.1115 -0.9822  0.1029
  155DOPC  C21618634   1.774   2.079  15.158 -0.4067 -0.3602  0.1783
  155DOPC  H16R18635   1.812   2.031  15.065 -2.4055  0.3824 -1.0914
  155DOPC  H16S18636   1.861   2.136  15.195 -1.2855  1.8773 -1.0448
  155DOPC  C21718637   1.659   2.169  15.125  0.2099 -0.1641 -0.2701
  155DOPC  H17R18638   1.623   2.223  15.215 -0.7550  3.0756 -2.4398
  155DOPC  H17S18639   1.580   2.111  15.073  1.4244 -2.4007  0.2512
  155DOPC  C21818640   1.696   2.280  15.016  0.5612  0.8349 -0.6752
  155DOPC  H18R18641   1.612   2.345  14.982  1.8222  2.4465 -0.8788
  155DOPC  H18S18642   1.727   2.225  14.924  1.9715 -1.6991  1.2157
  155DOPC  H18T18643   1.777   2.342  15.061 -0.0051  0.2539  1.2145
  155DOPC   C3318644   2.129   1.397  16.179 -0.3481  0.6898  0.4061
  155DOPC   H3X18645   2.133   1.286  16.192  0.6719  0.5595 -0.8189
  155DOPC   H3Y18646   2.145   1.399  16.069  0.0972 -2.1053  0.3290
  155DOPC   C3418647   1.988   1.464  16.205 -1.1059 -0.1971  0.2841
  155DOPC   H4X18648   1.992   1.556  16.143  1.1158 -0.9509 -0.8379
  155DOPC   H4Y18649   1.974   1.510  16.305  0.0734  1.0232 -0.0821
  155DOPC   C3518650   1.869   1.380  16.161  0.2000 -0.0437 -0.1657
  155DOPC   H5X18651   1.779   1.407  16.221  0.7065 -2.1035  1.6764
  155DOPC   H5Y18652   1.894   1.279  16.200 -4.0477 -0.2692  2.7364
  155DOPC   C3618653   1.840   1.381  16.006  0.1318 -0.1031 -0.0951
  155DOPC   H6X18654   1.816   1.484  15.970 -0.2213 -0.3188 -0.4833
  155DOPC   H6Y18655   1.932   1.339  15.961  0.5256  1.4291 -0.7908
  155DOPC   C3718656   1.716   1.296  15.969 -0.0460  0.2550 -0.0388
  155DOPC   H7X18657   1.722   1.199  16.023  0.8827 -0.8328 -2.0070
  155DOPC   H7Y18658   1.623   1.345  16.005 -0.5963 -1.4895  1.0515
  155DOPC   C3818659   1.701   1.275  15.815  0.1795  0.2782 -0.7532
  155DOPC   H8X18660   1.609   1.223  15.782 -0.2985  0.0823  0.8127
  155DOPC   H8Y18661   1.787   1.208  15.793  0.5352 -0.3534  2.1621
  155DOPC   C3918662   1.716   1.398  15.730 -0.1617 -0.0147 -0.2134
  155DOPC   H9X18663   1.755   1.486  15.784 -0.2273 -0.3313  0.3582
  155DOPC  C31018664   1.678   1.413  15.595 -0.4836 -0.0745 -0.5068
  155DOPC  H10X18665   1.696   1.511  15.548  1.5440 -1.5068 -3.0065
  155DOPC  C31118666   1.625   1.308  15.502 -0.2686  0.7569  0.8151
  155DOPC  H11X18667   1.518   1.320  15.474 -0.4647  0.4713  1.4143
  155DOPC  H11Y18668   1.634   1.208  15.548  2.1418  1.2752  1.6009
  155DOPC  C31218669   1.700   1.289  15.370 -0.5009 -0.3615 -0.0418
  155DOPC  H12X18670   1.673   1.201  15.309 -2.4846 -1.4763  2.2745
  155DOPC  H12Y18671   1.808   1.281  15.395 -0.3109  0.2453 -0.6283
  155DOPC  C31318672   1.686   1.411  15.270  0.5122 -0.0917  0.1268
  155DOPC  H13X18673   1.579   1.440  15.278  1.3638  3.1977  1.7261
  155DOPC  H13Y18674   1.748   1.498  15.302  0.3166  0.2380 -0.3883
  155DOPC  C31418675   1.722   1.376  15.131 -0.8370 -0.1792 -0.4694
  155DOPC  H14X18676   1.831   1.359  15.124 -0.9639 -2.2949  1.4541
  155DOPC  H14Y18677   1.666   1.286  15.097 -0.9824 -0.1166 -0.3956
  155DOPC  C31518678   1.688   1.494  15.032 -0.1756 -0.2392 -0.6027
  155DOPC  H15X18679   1.735   1.589  15.067 -0.1514 -0.1938 -0.7587
  155DOPC  H15Y18680   1.578   1.507  15.045 -0.2493 -0.4138 -1.0338
  155DOPC  C31618681   1.733   1.463  14.889 -0.7312 -0.3395 -0.0568
  155DOPC  H16X18682   1.843   1.479  14.889 -1.0573  2.5486  1.6596
  155DOPC  H16Y18683   1.702   1.360  14.863  1.1868 -0.8528 -0.4768
  155DOPC  C31718684   1.670   1.557  14.778 -0.3552 -0.6398 -0.4902
  155DOPC  H17X18685   1.562   1.579  14.795 -0.1144  0.8377 -0.7230
  155DOPC  H17Y18686   1.722   1.654  14.789 -1.5645 -0.1244  1.1333
  155DOPC  C31818687   1.685   1.503  14.638  0.1884 -0.9738 -0.0411
  155DOPC  H18X18688   1.670   1.582  14.561 -0.9513 -1.5916 -0.4786
  155DOPC  H18Y18689   1.787   1.465  14.619 -0.1585 -1.5195 -0.8834
  155DOPC  H18Z18690   1.603   1.429  14.631 -0.9315  0.0594  1.5803
  156DOPC     N18691   6.667   5.556  17.165 -0.1923 -0.8803 -0.2772
  156DOPC   C1218692   6.613   5.668  17.069  0.3182 -0.2383 -0.1836
  156DOPC  H12A18693   6.681   5.750  17.085 -1.1457  0.6670  1.7386
  156DOPC  H12B18694   6.512   5.685  17.104  1.2500  2.2341  1.5758
  156DOPC   C1318695   6.593   5.430  17.169 -0.0607 -0.4066  0.2685
  156DOPC  H13A18696   6.486   5.438  17.174  0.1066  2.3903  0.6956
  156DOPC  H13B18697   6.604   5.377  17.075  0.1791 -0.6787  0.4463
  156DOPC  H13C18698   6.631   5.364  17.246 -1.9322  0.3676  1.9293
  156DOPC   C1418699   6.684   5.606  17.307 -0.8603  0.0371  0.6241
  156DOPC  H14A18700   6.758   5.683  17.293  0.4267 -1.3581 -0.6297
  156DOPC  H14B18701   6.586   5.638  17.340  0.0438  1.5574  1.9566
  156DOPC  H14C18702   6.723   5.528  17.372  2.1496  0.5044 -0.4553
  156DOPC   C1518703   6.806   5.509  17.127  0.1864 -0.5893  0.0997
  156DOPC  H15A18704   6.877   5.589  17.115  2.2953 -2.0942  1.8435
  156DOPC  H15B18705   6.798   5.455  17.033 -0.1286 -1.3470  0.5569
  156DOPC  H15C18706   6.837   5.448  17.210 -0.7420  0.5280  1.3112
  156DOPC   C1118707   6.605   5.642  16.910  0.0746  0.4445 -0.7035
  156DOPC  H11A18708   6.568   5.736  16.865 -2.3049  1.2577  2.5677
  156DOPC  H11B18709   6.701   5.621  16.858  1.9263 -0.2765  2.7165
  156DOPC     P18710   6.368   5.554  16.906  0.1800  0.1093 -0.0727
  156DOPC   O1318711   6.344   5.656  17.007 -0.3570  0.0531  0.6203
  156DOPC   O1418712   6.309   5.422  16.929  0.2434  0.4178 -0.3634
  156DOPC   O1218713   6.524   5.532  16.885  0.2696  0.8474  0.0356
  156DOPC   O1118714   6.319   5.600  16.761  0.1106 -0.2403 -0.2819
  156DOPC    C118715   6.272   5.733  16.733  0.4243 -0.4252  0.9928
  156DOPC    HA18716   6.347   5.812  16.752  0.2307 -0.0986  0.4243
  156DOPC    HB18717   6.185   5.761  16.795  0.8277  0.3532  1.2167
  156DOPC    C218718   6.239   5.750  16.574  0.2149 -0.0869 -0.0480
  156DOPC    HS18719   6.180   5.845  16.568 -1.6493 -1.2205 -0.3754
  156DOPC   O2118720   6.160   5.640  16.530  0.5580 -0.1575 -0.3886
  156DOPC   C2118721   6.045   5.636  16.588  0.0283 -0.0855  0.5364
  156DOPC   O2218722   5.990   5.723  16.656  0.3396  0.4271  0.0648
  156DOPC   C2218723   5.993   5.489  16.549  0.9482  0.2564  0.6613
  156DOPC   H2R18724   5.888   5.520  16.529  1.0597  0.8275  0.9146
  156DOPC   H2S18725   6.008   5.417  16.632  1.7922 -0.7088 -0.3045
  156DOPC    C318726   6.363   5.769  16.481 -0.4451  0.0077 -0.6750
  156DOPC    HX18727   6.431   5.681  16.485  0.1507  0.4818 -0.2251
  156DOPC    HY18728   6.421   5.846  16.535  0.3524 -0.4664 -0.8361
  156DOPC   O3118729   6.335   5.814  16.350  0.4980 -0.3483  0.3907
  156DOPC   C3118730   6.439   5.827  16.267  0.4187 -1.1991  0.0088
  156DOPC   O3218731   6.556   5.811  16.298  0.2982 -0.3767 -0.0218
  156DOPC   C3218732   6.381   5.842  16.124  0.2746 -0.0083 -0.6667
  156DOPC   H2X18733   6.347   5.739  16.099  1.5546 -0.1325 -2.0628
  156DOPC   H2Y18734   6.300   5.918  16.131  2.5683  2.4237  0.7155
  156DOPC   C2318735   6.043   5.425  16.417 -0.5315 -0.2174 -0.1622
  156DOPC   H3R18736   6.149   5.393  16.426 -0.9636 -1.5684  0.5373
  156DOPC   H3S18737   6.029   5.499  16.335 -1.5092 -0.6032 -0.3602
  156DOPC   C2418738   5.947   5.310  16.373  0.9021  0.1580 -0.1029
  156DOPC   H4R18739   5.843   5.344  16.353  0.5552  0.0906  1.3972
  156DOPC   H4S18740   5.943   5.235  16.456  0.0685 -0.7906 -0.9706
  156DOPC   C2518741   5.994   5.256  16.236 -0.0336 -0.0244  0.4829
  156DOPC   H5R18742   6.101   5.229  16.251  0.0553  0.3801  0.6115
  156DOPC   H5S18743   5.982   5.328  16.152 -0.0543  0.1376  0.6218
  156DOPC   C2618744   5.917   5.127  16.201  0.1466  0.3783  0.3404
  156DOPC   H6R18745   5.810   5.149  16.220 -0.4171 -0.5706 -1.5085
  156DOPC   H6S18746   5.944   5.038  16.263 -0.8450  0.4165  0.8344
  156DOPC   C2718747   5.913   5.100  16.050  0.9877  0.1578 -0.6131
  156DOPC   H7R18748   6.017   5.087  16.012  1.3879 -0.1931  0.5528
  156DOPC   H7S18749   5.870   5.193  16.007  0.2592  1.2265  2.1543
  156DOPC   C2818750   5.859   4.963  16.001  0.2486  0.2186  0.1343
  156DOPC   H8R18751   5.755   4.948  16.040 -0.5171  1.9436 -1.1200
  156DOPC   H8S18752   5.923   4.882  16.040 -0.5911 -0.0253  1.0720
  156DOPC   C2918753   5.848   4.949  15.854  0.0280  0.0723 -0.2471
  156DOPC   H9R18754   5.936   4.903  15.807  0.8071  0.5164  0.7262
  156DOPC  C21018755   5.763   5.010  15.768  0.3233  0.9449 -0.4690
  156DOPC  H10R18756   5.779   4.994  15.660  0.0329  3.5034 -0.9442
  156DOPC  C21118757   5.669   5.119  15.803  0.1785 -0.0106 -0.1873
  156DOPC  H11R18758   5.669   5.199  15.726  2.0437 -0.1255 -0.3313
  156DOPC  H11S18759   5.687   5.153  15.907 -0.1059  0.8709 -0.4190
  156DOPC  C21218760   5.519   5.071  15.815  0.0772 -0.0027 -0.2028
  156DOPC  H12R18761   5.495   4.993  15.891  0.1861 -0.9932 -1.1554
  156DOPC  H12S18762   5.480   5.014  15.727  0.0333  1.2851 -1.0418
  156DOPC  C21318763   5.433   5.196  15.828 -0.4372  0.4570  0.4830
  156DOPC  H13R18764   5.331   5.183  15.785 -0.1439  0.2908 -0.1732
  156DOPC  H13S18765   5.484   5.280  15.778  1.9411 -0.6345  0.9072
  156DOPC  C21418766   5.442   5.233  15.974  0.8764  0.5954 -0.3162
  156DOPC  H14R18767   5.543   5.276  15.991 -0.1613  2.2808  2.1958
  156DOPC  H14S18768   5.431   5.140  16.034 -1.4729 -0.1756 -1.8246
  156DOPC  C21518769   5.328   5.339  16.005 -0.4867 -0.5490  0.0490
  156DOPC  H15R18770   5.227   5.293  16.000 -0.8515  0.0009  1.6323
  156DOPC  H15S18771   5.346   5.422  15.934 -0.6371 -1.0725 -0.6101
  156DOPC  C21618772   5.334   5.380  16.157  0.8087  0.1711  0.0573
  156DOPC  H16R18773   5.312   5.285  16.210  1.2029 -0.2063 -0.4537
  156DOPC  H16S18774   5.243   5.442  16.172  0.8164  0.1916  0.0151
  156DOPC  C21718775   5.453   5.456  16.210  0.5278 -0.0176  0.2136
  156DOPC  H17R18776   5.465   5.552  16.156  0.9950  1.4360  2.7883
  156DOPC  H17S18777   5.541   5.390  16.187  0.0478 -0.2865 -0.9408
  156DOPC  C21818778   5.435   5.490  16.355 -0.2248 -0.4328 -0.2570
  156DOPC  H18R18779   5.488   5.582  16.388  0.3270 -1.2398  1.1889
  156DOPC  H18S18780   5.477   5.410  16.420  1.0956 -0.3313 -0.9341
  156DOPC  H18T18781   5.328   5.515  16.365 -0.2467 -1.0067  1.1021
  156DOPC   C3318782   6.480   5.879  16.014  0.4616  0.0902  0.4537
  156DOPC   H3X18783   6.571   5.815  16.013  0.8024  0.5666  0.4041
  156DOPC   H3Y18784   6.516   5.981  16.042 -1.4025  1.1758 -0.9000
  156DOPC   C3418785   6.433   5.901  15.867  0.1856 -0.2132 -0.7084
  156DOPC   H4X18786   6.338   5.958  15.869  0.0766 -0.4072  0.5875
  156DOPC   H4Y18787   6.411   5.807  15.812 -1.2105 -1.3383  1.6460
  156DOPC   C3518788   6.530   5.978  15.781  0.1083 -0.6850  0.4616
  156DOPC   H5X18789   6.627   5.927  15.764  0.6102  0.3316  0.1989
  156DOPC   H5Y18790   6.553   6.071  15.838 -0.6049 -0.0841 -0.2130
  156DOPC   C3618791   6.466   6.032  15.661 -0.2615 -1.1583 -0.2957
  156DOPC   H6X18792   6.420   5.947  15.606 -2.4202  0.2687 -0.8578
  156DOPC   H6Y18793   6.390   6.107  15.694  1.7331  0.9659 -0.2171
  156DOPC   C3718794   6.571   6.094  15.570 -0.7058 -0.1343 -0.1493
  156DOPC   H7X18795   6.624   6.170  15.632 -0.8226 -0.5483  0.4658
  156DOPC   H7Y18796   6.635   6.010  15.535  0.2483  0.7935 -0.6913
  156DOPC   C3818797   6.497   6.160  15.451 -0.0903  0.3671 -0.6595
  156DOPC   H8X18798   6.401   6.107  15.430 -0.1895  0.4845 -0.5105
  156DOPC   H8Y18799   6.566   6.133  15.369  2.4466  0.0077  1.4785
  156DOPC   C3918800   6.494   6.316  15.453  0.8008 -0.3251 -0.4824
  156DOPC   H9X18801   6.592   6.366  15.450  0.0095  1.2429 -2.6030
  156DOPC  C31018802   6.388   6.396  15.463 -0.2922  0.7427  0.6779
  156DOPC  H10X18803   6.409   6.504  15.470 -0.2513  0.7541  0.3760
  156DOPC  C31118804   6.240   6.368  15.465  0.1620  0.3718  0.1326
  156DOPC  H11X18805   6.219   6.259  15.460 -0.5103  0.4514  0.9412
  156DOPC  H11Y18806   6.197   6.406  15.371 -1.4910  0.7746  1.0101
  156DOPC  C31218807   6.165   6.420  15.592  0.4421 -0.1500 -0.4970
  156DOPC  H12X18808   6.055   6.414  15.576  0.5261 -1.5779 -0.7039
  156DOPC  H12Y18809   6.200   6.524  15.608  1.4235 -0.4013 -0.9341
  156DOPC  C31318810   6.193   6.327  15.709 -0.1243 -0.4192 -0.4864
  156DOPC  H13X18811   6.167   6.222  15.683 -1.0223 -0.6902  1.3623
  156DOPC  H13Y18812   6.299   6.331  15.743 -0.8019 -3.1644  2.4936
  156DOPC  C31418813   6.103   6.352  15.824  0.3143 -0.2734  0.1205
  156DOPC  H14X18814   6.117   6.459  15.853 -1.5922  0.7674 -2.4490
  156DOPC  H14Y18815   5.995   6.333  15.807  0.3006  1.0967 -1.7048
  156DOPC  C31518816   6.145   6.275  15.953 -0.0811  0.5496  0.7064
  156DOPC  H15X18817   6.144   6.168  15.923  0.1539  0.3811  1.2894
  156DOPC  H15Y18818   6.077   6.310  16.033  2.4364  2.4272  2.1805
  156DOPC  C31618819   6.283   6.291  16.015 -0.4938  0.1613  0.2510
  156DOPC  H16X18820   6.362   6.243  15.952 -2.2374 -0.7610 -1.3409
  156DOPC  H16Y18821   6.317   6.397  16.009  1.8616 -0.5867 -1.1913
  156DOPC  C31718822   6.294   6.223  16.153 -0.4947  0.0335 -0.7450
  156DOPC  H17X18823   6.205   6.257  16.210  0.9149  1.7293  0.5296
  156DOPC  H17Y18824   6.289   6.114  16.130  0.4380 -0.2073  0.1288
  156DOPC  C31818825   6.426   6.244  16.223  0.2528  0.8152  0.2884
  156DOPC  H18X18826   6.509   6.206  16.160 -0.8950  0.8034 -1.2492
  156DOPC  H18Y18827   6.431   6.349  16.258 -1.3236  0.0578  3.0637
  156DOPC  H18Z18828   6.421   6.180  16.314 -1.6684  0.6404  0.1014
  157DOPC     N18829   6.863   0.353  17.013  1.0893 -0.3210 -0.9370
  157DOPC   C1218830   6.845   0.406  16.878 -0.2503 -0.0359 -0.2492
  157DOPC  H12A18831   6.878   0.329  16.810 -1.1362 -0.0362 -0.7003
  157DOPC  H12B18832   6.901   0.496  16.855  0.1688  0.2182  1.6518
  157DOPC   C1318833   6.764   0.247  17.050  0.0364  0.2008  0.4717
  157DOPC  H13A18834   6.776   0.159  16.988  0.5627  1.2004 -0.8709
  157DOPC  H13B18835   6.774   0.221  17.155  2.0611  0.4558  0.3943
  157DOPC  H13C18836   6.663   0.277  17.028 -0.9413 -0.8017  3.1142
  157DOPC   C1418837   6.826   0.468  17.108 -0.5045  0.2501 -0.7833
  157DOPC  H14A18838   6.723   0.493  17.092 -0.8398  0.0427  0.8845
  157DOPC  H14B18839   6.845   0.445  17.212 -1.0760 -0.5267 -0.8406
  157DOPC  H14C18840   6.887   0.554  17.084  0.9394  0.2211  2.2180
  157DOPC   C1518841   6.999   0.303  17.030 -0.2569  0.1454  0.0676
  157DOPC  H15A18842   6.998   0.219  17.097  3.6463 -0.1311  0.0039
  157DOPC  H15B18843   7.076   0.373  17.060 -0.5959  2.0886 -3.0925
  157DOPC  H15C18844   7.032   0.265  16.934 -0.1342 -2.2806  1.0127
  157DOPC   C1118845   6.696   0.447  16.837 -0.6182  0.2840  0.3055
  157DOPC  H11A18846   6.698   0.464  16.727 -0.5111  0.9781  0.4120
  157DOPC  H11B18847   6.630   0.360  16.860 -0.4381 -0.5199 -1.9489
  157DOPC     P18848   6.510   0.583  16.971 -0.3772  0.3755 -0.1734
  157DOPC   O1318849   6.514   0.706  17.050 -0.5185  0.5246  0.2941
  157DOPC   O1418850   6.498   0.452  17.045  0.5051  0.1046 -0.1703
  157DOPC   O1218851   6.653   0.571  16.898  0.5517  0.3323 -0.3295
  157DOPC   O1118852   6.409   0.596  16.850 -0.3839 -0.3579  0.1131
  157DOPC    C118853   6.409   0.695  16.753  0.6593  0.2021 -0.3884
  157DOPC    HA18854   6.514   0.724  16.731  0.8886 -0.8801 -0.7519
  157DOPC    HB18855   6.357   0.787  16.787 -1.7270 -1.4701  0.7400
  157DOPC    C218856   6.354   0.646  16.613  0.2368 -0.2808  0.2010
  157DOPC    HS18857   6.245   0.634  16.628  0.3568 -1.3321  0.3058
  157DOPC   O2118858   6.422   0.524  16.582  0.2655  0.0817 -0.0127
  157DOPC   C2118859   6.342   0.416  16.604 -0.1653  0.1284  0.1280
  157DOPC   O2218860   6.226   0.416  16.629  0.6668  0.3835 -0.0482
  157DOPC   C2218861   6.426   0.291  16.598 -0.1725  0.4965 -0.5450
  157DOPC   H2R18862   6.531   0.297  16.634 -1.1812 -0.1952  2.8425
  157DOPC   H2S18863   6.437   0.257  16.493 -0.5752 -2.0527  0.1757
  157DOPC    C318864   6.384   0.761  16.508 -0.4204  0.1015 -0.8841
  157DOPC    HX18865   6.368   0.711  16.409 -1.9386 -1.0671 -0.0863
  157DOPC    HY18866   6.494   0.774  16.517 -0.3499 -1.6659  2.0017
  157DOPC   O3118867   6.312   0.878  16.527  0.1604 -0.7505 -0.6821
  157DOPC   C3118868   6.193   0.877  16.473 -0.2117  0.1374 -0.7499
  157DOPC   O3218869   6.128   0.779  16.439 -0.4635 -0.1865  0.1386
  157DOPC   C3218870   6.140   1.020  16.440 -0.1869 -0.4496  0.5372
  157DOPC   H2X18871   6.084   1.065  16.524  0.4459 -0.5246  1.0066
  157DOPC   H2Y18872   6.232   1.076  16.412 -0.1835 -1.3095 -1.3041
  157DOPC   C2318873   6.352   0.167  16.660  0.4821  0.1353  0.3048
  157DOPC   H3R18874   6.256   0.169  16.604  0.3916 -0.5367  0.4204
  157DOPC   H3S18875   6.333   0.193  16.766 -0.9709 -0.2510  0.1584
  157DOPC   C2418876   6.436   0.040  16.637  0.5499  0.1359 -0.0628
  157DOPC   H4R18877   6.401  -0.050  16.692 -0.5873 -0.0070 -0.9749
  157DOPC   H4S18878   6.541   0.057  16.670 -0.2056  2.2861  1.4970
  157DOPC   C2518879   6.436  -0.005  16.487  0.2233 -0.3725 -0.1956
  157DOPC   H5R18880   6.493   0.065  16.422 -1.0289  0.7109 -0.1770
  157DOPC   H5S18881   6.330  -0.017  16.456  0.2734 -0.6560 -0.2604
  157DOPC   C2618882   6.503  -0.138  16.451  0.0753 -0.4647  0.5262
  157DOPC   H6R18883   6.443  -0.225  16.488  0.7490 -0.0529  2.7527
  157DOPC   H6S18884   6.595  -0.137  16.513 -0.0440 -1.0652  0.7195
  157DOPC   C2718885   6.524  -0.160  16.299 -0.1366  0.3937  0.1615
  157DOPC   H7R18886   6.591  -0.248  16.288 -0.4245  0.3376 -1.2240
  157DOPC   H7S18887   6.566  -0.067  16.255  0.6378  1.3513  2.6963
  157DOPC   C2818888   6.395  -0.210  16.237 -0.0428 -0.2256  0.5209
  157DOPC   H8R18889   6.312  -0.139  16.257  0.1377  0.4345 -0.9295
  157DOPC   H8S18890   6.365  -0.304  16.288 -2.6644  0.3939  0.2773
  157DOPC   C2918891   6.393  -0.231  16.085 -0.2169  0.4124 -0.0402
  157DOPC   H9R18892   6.474  -0.192  16.021 -1.7092  2.5777 -0.7086
  157DOPC  C21018893   6.289  -0.293  16.023  0.1158 -0.1378  0.1266
  157DOPC  H10R18894   6.300  -0.316  15.916 -0.5064  0.1386 -0.0006
  157DOPC  C21118895   6.169  -0.356  16.101  0.0709  0.3384 -0.4544
  157DOPC  H11R18896   6.070  -0.341  16.055  0.3826  3.4043 -0.3433
  157DOPC  H11S18897   6.163  -0.308  16.201 -2.3889  0.4520 -0.6005
  157DOPC  C21218898   6.194  -0.508  16.128  0.1133  0.2836 -0.7325
  157DOPC  H12R18899   6.121  -0.536  16.206  0.7502  0.6001 -0.0067
  157DOPC  H12S18900   6.295  -0.527  16.170 -0.0648 -2.2278 -1.3042
  157DOPC  C21318901   6.180  -0.595  16.001  0.6247 -0.1707  0.3433
  157DOPC  H13R18902   6.265  -0.582  15.930 -0.2165 -0.3166 -0.7111
  157DOPC  H13S18903   6.093  -0.555  15.944 -0.2059  0.6499  2.0752
  157DOPC  C21418904   6.143  -0.743  16.021 -0.2319  0.4490  0.2706
  157DOPC  H14R18905   6.103  -0.780  15.925 -1.9478 -0.4318  1.2673
  157DOPC  H14S18906   6.056  -0.739  16.091  1.3127 -2.9490  2.6244
  157DOPC  C21518907   6.256  -0.826  16.062 -0.2461  1.3829  0.5206
  157DOPC  H15R18908   6.302  -0.787  16.155  2.1147 -1.3573  0.6343
  157DOPC  H15S18909   6.337  -0.824  15.987  1.2236 -1.2581  1.8986
  157DOPC  C21618910   6.226  -0.979  16.082 -0.6316  0.3685  1.0343
  157DOPC  H16R18911   6.321  -1.037  16.086  0.1789  1.6383  0.6642
  157DOPC  H16S18912   6.152  -1.003  16.003  0.2237 -0.5713  0.4889
  157DOPC  C21718913   6.151  -0.990  16.212 -0.0722 -0.4431 -0.7951
  157DOPC  H17R18914   6.068  -0.917  16.222  2.1516  1.9361  1.8344
  157DOPC  H17S18915   6.223  -0.952  16.287 -0.1079 -0.5181 -0.7215
  157DOPC  C21818916   6.098  -1.130  16.240 -0.0623  0.9642 -0.9128
  157DOPC  H18R18917   6.044  -1.135  16.336  0.9519  1.1517 -0.3176
  157DOPC  H18S18918   6.187  -1.197  16.244 -1.0795 -0.7377 -3.6059
  157DOPC  H18T18919   6.041  -1.174  16.155 -0.1280 -0.2876 -0.2525
  157DOPC   C3318920   6.049   1.012  16.320 -0.1134 -0.0215 -0.1798
  157DOPC   H3X18921   6.001   1.111  16.303  1.9457  0.7481 -2.0132
  157DOPC   H3Y18922   5.975   0.931  16.336 -0.4882 -0.0948 -2.0409
  157DOPC   C3418923   6.114   0.980  16.181 -0.1656  0.2737 -0.3035
  157DOPC   H4X18924   6.165   0.881  16.186  1.0900  0.8994 -0.5120
  157DOPC   H4Y18925   6.187   1.058  16.153  1.8161 -1.7860 -1.2103
  157DOPC   C3518926   6.013   0.981  16.068  0.3812 -0.2657 -0.0568
  157DOPC   H5X18927   5.979   1.085  16.051  1.5947 -0.0105 -1.1174
  157DOPC   H5Y18928   5.933   0.909  16.098  1.1609 -1.6854 -1.2331
  157DOPC   C3618929   6.062   0.943  15.928 -0.2785 -0.0962 -0.1020
  157DOPC   H6X18930   6.149   1.007  15.903 -0.3775 -0.7161 -2.2188
  157DOPC   H6Y18931   6.103   0.840  15.926  0.8328  0.3315 -1.9820
  157DOPC   C3718932   5.961   0.972  15.821 -0.0481 -0.2804  1.0151
  157DOPC   H7X18933   5.866   0.924  15.854  1.3007 -2.3329  2.1520
  157DOPC   H7Y18934   5.946   1.080  15.800  1.1679 -0.5463 -1.6224
  157DOPC   C3818935   5.990   0.901  15.681 -0.4212  0.1749 -0.2112
  157DOPC   H8X18936   5.990   0.792  15.700  1.8623  0.4371  1.6927
  157DOPC   H8Y18937   6.094   0.927  15.652 -0.5750 -0.9259 -1.8795
  157DOPC   C3918938   5.907   0.939  15.569 -0.1387 -0.5221  1.0766
  157DOPC   H9X18939   5.799   0.944  15.589 -0.6975 -0.0117 -1.6335
  157DOPC  C31018940   5.942   0.954  15.440 -0.3618  0.3519  0.2956
  157DOPC  H10X18941   5.871   1.006  15.374  1.4179  2.2687 -0.1965
  157DOPC  C31118942   6.084   0.950  15.393  0.0156  0.5879  0.5167
  157DOPC  H11X18943   6.150   0.885  15.454 -1.3696  0.4168  1.8705
  157DOPC  H11Y18944   6.118   1.056  15.391 -1.6885  1.1768  1.2061
  157DOPC  C31218945   6.091   0.881  15.256 -0.5027 -0.2954  0.6345
  157DOPC  H12X18946   6.036   0.785  15.253  0.4461 -0.9155  2.0159
  157DOPC  H12Y18947   6.199   0.854  15.247  0.0017  1.9636 -1.2557
  157DOPC  C31318948   6.059   0.976  15.137  0.7773  0.1043  0.9480
  157DOPC  H13X18949   5.949   0.991  15.132  0.8493  0.3022 -2.5815
  157DOPC  H13Y18950   6.112   1.074  15.138  0.5201  0.2821 -0.3165
  157DOPC  C31418951   6.090   0.904  15.001  0.0182  0.5667  0.0137
  157DOPC  H14X18952   6.191   0.858  15.002  0.7575  1.9794 -2.1114
  157DOPC  H14Y18953   6.010   0.827  14.994  0.1557  0.5621 -2.2021
  157DOPC  C31518954   6.092   0.997  14.884 -0.3471  0.6127  0.2081
  157DOPC  H15X18955   6.170   1.075  14.894 -0.0752  0.5268 -1.0393
  157DOPC  H15Y18956   5.991   1.042  14.879 -0.6721 -0.1565 -0.3466
  157DOPC  C31618957   6.127   0.917  14.760  0.2370 -0.7225 -0.3857
  157DOPC  H16X18958   6.216   0.852  14.775  0.8751 -0.0193 -1.0399
  157DOPC  H16Y18959   6.040   0.849  14.742 -0.3335 -0.2754  0.5878
  157DOPC  C31718960   6.146   1.005  14.639 -0.3987 -0.2982  0.2344
  157DOPC  H17X18961   6.050   1.059  14.629  0.9918  2.1023 -1.4738
  157DOPC  H17Y18962   6.232   1.076  14.641  0.8895 -1.7534 -0.4698
  157DOPC  C31818963   6.159   0.932  14.503  0.0281 -0.2410  0.1664
  157DOPC  H18X18964   6.265   0.905  14.486 -0.1058 -1.4876  1.1418
  157DOPC  H18Y18965   6.098   0.839  14.503 -1.0607  0.4640 -0.2934
  157DOPC  H18Z18966   6.132   0.995  14.416  1.9566 -1.5019 -1.4250
  158DOPC     N18967   5.209   6.835  17.167  0.3208  0.3189 -0.0087
  158DOPC   C1218968   5.195   6.735  17.049 -0.0334 -0.3627  0.0164
  158DOPC  H12A18969   5.111   6.667  17.057 -1.4331  1.1085 -1.3334
  158DOPC  H12B18970   5.288   6.681  17.049 -0.1831 -0.8206 -3.4276
  158DOPC   C1318971   5.091   6.925  17.173  0.0483  1.0031 -0.8931
  158DOPC  H13A18972   5.106   6.994  17.092 -0.7805  3.7130  1.0956
  158DOPC  H13B18973   4.996   6.874  17.164  0.1365  1.1830 -3.8083
  158DOPC  H13C18974   5.095   6.980  17.266  2.7779 -0.5324  0.0119
  158DOPC   C1418975   5.327   6.916  17.157 -0.1621 -0.3070 -0.1453
  158DOPC  H14A18976   5.419   6.859  17.152  2.2077  3.2648 -1.1311
  158DOPC  H14B18977   5.327   6.974  17.066  1.5159  0.2797  0.1984
  158DOPC  H14C18978   5.345   6.981  17.241 -1.3843 -0.2000  0.0517
  158DOPC   C1518979   5.197   6.746  17.291 -0.5101 -0.0745 -0.2443
  158DOPC  H15A18980   5.284   6.685  17.310 -0.5935 -0.1277 -0.0293
  158DOPC  H15B18981   5.107   6.687  17.299 -0.7636  0.5543  2.2783
  158DOPC  H15C18982   5.191   6.821  17.368 -0.8348  1.4339 -1.6808
  158DOPC   C1118983   5.191   6.798  16.909 -0.5826  0.4670 -0.4241
  158DOPC  H11A18984   5.262   6.883  16.897 -0.2852  0.0368 -1.9406
  158DOPC  H11B18985   5.223   6.722  16.834 -1.1956  1.2921 -1.5442
  158DOPC     P18986   4.938   6.728  16.858 -0.0879 -0.1280 -0.2870
  158DOPC   O1318987   4.835   6.766  16.961 -0.3060 -0.0011  0.5444
  158DOPC   O1418988   4.986   6.585  16.868 -0.4663 -0.2958 -0.0084
  158DOPC   O1218989   5.057   6.837  16.875 -0.0928  0.5245  0.1587
  158DOPC   O1118990   4.875   6.763  16.722  0.1121  0.0033  0.5864
  158DOPC    C118991   4.893   6.899  16.675 -0.3937  0.5033 -0.6088
  158DOPC    HA18992   4.992   6.918  16.630  0.1093 -2.1290 -0.7992
  158DOPC    HB18993   4.863   6.979  16.746 -0.9321 -0.0035 -0.2588
  158DOPC    C218994   4.793   6.926  16.556  0.0188 -0.3225 -0.2164
  158DOPC    HS18995   4.692   6.885  16.577 -0.1226 -0.0507 -0.3578
  158DOPC   O2118996   4.845   6.861  16.437 -0.2906 -0.0031  0.1146
  158DOPC   C2118997   4.765   6.852  16.336 -0.5530 -0.4178 -0.2594
  158DOPC   O2218998   4.650   6.888  16.331  0.0081  0.0740  0.2697
  158DOPC   C2218999   4.839   6.782  16.218  0.2644  0.0484 -0.3630
  158DOPC   H2R19000   4.845   6.672  16.235 -0.3194 -0.2729 -2.0622
  158DOPC   H2S19001   4.944   6.819  16.216  0.7132 -1.1782 -0.3702
  158DOPC    C319002   4.783   7.074  16.549  0.3263 -0.6028 -0.0301
  158DOPC    HX19003   4.725   7.111  16.636  0.4727 -1.5181  0.4594
  158DOPC    HY19004   4.717   7.103  16.464  0.1868 -0.4943  0.1158
  158DOPC   O3119005   4.916   7.133  16.539  0.4355  0.0380  0.0865
  158DOPC   C3119006   4.918   7.262  16.566 -0.4608  0.6014  0.8220
  158DOPC   O3219007   4.822   7.331  16.587  0.0498  0.4304 -0.5920
  158DOPC   C3219008   5.058   7.313  16.557  0.6164 -0.1993  0.2775
  158DOPC   H2X19009   5.089   7.376  16.643  1.2756  0.3568 -0.3568
  158DOPC   H2Y19010   5.132   7.230  16.560  1.5668  0.4634 -2.2595
  158DOPC   C2319011   4.772   6.798  16.078  0.8353  0.3932 -0.4817
  158DOPC   H3R19012   4.663   6.778  16.082  0.6465  1.1925 -1.3941
  158DOPC   H3S19013   4.823   6.722  16.015  0.6721 -0.6544  0.6148
  158DOPC   C2419014   4.808   6.937  16.011 -0.2434 -0.1440 -0.3240
  158DOPC   H4R19015   4.774   7.013  16.084  1.8328 -0.0996  0.7021
  158DOPC   H4S19016   4.743   6.924  15.922  1.0813 -1.0462 -1.2133
  158DOPC   C2519017   4.954   6.958  15.995  0.0387  0.0073 -0.1682
  158DOPC   H5R19018   5.004   6.860  15.978  0.9851  0.3860  0.3386
  158DOPC   H5S19019   4.983   6.992  16.097  1.9961 -1.3798 -0.2007
  158DOPC   C2619020   4.990   7.057  15.887  0.6512  0.2914  0.2397
  158DOPC   H6R19021   5.086   7.111  15.903 -0.1210  1.2205  2.1122
  158DOPC   H6S19022   4.916   7.137  15.868  0.9837  0.3690 -0.7759
  158DOPC   C2719023   5.010   6.986  15.745  0.3039  0.2738  0.1677
  158DOPC   H7R19024   4.914   6.939  15.716  0.0134  0.7604  0.3271
  158DOPC   H7S19025   5.080   6.902  15.763 -2.0094 -1.8088 -0.0154
  158DOPC   C2819026   5.051   7.083  15.634  0.4468  0.4653  0.2203
  158DOPC   H8R19027   5.093   7.037  15.542 -1.2608 -1.5144  0.3649
  158DOPC   H8S19028   5.141   7.134  15.676  1.6132 -0.8322 -0.5971
  158DOPC   C2919029   4.935   7.177  15.608  0.8410 -0.0068  0.1544
  158DOPC   H9R19030   4.836   7.130  15.601 -0.2853  2.3740 -0.9787
  158DOPC  C21019031   4.948   7.307  15.583 -0.0675  0.2041  0.6232
  158DOPC  H10R19032   4.857   7.365  15.562  0.6753  1.1090 -0.1632
  158DOPC  C21119033   5.075   7.390  15.584 -0.0986 -0.0927 -0.0261
  158DOPC  H11R19034   5.137   7.378  15.676  1.5816 -1.0718 -1.2169
  158DOPC  H11S19035   5.051   7.498  15.570 -1.6353 -0.3568  0.4764
  158DOPC  C21219036   5.167   7.356  15.464  0.2245  0.0045 -0.1164
  158DOPC  H12R19037   5.183   7.246  15.472 -0.0885  0.0675  2.2033
  158DOPC  H12S19038   5.264   7.407  15.484  1.4324 -1.2596 -2.3595
  158DOPC  C21319039   5.108   7.396  15.329 -0.0420 -0.7652  1.0656
  158DOPC  H13R19040   5.092   7.505  15.340 -1.4497 -0.9516  1.0578
  158DOPC  H13S19041   5.010   7.343  15.323  1.6627 -4.4495  2.6618
  158DOPC  C21419042   5.204   7.356  15.208 -1.3258  0.4476 -0.1912
  158DOPC  H14R19043   5.204   7.248  15.232  0.2305  0.5142  0.2167
  158DOPC  H14S19044   5.309   7.391  15.215 -0.9757 -0.5080 -0.5013
  158DOPC  C21519045   5.141   7.373  15.068 -0.5199 -0.3347 -0.0970
  158DOPC  H15R19046   5.171   7.470  15.024  0.0458 -0.9003 -0.9947
  158DOPC  H15S19047   5.031   7.375  15.084 -0.1304  0.5035  3.3169
  158DOPC  C21619048   5.174   7.250  14.980 -0.0186 -0.4766  0.5161
  158DOPC  H16R19049   5.129   7.154  15.013 -0.3370 -0.4004  0.3047
  158DOPC  H16S19050   5.284   7.236  14.976 -0.1882 -1.6028 -2.3530
  158DOPC  C21719051   5.118   7.272  14.836 -0.6548  0.2125  0.2143
  158DOPC  H17R19052   5.169   7.358  14.788 -0.9768 -0.3822 -1.2408
  158DOPC  H17S19053   5.012   7.302  14.835 -0.5655  0.5411  0.3916
  158DOPC  C21819054   5.137   7.149  14.753  0.2915  0.1782  0.4608
  158DOPC  H18R19055   5.141   7.179  14.646  1.1442 -1.1134  0.1159
  158DOPC  H18S19056   5.056   7.074  14.768  1.0503 -0.8115 -0.2870
  158DOPC  H18T19057   5.235   7.103  14.778  0.7142 -0.4260 -2.0503
  158DOPC   C3319058   5.075   7.394  16.421 -0.9526  0.2813 -0.4811
  158DOPC   H3X19059   5.167   7.452  16.443 -0.5651 -0.7562  0.7964
  158DOPC   H3Y19060   4.992   7.468  16.413 -1.6694 -0.4484 -0.0030
  158DOPC   C3419061   5.088   7.315  16.283  0.6541 -0.3579 -0.0344
  158DOPC   H4X19062   5.158   7.230  16.294  1.0803  0.2916  3.4799
  158DOPC   H4Y19063   5.135   7.383  16.209  0.5691 -1.4822 -1.1571
  158DOPC   C3519064   4.954   7.265  16.215 -0.3511  0.1715  0.2721
  158DOPC   H5X19065   4.915   7.179  16.273  1.6581 -1.1437 -0.2424
  158DOPC   H5Y19066   4.987   7.214  16.122  2.2209 -2.0023  2.2272
  158DOPC   C3619067   4.849   7.375  16.196  0.5433 -0.2830 -1.1188
  158DOPC   H6X19068   4.811   7.415  16.292 -1.9420 -2.4897 -1.0834
  158DOPC   H6Y19069   4.905   7.455  16.142  2.4485 -0.9177 -0.2058
  158DOPC   C3719070   4.722   7.337  16.124 -0.4911  0.2138  0.3954
  158DOPC   H7X19071   4.757   7.287  16.031  1.7958  2.6801 -0.1746
  158DOPC   H7Y19072   4.657   7.269  16.184 -1.1571  1.3185  0.9456
  158DOPC   C3819073   4.642   7.462  16.069  0.1190  0.9060 -0.2289
  158DOPC   H8X19074   4.614   7.422  15.970  3.6181  1.6120 -1.6751
  158DOPC   H8Y19075   4.720   7.536  16.040  0.4121 -0.0045 -1.8271
  158DOPC   C3919076   4.539   7.515  16.166 -0.1030 -0.2919  0.4128
  158DOPC   H9X19077   4.578   7.554  16.262 -0.4674  2.5608 -0.5066
  158DOPC  C31019078   4.410   7.514  16.148  0.1186  0.6125 -0.1539
  158DOPC  H10X19079   4.352   7.569  16.224  0.4770  0.5769  0.1487
  158DOPC  C31119080   4.325   7.461  16.032 -0.0339 -0.0233  0.1832
  158DOPC  H11X19081   4.219   7.441  16.059 -0.6093  0.4574 -1.5480
  158DOPC  H11Y19082   4.372   7.362  16.014  0.9822  0.6603 -1.1127
  158DOPC  C31219083   4.323   7.538  15.900  1.0538 -0.0912 -0.3917
  158DOPC  H12X19084   4.427   7.541  15.863  1.0356  1.9195 -0.3576
  158DOPC  H12Y19085   4.282   7.640  15.918 -3.7837 -1.3293 -2.5770
  158DOPC  C31319086   4.236   7.481  15.782  0.0253 -0.6500 -0.1866
  158DOPC  H13X19087   4.259   7.376  15.758  0.2898 -0.3957 -1.0590
  158DOPC  H13Y19088   4.129   7.486  15.814  0.2881 -0.0212  0.6397
  158DOPC  C31419089   4.248   7.569  15.652 -0.2595  0.7307 -0.0461
  158DOPC  H14X19090   4.196   7.665  15.669  1.8301  1.6804  1.5705
  158DOPC  H14Y19091   4.357   7.581  15.635 -0.1408 -1.6840 -1.4964
  158DOPC  C31519092   4.188   7.488  15.531  0.0684  0.0124 -1.3412
  158DOPC  H15X19093   4.086   7.452  15.558  0.6412 -1.0525 -0.4890
  158DOPC  H15Y19094   4.241   7.392  15.516  0.2622  0.1753 -1.7130
  158DOPC  C31619095   4.172   7.579  15.414  0.1426 -0.0494  0.2404
  158DOPC  H16X19096   4.118   7.670  15.447  0.8121 -0.2770  2.0364
  158DOPC  H16Y19097   4.266   7.616  15.368  0.0258 -0.0752 -0.0221
  158DOPC  C31719098   4.099   7.501  15.304  0.6275  0.1907 -0.2164
  158DOPC  H17X19099   4.176   7.440  15.251  0.9519  0.2194  0.2204
  158DOPC  H17Y19100   4.022   7.434  15.348 -1.3839  2.5680  0.0612
  158DOPC  C31819101   4.045   7.589  15.194  0.8092  0.2914  0.1637
  158DOPC  H18X19102   3.992   7.533  15.115  2.3127 -0.9125 -0.0397
  158DOPC  H18Y19103   3.968   7.651  15.245 -2.3536 -2.2975 -1.1216
  158DOPC  H18Z19104   4.128   7.643  15.142  1.2680 -0.2182  0.3578
  159DOPC     N19105   0.086   1.006  17.319  0.4450 -0.0652  0.2830
  159DOPC   C1219106   0.014   1.010  17.179  0.4351 -0.6425  0.1352
  159DOPC  H12A19107   0.032   1.104  17.130 -0.4583 -0.1578  0.7192
  159DOPC  H12B19108  -0.092   1.004  17.201  0.3226 -0.7210 -0.4039
  159DOPC   C1319109  -0.006   0.927  17.415 -0.0488  0.0982 -0.4012
  159DOPC  H13A19110  -0.102   0.975  17.428  0.6894  1.8847 -1.1993
  159DOPC  H13B19111  -0.020   0.826  17.379  0.2470 -0.1123  0.0641
  159DOPC  H13C19112   0.035   0.915  17.515  1.3800  0.7362 -0.8772
  159DOPC   C1419113   0.104   1.141  17.380 -0.4697 -0.1781  0.2471
  159DOPC  H14A19114   0.015   1.202  17.382 -0.1430  0.3162 -0.0989
  159DOPC  H14B19115   0.147   1.138  17.479  1.3135 -0.2618 -0.5020
  159DOPC  H14C19116   0.168   1.193  17.310 -0.9467  2.3207  1.5355
  159DOPC   C1519117   0.211   0.926  17.314  0.3811  0.0295  0.1678
  159DOPC  H15A19118   0.191   0.824  17.284  0.7499 -0.0173  0.0837
  159DOPC  H15B19119   0.263   0.923  17.408 -0.7576  1.0028  0.8591
  159DOPC  H15C19120   0.274   0.968  17.238 -0.6575 -0.2953 -0.9138
  159DOPC   C1119121   0.021   0.882  17.083 -0.2717 -0.2166  0.5811
  159DOPC  H11A19122  -0.028   0.888  16.984 -0.2094 -1.1198  0.4819
  159DOPC  H11B19123   0.126   0.856  17.058 -1.1757 -0.7651 -3.2604
  159DOPC     P19124  -0.189   0.738  17.148 -0.2681  0.2363  0.2632
  159DOPC   O1319125  -0.269   0.866  17.175 -0.8549  0.3214  0.3924
  159DOPC   O1419126  -0.207   0.618  17.231 -0.6177 -0.1885 -0.9671
  159DOPC   O1219127  -0.034   0.775  17.160 -0.5274 -0.2019 -0.0144
  159DOPC   O1119128  -0.200   0.691  17.002  0.1418  0.5310 -0.3339
  159DOPC    C119129  -0.263   0.774  16.893  0.1050  0.0819 -0.7284
  159DOPC    HA19130  -0.178   0.797  16.826  3.3262 -1.7285  2.3750
  159DOPC    HB19131  -0.319   0.863  16.930 -1.3317 -0.4351 -1.5866
  159DOPC    C219132  -0.363   0.680  16.822  0.2929 -0.3810 -0.3110
  159DOPC    HS19133  -0.426   0.621  16.892  1.2174 -2.9204 -1.5247
  159DOPC   O2119134  -0.281   0.591  16.749 -0.3899 -0.3429 -0.1922
  159DOPC   C2119135  -0.317   0.474  16.712  0.1851  0.9311  0.0911
  159DOPC   O2219136  -0.410   0.411  16.758 -0.5994 -0.8678  0.6194
  159DOPC   C2219137  -0.229   0.432  16.588 -0.8888  0.1720  0.0515
  159DOPC   H2R19138  -0.139   0.379  16.626 -0.2409  0.8754 -0.4812
  159DOPC   H2S19139  -0.205   0.523  16.530 -0.8443  1.3895  1.8996
  159DOPC    C319140  -0.451   0.758  16.719  1.1312 -0.0636  0.3345
  159DOPC    HX19141  -0.375   0.832  16.686 -0.2109  0.7288 -1.0495
  159DOPC    HY19142  -0.523   0.810  16.785 -0.3923 -0.2364 -1.1291
  159DOPC   O3119143  -0.507   0.682  16.600 -0.5411 -0.5181 -0.0822
  159DOPC   C3119144  -0.620   0.635  16.613  0.9768  0.6401 -0.0313
  159DOPC   O3219145  -0.684   0.635  16.720 -0.5176  0.3337 -0.2032
  159DOPC   C3219146  -0.657   0.571  16.483  0.8776  0.1522  0.1958
  159DOPC   H2X19147  -0.696   0.647  16.412 -0.3530 -1.5294 -0.9981
  159DOPC   H2Y19148  -0.570   0.518  16.440 -0.3411 -0.5345 -1.5044
  159DOPC   C2319149  -0.310   0.335  16.501  0.0898  0.2951  0.2074
  159DOPC   H3R19150  -0.412   0.369  16.473  0.6089  0.8014 -1.1919
  159DOPC   H3S19151  -0.330   0.243  16.559  0.1034  0.3665  0.3254
  159DOPC   C2419152  -0.231   0.291  16.380  0.8404 -0.0015 -0.1219
  159DOPC   H4R19153  -0.136   0.250  16.422  1.7943 -0.2423 -2.3392
  159DOPC   H4S19154  -0.200   0.380  16.321  0.7051 -1.5662 -2.7262
  159DOPC   C2519155  -0.295   0.186  16.296 -0.3992 -0.1363 -0.5782
  159DOPC   H5R19156  -0.403   0.210  16.282 -0.4354  0.3027  0.4294
  159DOPC   H5S19157  -0.300   0.095  16.360 -1.0749  0.2556 -0.0515
  159DOPC   C2619158  -0.208   0.173  16.169  0.3352  0.0783 -0.1243
  159DOPC   H6R19159  -0.103   0.206  16.185 -0.0149  0.8276  0.7414
  159DOPC   H6S19160  -0.244   0.253  16.102 -0.7787  0.2881  0.6862
  159DOPC   C2719161  -0.218   0.044  16.098 -0.2244  0.3504  0.2501
  159DOPC   H7R19162  -0.324   0.016  16.080  0.0989 -0.5567 -0.3678
  159DOPC   H7S19163  -0.171  -0.035  16.161 -0.2548 -0.2278 -0.4281
  159DOPC   C2819164  -0.153   0.044  15.961 -0.9586 -0.5849  0.4052
  159DOPC   H8R19165  -0.131  -0.064  15.942  0.2980 -0.3829  0.5736
  159DOPC   H8S19166  -0.057   0.098  15.973 -1.6600  0.2032  3.1463
  159DOPC   C2919167  -0.219   0.126  15.854  0.5375 -0.3369  0.2477
  159DOPC   H9R19168  -0.159   0.214  15.826  0.1626  0.2043  1.0984
  159DOPC  C21019169  -0.341   0.108  15.799  0.0967 -0.1192 -0.2131
  159DOPC  H10R19170  -0.388   0.184  15.735 -0.0871  0.3046  0.4161
  159DOPC  C21119171  -0.433  -0.008  15.845 -0.6038 -0.5869  1.2428
  159DOPC  H11R19172  -0.509   0.020  15.922 -0.4265 -1.7188  1.8523
  159DOPC  H11S19173  -0.373  -0.086  15.897  0.9017  0.7983  1.6596
  159DOPC  C21219174  -0.519  -0.066  15.736 -0.5384  0.2701 -0.4104
  159DOPC  H12R19175  -0.571  -0.155  15.776  3.0187 -1.2734  1.2155
  159DOPC  H12S19176  -0.452  -0.105  15.656 -3.0686 -1.7939 -1.6604
  159DOPC  C21319177  -0.618   0.038  15.673 -0.6697 -0.8060 -0.0363
  159DOPC  H13R19178  -0.565   0.134  15.656 -0.6188 -0.7546  0.3933
  159DOPC  H13S19179  -0.700   0.053  15.747  1.0810 -0.6602  1.9518
  159DOPC  C21419180  -0.672  -0.001  15.529 -0.2960  0.0112  0.5311
  159DOPC  H14R19181  -0.745   0.078  15.500 -0.2575  0.5338  1.8195
  159DOPC  H14S19182  -0.728  -0.096  15.544 -0.5160  0.2106  0.9743
  159DOPC  C21519183  -0.564  -0.014  15.420 -0.2073 -0.1917 -0.6476
  159DOPC  H15R19184  -0.481  -0.082  15.448  1.7316  1.5976 -1.7490
  159DOPC  H15S19185  -0.518   0.087  15.413  0.3484 -0.3225  0.7623
  159DOPC  C21619186  -0.633  -0.053  15.288 -0.5030  0.2465 -0.3813
  159DOPC  H16R19187  -0.708   0.026  15.263  1.0459  1.4151 -1.6002
  159DOPC  H16S19188  -0.690  -0.148  15.297 -0.4710  0.4262  2.9129
  159DOPC  C21719189  -0.526  -0.064  15.179 -0.5553 -0.0769 -0.3858
  159DOPC  H17R19190  -0.448  -0.132  15.218  2.7148  3.0701 -0.8841
  159DOPC  H17S19191  -0.488   0.039  15.162 -1.5034 -0.0743 -2.8807
  159DOPC  C21819192  -0.577  -0.129  15.052 -0.4603 -0.2430  0.1094
  159DOPC  H18R19193  -0.642  -0.056  14.999 -1.9460 -1.7856 -0.2564
  159DOPC  H18S19194  -0.643  -0.216  15.071 -2.8322  1.1654 -1.0970
  159DOPC  H18T19195  -0.498  -0.163  14.982 -0.9737 -0.7284 -0.2416
  159DOPC   C3319196  -0.779   0.481  16.506  0.4746  0.1125  0.7575
  159DOPC   H3X19197  -0.863   0.536  16.553 -1.1414 -1.3927 -0.2536
  159DOPC   H3Y19198  -0.756   0.391  16.567 -0.5887 -0.3504  0.5049
  159DOPC   C3419199  -0.844   0.425  16.375 -0.2353  0.0024 -0.2070
  159DOPC   H4X19200  -0.787   0.355  16.310 -0.2094 -0.8656  0.7366
  159DOPC   H4Y19201  -0.871   0.505  16.303 -0.9110  0.7775  0.8703
  159DOPC   C3519202  -0.980   0.353  16.405 -0.5999 -0.2710 -0.1454
  159DOPC   H5X19203  -1.031   0.423  16.474 -0.7124 -0.2194 -0.2808
  159DOPC   H5Y19204  -0.963   0.252  16.449  0.3403  0.4099  1.1314
  159DOPC   C3619205  -1.073   0.337  16.281  0.7610 -0.4190 -0.2147
  159DOPC   H6X19206  -1.011   0.309  16.193  2.3237  0.0703  0.6750
  159DOPC   H6Y19207  -1.135   0.250  16.311 -0.3414  0.5063  0.2740
  159DOPC   C3719208  -1.169   0.457  16.255  0.8782  0.4668  0.0703
  159DOPC   H7X19209  -1.184   0.497  16.357 -0.0759 -0.5141  0.3366
  159DOPC   H7Y19210  -1.124   0.530  16.185  0.0902  1.9581  1.0778
  159DOPC   C3819211  -1.307   0.425  16.197  0.2165  0.1576  0.1123
  159DOPC   H8X19212  -1.339   0.346  16.268 -1.3182  0.6218 -0.0341
  159DOPC   H8Y19213  -1.289   0.383  16.095 -1.3261 -1.6149  0.5219
  159DOPC   C3919214  -1.407   0.539  16.209 -0.6854  0.1762 -0.6510
  159DOPC   H9X19215  -1.458   0.561  16.304  0.3882 -3.0807  0.7948
  159DOPC  C31019216  -1.451   0.616  16.105  1.2362  0.7202  0.0065
  159DOPC  H10X19217  -1.538   0.680  16.127  0.7989  0.0487  0.2621
  159DOPC  C31119218  -1.413   0.594  15.961 -0.5496  0.6078 -0.7784
  159DOPC  H11X19219  -1.324   0.530  15.942 -1.2907 -0.0359 -2.3411
  159DOPC  H11Y19220  -1.380   0.693  15.924 -1.0288  1.1854  0.3193
  159DOPC  C31219221  -1.531   0.548  15.868 -0.2824 -0.5308 -0.3010
  159DOPC  H12X19222  -1.613   0.616  15.900 -1.0479 -1.8460  0.6066
  159DOPC  H12Y19223  -1.551   0.444  15.899  0.5802 -0.8198 -0.6853
  159DOPC  C31319224  -1.483   0.546  15.719  0.3484  0.7836  0.2064
  159DOPC  H13X19225  -1.470   0.650  15.682 -0.0585  0.1284 -1.9388
  159DOPC  H13Y19226  -1.380   0.506  15.717  0.4868  1.1557 -0.3754
  159DOPC  C31419227  -1.569   0.453  15.637  0.3730 -0.0232 -0.1261
  159DOPC  H14X19228  -1.498   0.423  15.556  0.4469  0.6344 -0.3116
  159DOPC  H14Y19229  -1.610   0.366  15.692  1.6294 -0.2004  0.5649
  159DOPC  C31519230  -1.677   0.525  15.548 -0.5009 -0.2435 -0.1732
  159DOPC  H15X19231  -1.622   0.611  15.503 -0.3362 -0.2600 -0.0014
  159DOPC  H15Y19232  -1.760   0.563  15.611 -0.7161 -0.6357 -0.2126
  159DOPC  C31619233  -1.728   0.430  15.441  0.0827  0.0001  0.2861
  159DOPC  H16X19234  -1.651   0.362  15.399 -0.5869 -0.1075 -0.8009
  159DOPC  H16Y19235  -1.808   0.366  15.486 -1.3931  1.7223  0.2017
  159DOPC  C31719236  -1.800   0.497  15.318  0.8418  0.4648  0.0256
  159DOPC  H17X19237  -1.733   0.570  15.269  1.1564 -0.4001 -0.8509
  159DOPC  H17Y19238  -1.824   0.417  15.245 -2.3300  1.6179 -0.3754
  159DOPC  C31819239  -1.930   0.567  15.368  0.0797 -0.1535  1.0752
  159DOPC  H18X19240  -1.970   0.617  15.278 -1.4393 -0.9075  1.3033
  159DOPC  H18Y19241  -2.013   0.502  15.402  0.0895 -0.9040 -0.2722
  159DOPC  H18Z19242  -1.901   0.638  15.448  0.0776 -1.2455  2.0775
  160DOPC     N19243   1.896   6.008  16.724 -0.0965  0.0852  0.0095
  160DOPC   C1219244   1.849   6.147  16.666 -0.6234  0.5007  0.5112
  160DOPC  H12A19245   1.761   6.195  16.707  0.1660  2.0814  0.4263
  160DOPC  H12B19246   1.826   6.134  16.561 -1.5746  0.9800  0.6452
  160DOPC   C1319247   1.779   5.920  16.716 -0.1610  0.3949 -0.0128
  160DOPC  H13A19248   1.788   5.824  16.766 -1.7293  0.5238  0.5933
  160DOPC  H13B19249   1.699   5.958  16.778 -0.5738 -0.7420  0.1931
  160DOPC  H13C19250   1.744   5.890  16.618  1.7355 -1.6678 -0.1326
  160DOPC   C1419251   1.930   6.021  16.863 -0.2511 -0.1408 -0.3014
  160DOPC  H14A19252   2.013   6.089  16.870  0.3507 -0.5585 -2.7212
  160DOPC  H14B19253   1.849   6.060  16.923 -0.1995 -0.3451 -0.0958
  160DOPC  H14C19254   1.949   5.923  16.904 -2.0241  0.0820  1.2069
  160DOPC   C1519255   2.007   5.940  16.645 -0.2207  0.2660  0.1606
  160DOPC  H15A19256   2.036   5.842  16.679  2.3969  0.5614 -0.9403
  160DOPC  H15B19257   2.100   5.992  16.665  1.2444 -3.1260  3.4573
  160DOPC  H15C19258   1.998   5.927  16.539  0.9144 -1.9720  0.2789
  160DOPC   C1119259   1.953   6.254  16.670 -0.1457  0.4753 -0.7630
  160DOPC  H11A19260   1.974   6.280  16.776 -1.7224 -1.3707  0.0475
  160DOPC  H11B19261   2.051   6.228  16.622  1.2083  0.9206  1.6171
  160DOPC     P19262   1.834   6.482  16.675  0.3256 -0.2525  0.2046
  160DOPC   O1319263   1.925   6.596  16.718  0.1951  0.0529  0.2620
  160DOPC   O1419264   1.747   6.422  16.782  0.2490 -0.0524 -0.2570
  160DOPC   O1219265   1.906   6.366  16.594 -0.6433 -0.1265 -0.6891
  160DOPC   O1119266   1.728   6.538  16.563  0.6483 -0.3142  0.8940
  160DOPC    C119267   1.703   6.466  16.439  0.2594  0.0228 -0.4801
  160DOPC    HA19268   1.594   6.444  16.437  0.1963  0.3137 -0.2955
  160DOPC    HB19269   1.749   6.365  16.442  0.0523 -0.0587  0.1391
  160DOPC    C219270   1.740   6.540  16.310  0.0430 -0.0461  0.0370
  160DOPC    HS19271   1.734   6.483  16.215 -1.5672 -1.3387  0.8676
  160DOPC   O2119272   1.877   6.577  16.326 -0.3704  0.3055 -0.1540
  160DOPC   C2119273   1.958   6.474  16.308  0.1459 -0.0200 -0.0865
  160DOPC   O2219274   1.930   6.371  16.246  0.1579 -0.2867 -0.2300
  160DOPC   C2219275   2.100   6.518  16.343  0.6017  0.5198 -0.1489
  160DOPC   H2R19276   2.179   6.443  16.321  0.7829 -0.1469  2.4227
  160DOPC   H2S19277   2.089   6.515  16.454 -1.0864  1.1146 -0.2774
  160DOPC    C319278   1.660   6.675  16.297  0.4317 -0.9653 -0.4088
  160DOPC    HX19279   1.698   6.744  16.375  2.4433 -2.5564  0.1308
  160DOPC    HY19280   1.554   6.648  16.318  0.8193 -1.7231  0.6507
  160DOPC   O3119281   1.671   6.745  16.172 -0.0101  0.5330 -0.0095
  160DOPC   C3119282   1.586   6.705  16.078 -1.0111  0.0240 -0.0083
  160DOPC   O3219283   1.481   6.641  16.094 -0.0274  1.0684  0.6988
  160DOPC   C3219284   1.644   6.749  15.943 -0.1489 -0.7891  0.6271
  160DOPC   H2X19285   1.657   6.859  15.952 -1.6848 -0.5946  0.8160
  160DOPC   H2Y19286   1.734   6.685  15.933  0.4036  0.2421 -1.7091
  160DOPC   C2319287   2.142   6.661  16.292  0.5572 -0.5315  0.3010
  160DOPC   H3R19288   2.219   6.690  16.366 -0.1234 -2.4877  1.8580
  160DOPC   H3S19289   2.057   6.733  16.296  1.7073  0.8197  2.7180
  160DOPC   C2419290   2.188   6.648  16.146 -0.3048 -0.1297  0.9043
  160DOPC   H4R19291   2.258   6.562  16.138 -1.1447 -0.6767 -1.7231
  160DOPC   H4S19292   2.237   6.739  16.105 -1.4581  0.6198  1.1385
  160DOPC   C2519293   2.082   6.618  16.044 -0.3820  0.0414  0.2811
  160DOPC   H5R19294   1.996   6.688  16.055  0.6065  1.3433 -0.0772
  160DOPC   H5S19295   2.043   6.514  16.054  0.4791 -0.8178 -3.7552
  160DOPC   C2619296   2.129   6.638  15.902 -0.2385 -0.4056 -0.0250
  160DOPC   H6R19297   2.212   6.567  15.882 -0.1590 -0.9500  2.0054
  160DOPC   H6S19298   2.155   6.746  15.894 -1.5643  0.0517  1.2433
  160DOPC   C2719299   2.014   6.624  15.797 -0.3237  0.1845  0.0561
  160DOPC   H7R19300   1.950   6.715  15.800  0.3171  0.6290  1.6539
  160DOPC   H7S19301   1.951   6.537  15.826 -0.6819 -0.3541 -2.1670
  160DOPC   C2819302   2.073   6.612  15.658  0.0612 -0.0947  0.4723
  160DOPC   H8R19303   1.996   6.567  15.591  0.9187  0.8766 -1.2237
  160DOPC   H8S19304   2.151   6.534  15.663 -0.1535 -0.4552 -1.1656
  160DOPC   C2919305   2.133   6.736  15.602  0.6785 -0.0044 -0.5628
  160DOPC   H9R19306   2.117   6.826  15.664 -1.9602 -0.2231 -0.8005
  160DOPC  C21019307   2.176   6.747  15.476 -0.0107  0.1647  0.3785
  160DOPC  H10R19308   2.211   6.847  15.448 -2.8764  1.3253  0.6001
  160DOPC  C21119309   2.180   6.644  15.362  1.1848 -0.1804 -0.8598
  160DOPC  H11R19310   2.112   6.688  15.286  0.8835  0.4882 -0.2214
  160DOPC  H11S19311   2.154   6.541  15.392 -2.4886  0.5802 -0.9651
  160DOPC  C21219312   2.315   6.637  15.287 -0.3371  0.1892 -0.2192
  160DOPC  H12R19313   2.393   6.609  15.361 -0.2592 -0.2826 -0.4749
  160DOPC  H12S19314   2.335   6.743  15.257 -1.4348 -0.1629 -2.3972
  160DOPC  C21319315   2.322   6.561  15.154  0.5378  0.4151 -0.3080
  160DOPC  H13R19316   2.244   6.607  15.088  0.4111  1.2419  0.4047
  160DOPC  H13S19317   2.285   6.459  15.178  1.9803 -0.9222 -3.2602
  160DOPC  C21419318   2.465   6.552  15.103  0.1938  0.0846  1.1679
  160DOPC  H14R19319   2.537   6.543  15.187  1.4283  0.6905  0.2066
  160DOPC  H14S19320   2.491   6.653  15.063 -0.1091 -0.6926 -1.1300
  160DOPC  C21519321   2.488   6.450  14.992 -0.1439  0.0420 -0.5453
  160DOPC  H15R19322   2.456   6.355  15.038  0.4095  0.4884  0.8128
  160DOPC  H15S19323   2.594   6.454  14.958  0.0337  1.3782  0.0943
  160DOPC  C21619324   2.408   6.472  14.866 -0.3420 -0.6346  0.4175
  160DOPC  H16R19325   2.404   6.581  14.846 -0.6620 -0.3477  1.9453
  160DOPC  H16S19326   2.299   6.453  14.882 -0.7285  0.7518 -0.3847
  160DOPC  C21719327   2.457   6.401  14.735 -0.1334  0.5174  0.0536
  160DOPC  H17R19328   2.371   6.358  14.680 -2.0101  0.2740  3.0030
  160DOPC  H17S19329   2.527   6.319  14.764  0.1610  0.7076 -0.1079
  160DOPC  C21819330   2.523   6.503  14.641 -0.0151  0.2544  0.1351
  160DOPC  H18R19331   2.534   6.462  14.538 -1.0052 -2.5228  1.0378
  160DOPC  H18S19332   2.621   6.533  14.683  0.9576 -1.0785 -1.0927
  160DOPC  H18T19333   2.471   6.601  14.639  0.5720  0.5814 -2.2227
  160DOPC   C3319334   1.559   6.728  15.817  1.1501  0.1138 -0.1842
  160DOPC   H3X19335   1.470   6.794  15.823  0.6284 -0.5442 -0.5621
  160DOPC   H3Y19336   1.521   6.624  15.815  0.6649  0.3082 -1.6541
  160DOPC   C3419337   1.638   6.741  15.684  0.1521  0.3279  0.1639
  160DOPC   H4X19338   1.703   6.654  15.661  1.4573  1.4156 -0.3916
  160DOPC   H4Y19339   1.710   6.824  15.699  1.6853 -1.2553  2.0906
  160DOPC   C3519340   1.544   6.756  15.560  0.1641  0.1328  0.0949
  160DOPC   H5X19341   1.462   6.826  15.589 -1.0227 -0.8570 -0.7809
  160DOPC   H5Y19342   1.496   6.658  15.538  0.7122 -0.6144  2.0349
  160DOPC   C3619343   1.608   6.806  15.427 -0.3838  0.4409  0.1681
  160DOPC   H6X19344   1.656   6.906  15.436  1.1882 -0.0390 -1.9675
  160DOPC   H6Y19345   1.686   6.732  15.398  0.3034  0.5966  1.5718
  160DOPC   C3719346   1.498   6.817  15.312  0.2410 -0.1875  0.1718
  160DOPC   H7X19347   1.448   6.720  15.290 -0.5547  0.5099 -1.1867
  160DOPC   H7Y19348   1.422   6.888  15.353  0.5267  1.3045 -1.7503
  160DOPC   C3819349   1.547   6.894  15.187  0.1907  0.2058  0.1274
  160DOPC   H8X19350   1.584   6.998  15.201 -0.5920  0.9091 -2.5213
  160DOPC   H8Y19351   1.455   6.904  15.125 -0.3014  1.0559  0.9704
  160DOPC   C3919352   1.652   6.821  15.108  0.0871  0.6845 -0.0598
  160DOPC   H9X19353   1.683   6.722  15.144 -0.7765  1.2465  2.4261
  160DOPC  C31019354   1.737   6.874  15.015  0.5867 -0.8390  0.0287
  160DOPC  H10X19355   1.813   6.811  14.966  1.6402 -0.2071  0.7902
  160DOPC  C31119356   1.747   7.020  14.965 -0.0999 -0.4423  0.2440
  160DOPC  H11X19357   1.673   7.075  15.027  3.5202  1.9094  2.8722
  160DOPC  H11Y19358   1.713   7.028  14.860  1.2885  0.7844 -0.1508
  160DOPC  C31219359   1.885   7.072  14.970 -0.5099  0.2099 -0.5884
  160DOPC  H12X19360   1.883   7.181  14.947  1.2184  0.2996 -0.4821
  160DOPC  H12Y19361   1.948   7.029  14.889  1.4733 -0.2058  1.1056
  160DOPC  C31319362   1.964   7.062  15.104 -0.0357 -0.3329  0.1603
  160DOPC  H13X19363   1.901   7.097  15.189  0.1498  0.2729  0.0544
  160DOPC  H13Y19364   1.995   6.958  15.128  0.4931  0.4969  3.6837
  160DOPC  C31419365   2.089   7.154  15.113 -0.6918 -0.6453 -0.5767
  160DOPC  H14X19366   2.157   7.134  15.028 -0.1920  1.6662 -0.7801
  160DOPC  H14Y19367   2.061   7.262  15.112  0.3965 -0.3309  0.4432
  160DOPC  C31519368   2.166   7.116  15.245 -0.0266 -0.0172  0.5399
  160DOPC  H15X19369   2.197   7.013  15.216 -0.1558  0.3439 -0.9730
  160DOPC  H15Y19370   2.099   7.118  15.333  0.1764 -0.1467  0.6982
  160DOPC  C31619371   2.293   7.197  15.277  0.2339  0.1467 -0.2065
  160DOPC  H16X19372   2.364   7.138  15.339 -0.5901  1.2421  1.9054
  160DOPC  H16Y19373   2.345   7.208  15.180  2.1030 -2.5454  0.3917
  160DOPC  C31719374   2.252   7.334  15.342 -0.0521  0.3096 -0.1424
  160DOPC  H17X19375   2.163   7.370  15.286 -1.6271 -0.7517  1.5605
  160DOPC  H17Y19376   2.209   7.324  15.444 -2.2490 -0.9072 -1.1126
  160DOPC  C31819377   2.366   7.436  15.324 -0.2570  0.1308  0.2058
  160DOPC  H18X19378   2.466   7.387  15.328  0.3976  1.5115  1.3220
  160DOPC  H18Y19379   2.371   7.498  15.232 -0.6463  0.1422  0.1920
  160DOPC  H18Z19380   2.357   7.511  15.405 -2.1069  0.7221 -0.4972
  161DOPC     N19381   3.972   6.762  17.227 -0.0922 -0.6577 -0.7934
  161DOPC   C1219382   3.932   6.739  17.087 -0.4926  0.0005 -0.5388
  161DOPC  H12A19383   3.833   6.696  17.096 -0.4071 -0.1713 -0.4278
  161DOPC  H12B19384   3.987   6.655  17.047 -2.0326 -0.8996 -0.8454
  161DOPC   C1319385   4.107   6.834  17.234 -0.6176 -0.1114 -0.1247
  161DOPC  H13A19386   4.096   6.915  17.163  0.5033 -1.8164 -2.3507
  161DOPC  H13B19387   4.137   6.871  17.331  2.2491 -1.7826 -0.2639
  161DOPC  H13C19388   4.184   6.771  17.191  0.5084  0.7864  0.5000
  161DOPC   C1419389   3.968   6.638  17.314 -0.1841  0.9747  0.3027
  161DOPC  H14A19390   4.045   6.569  17.284  1.4584  2.5767  0.6724
  161DOPC  H14B19391   3.989   6.656  17.418 -1.0199 -0.0213  0.6608
  161DOPC  H14C19392   3.874   6.586  17.311  0.8842 -1.1180  1.2571
  161DOPC   C1519393   3.872   6.855  17.296  0.0648  0.3598  0.0019
  161DOPC  H15A19394   3.907   6.868  17.397  0.6072 -2.7646  0.3176
  161DOPC  H15B19395   3.781   6.801  17.318 -0.2116  1.2595  1.1444
  161DOPC  H15C19396   3.848   6.943  17.238  1.4383 -0.2143 -1.5245
  161DOPC   C1119397   3.928   6.850  16.978  0.1355  0.5345 -0.2273
  161DOPC  H11A19398   3.902   6.804  16.880 -0.4084 -0.5101  0.3938
  161DOPC  H11B19399   3.848   6.919  17.012 -0.7685 -1.1401  1.1713
  161DOPC     P19400   4.152   6.907  16.850 -0.0334 -0.0101 -0.5851
  161DOPC   O1319401   4.212   6.769  16.870 -0.5458 -0.1288 -0.1279
  161DOPC   O1419402   4.242   7.028  16.853  0.7421  0.0912 -0.0503
  161DOPC   O1219403   4.052   6.922  16.969 -0.2631  0.3364 -0.0378
  161DOPC   O1119404   4.056   6.903  16.732  0.2620 -0.8298 -0.0255
  161DOPC    C119405   4.010   7.031  16.681  0.1640  0.6964  0.9159
  161DOPC    HA19406   3.992   7.114  16.752 -0.3027  0.1124  1.4891
  161DOPC    HB19407   3.909   7.019  16.637  0.8016  3.0203 -1.3828
  161DOPC    C219408   4.080   7.090  16.553  0.3243 -0.2393  0.3646
  161DOPC    HS19409   4.165   7.158  16.575  0.2150  0.2029 -0.5343
  161DOPC   O2119410   3.970   7.160  16.483 -0.3032  0.1772  0.3663
  161DOPC   C2119411   4.008   7.260  16.397 -0.1863 -0.4650  0.0258
  161DOPC   O2219412   4.122   7.303  16.385 -0.7641  0.5905  0.4698
  161DOPC   C2219413   3.889   7.332  16.339  0.2447 -0.5336  0.5434
  161DOPC   H2R19414   3.874   7.428  16.394  3.2105 -0.7491  1.9381
  161DOPC   H2S19415   3.800   7.271  16.365  0.9237 -1.2588  1.2336
  161DOPC    C319416   4.134   6.975  16.467  0.2700  0.1398  0.5219
  161DOPC    HX19417   4.049   6.909  16.440  1.0412 -1.0021  0.8289
  161DOPC    HY19418   4.208   6.922  16.530 -0.6064 -1.9308 -0.1253
  161DOPC   O3119419   4.184   7.024  16.342  0.0880  0.3411 -0.1138
  161DOPC   C3119420   4.306   7.090  16.356 -0.4637 -0.1690 -0.3265
  161DOPC   O3219421   4.367   7.100  16.463 -0.5988  0.2777 -0.2070
  161DOPC   C3219422   4.344   7.147  16.221  0.1223  0.7143  0.0185
  161DOPC   H2X19423   4.263   7.191  16.160  1.8840  0.4085 -2.7439
  161DOPC   H2Y19424   4.417   7.229  16.239 -0.8459  1.8495 -1.0713
  161DOPC   C2319425   3.891   7.360  16.184 -0.4226  0.5453  0.6790
  161DOPC   H3R19426   3.989   7.404  16.154 -1.1398  1.0030 -1.1333
  161DOPC   H3S19427   3.813   7.433  16.151 -0.0076  1.1818  1.0779
  161DOPC   C2419428   3.871   7.238  16.085  0.0367  0.4977 -0.2171
  161DOPC   H4R19429   3.775   7.185  16.103  1.4166 -1.7192  1.1384
  161DOPC   H4S19430   3.952   7.163  16.100  0.1639  0.2458 -1.9144
  161DOPC   C2519431   3.864   7.284  15.937 -0.5447  0.0052  0.0845
  161DOPC   H5R19432   3.964   7.331  15.923 -0.2574 -0.8085 -0.6555
  161DOPC   H5S19433   3.791   7.367  15.920  0.0683  0.6579  0.5586
  161DOPC   C2619434   3.843   7.184  15.827  0.1761  0.4235 -0.2674
  161DOPC   H6R19435   3.747   7.127  15.825  0.7115 -0.5076 -0.1263
  161DOPC   H6S19436   3.926   7.110  15.828 -0.3086 -0.2118  2.5688
  161DOPC   C2719437   3.829   7.262  15.694 -0.7695  1.0952 -0.1986
  161DOPC   H7R19438   3.923   7.316  15.668  0.0789 -0.4131 -0.3863
  161DOPC   H7S19439   3.755   7.341  15.718  1.1753  2.6452  0.9815
  161DOPC   C2819440   3.775   7.172  15.576  0.5800  0.5684 -0.2990
  161DOPC   H8R19441   3.664   7.167  15.578  0.6376 -2.9810  0.8612
  161DOPC   H8S19442   3.816   7.071  15.598 -0.3871  0.1548 -0.3166
  161DOPC   C2919443   3.823   7.232  15.439  0.4901 -0.1315 -0.3013
  161DOPC   H9R19444   3.927   7.267  15.437  0.1618  1.2767  2.5497
  161DOPC  C21019445   3.761   7.215  15.323  0.1941 -0.8536 -0.2066
  161DOPC  H10R19446   3.808   7.266  15.238 -1.1336  1.1782  0.2101
  161DOPC  C21119447   3.630   7.150  15.286  0.5111  0.3345  0.8297
  161DOPC  H11R19448   3.568   7.233  15.245  0.6664 -0.6382 -1.5280
  161DOPC  H11S19449   3.574   7.110  15.373 -0.3367 -1.0755 -0.3073
  161DOPC  C21219450   3.636   7.040  15.177 -0.3442  0.4340  0.1911
  161DOPC  H12R19451   3.534   6.997  15.163 -0.6187  1.3496 -0.7875
  161DOPC  H12S19452   3.700   6.952  15.200 -1.1004  0.4223  2.5052
  161DOPC  C21319453   3.681   7.091  15.035  0.8168 -0.0445  1.0553
  161DOPC  H13R19454   3.683   7.001  14.970 -0.0798 -0.0530  1.0242
  161DOPC  H13S19455   3.784   7.129  15.028  0.8362 -0.3123 -0.5206
  161DOPC  C21419456   3.571   7.184  14.979 -0.9851 -0.7911 -1.3419
  161DOPC  H14R19457   3.585   7.289  15.012  1.3503 -1.3174 -0.4709
  161DOPC  H14S19458   3.483   7.165  15.045 -0.1370 -0.4128 -0.0525
  161DOPC  C21519459   3.537   7.172  14.833 -0.2739  0.0964 -0.1110
  161DOPC  H15R19460   3.451   7.238  14.807 -1.7087 -1.5003  0.3551
  161DOPC  H15S19461   3.495   7.072  14.807  1.5928 -0.4307 -1.3447
  161DOPC  C21619462   3.666   7.192  14.752  0.2918 -0.1473 -0.1480
  161DOPC  H16R19463   3.724   7.098  14.767 -0.8797 -0.9416 -0.4744
  161DOPC  H16S19464   3.732   7.278  14.775 -1.6130  0.6284  3.0690
  161DOPC  C21719465   3.621   7.179  14.600 -0.8729  0.1765  0.2563
  161DOPC  H17R19466   3.520   7.220  14.578 -0.5638  0.0139 -1.5937
  161DOPC  H17S19467   3.621   7.071  14.576 -0.2794  0.3738 -0.6680
  161DOPC  C21819468   3.729   7.245  14.510  0.1728 -0.6001 -0.4519
  161DOPC  H18R19469   3.699   7.224  14.406  0.5763 -0.2335 -0.6476
  161DOPC  H18S19470   3.828   7.204  14.540 -0.6843 -3.0897 -0.8390
  161DOPC  H18T19471   3.716   7.354  14.529 -2.4222 -1.0104  0.4250
  161DOPC   C3319472   4.414   7.040  16.133  0.6474  0.2502 -0.0406
  161DOPC   H3X19473   4.355   6.946  16.139  0.7771  0.1066 -0.9081
  161DOPC   H3Y19474   4.512   7.005  16.173  0.4418  1.2202  1.3811
  161DOPC   C3419475   4.419   7.075  15.985  0.1777 -0.5026 -0.4619
  161DOPC   H4X19476   4.498   7.012  15.939 -0.1109  0.4194 -2.3066
  161DOPC   H4Y19477   4.439   7.183  15.969 -0.9946 -0.6260 -3.6280
  161DOPC   C3519478   4.292   7.063  15.902  1.0700  0.8718  0.0723
  161DOPC   H5X19479   4.225   7.151  15.912  1.7111  1.3434  0.2810
  161DOPC   H5Y19480   4.230   6.976  15.934  0.9082  0.3788 -1.5033
  161DOPC   C3619481   4.333   7.053  15.750 -0.4672  0.3156 -0.1486
  161DOPC   H6X19482   4.405   7.137  15.735  1.1218 -1.4371 -3.5607
  161DOPC   H6Y19483   4.400   6.967  15.729 -0.4914 -0.2961  2.0969
  161DOPC   C3719484   4.204   7.063  15.663  0.3028 -0.4940  0.0114
  161DOPC   H7X19485   4.142   7.148  15.698 -1.7237 -1.4033 -1.1985
  161DOPC   H7Y19486   4.226   7.075  15.555  0.4657  1.0593  0.1993
  161DOPC   C3819487   4.126   6.929  15.672 -0.3038 -0.0702 -0.4845
  161DOPC   H8X19488   4.017   6.947  15.677 -0.1987  0.6116 -0.5392
  161DOPC   H8Y19489   4.144   6.891  15.775 -1.6026  1.2151  0.2374
  161DOPC   C3919490   4.164   6.818  15.582 -0.1295  0.2230  0.8728
  161DOPC   H9X19491   4.239   6.750  15.627  0.4969  0.2067 -0.1639
  161DOPC  C31019492   4.087   6.763  15.480  0.0621  0.4841  0.0234
  161DOPC  H10X19493   4.119   6.674  15.424 -2.3447 -1.4539  1.5312
  161DOPC  C31119494   3.968   6.836  15.418 -0.2457 -0.1118 -0.5173
  161DOPC  H11X19495   3.985   6.855  15.309 -0.9138 -0.0940 -0.6263
  161DOPC  H11Y19496   3.931   6.925  15.473 -0.5080 -0.9778  0.7323
  161DOPC  C31219497   3.846   6.740  15.413 -0.5019 -0.3151 -0.7734
  161DOPC  H12X19498   3.883   6.638  15.389 -0.4572 -0.4498 -0.1487
  161DOPC  H12Y19499   3.774   6.764  15.332 -1.2964  2.3219  0.5920
  161DOPC  C31319500   3.761   6.725  15.546 -0.8700 -0.2130 -0.1214
  161DOPC  H13X19501   3.719   6.623  15.532  1.6423 -1.0824 -2.2583
  161DOPC  H13Y19502   3.823   6.730  15.638  0.0824  0.9363 -0.7979
  161DOPC  C31419503   3.642   6.824  15.546 -0.0562  0.5446 -0.6418
  161DOPC  H14X19504   3.676   6.930  15.551  0.9112  0.2011  0.4393
  161DOPC  H14Y19505   3.589   6.802  15.451 -1.6665 -3.8543  1.0433
  161DOPC  C31519506   3.558   6.790  15.669  0.1848 -0.6361  0.0545
  161DOPC  H15X19507   3.611   6.833  15.757  0.3924 -1.7960  0.5110
  161DOPC  H15Y19508   3.544   6.682  15.690 -0.7149 -0.6314 -0.4493
  161DOPC  C31619509   3.416   6.851  15.668  0.2151 -0.0315 -0.5461
  161DOPC  H16X19510   3.430   6.960  15.651  1.6938 -0.2151 -0.6015
  161DOPC  H16Y19511   3.361   6.801  15.585 -0.0446 -0.3103 -0.2089
  161DOPC  C31719512   3.347   6.843  15.804  0.3683 -0.2494 -0.0425
  161DOPC  H17X19513   3.241   6.868  15.787  1.0807  1.2424 -3.0953
  161DOPC  H17Y19514   3.357   6.737  15.836  0.9265 -0.2452 -0.1822
  161DOPC  C31819515   3.403   6.938  15.914  0.4670 -0.2934 -0.2027
  161DOPC  H18X19516   3.503   6.911  15.953 -0.3408  0.0276  2.2998
  161DOPC  H18Y19517   3.409   7.040  15.870 -0.5366  0.4326  1.2744
  161DOPC  H18Z19518   3.343   6.946  16.007  1.6239  0.9450  0.4773
  162DOPC     N19519   2.927   5.879  17.120  0.4846  0.4685 -0.3292
  162DOPC   C1219520   2.939   5.765  17.020  0.2144  0.0073  1.0948
  162DOPC  H12A19521   2.977   5.682  17.078  1.4738  1.7202  2.8438
  162DOPC  H12B19522   3.010   5.796  16.945  0.0958 -1.2620  0.4193
  162DOPC   C1319523   3.052   5.871  17.200 -0.4906 -0.3419 -0.1297
  162DOPC  H13A19524   3.068   5.782  17.259 -1.9643  0.7688  2.0605
  162DOPC  H13B19525   3.139   5.867  17.136  0.2395  0.7407  0.7536
  162DOPC  H13C19526   3.070   5.955  17.265  1.3999 -0.6038 -0.2378
  162DOPC   C1419527   2.817   5.844  17.213 -0.4765 -0.1973  0.1049
  162DOPC  H14A19528   2.804   5.930  17.277 -0.8470 -0.3577  0.2478
  162DOPC  H14B19529   2.727   5.828  17.156  0.3017 -1.5540 -0.8269
  162DOPC  H14C19530   2.829   5.753  17.270 -1.4682 -2.4741 -3.0138
  162DOPC   C1519531   2.907   6.011  17.060  0.4000  0.1908 -0.2712
  162DOPC  H15A19532   2.976   6.029  16.978  0.6633 -2.0996 -0.6122
  162DOPC  H15B19533   2.912   6.091  17.132 -0.1426 -1.5190  1.7614
  162DOPC  H15C19534   2.807   6.024  17.022  0.9538  2.5496 -1.0925
  162DOPC   C1119535   2.806   5.734  16.948  0.2302  0.4291  0.0132
  162DOPC  H11A19536   2.839   5.655  16.877  1.9963 -0.0243  1.2690
  162DOPC  H11B19537   2.723   5.677  16.995 -2.7069  3.0826 -1.5360
  162DOPC     P19538   2.607   5.899  16.870 -0.0974  0.4720  0.1482
  162DOPC   O1319539   2.604   6.043  16.898 -0.1578 -0.1350 -0.4163
  162DOPC   O1419540   2.527   5.814  16.962  0.2234 -0.2064 -0.0194
  162DOPC   O1219541   2.757   5.843  16.865  0.0600  0.2375 -0.1802
  162DOPC   O1119542   2.541   5.883  16.727  0.4282 -0.6312 -0.0214
  162DOPC    C119543   2.567   5.765  16.650 -0.2525  0.2834 -0.2505
  162DOPC    HA19544   2.544   5.667  16.696 -1.6697  0.3575 -0.7628
  162DOPC    HB19545   2.674   5.749  16.623 -0.5551 -1.0473 -0.7335
  162DOPC    C219546   2.490   5.763  16.512 -0.4728  0.7746 -0.6193
  162DOPC    HS19547   2.549   5.685  16.460  0.4245  0.4916  0.7426
  162DOPC   O2119548   2.492   5.886  16.437 -0.0207 -0.0400  0.1787
  162DOPC   C2119549   2.602   5.938  16.391 -0.5476 -0.5876  0.0087
  162DOPC   O2219550   2.709   5.881  16.396  0.2376 -0.2324 -0.7962
  162DOPC   C2219551   2.568   6.060  16.305  0.6046  0.5734 -0.5395
  162DOPC   H2R19552   2.664   6.103  16.270  0.2168  2.0889  0.1646
  162DOPC   H2S19553   2.516   6.142  16.359  0.1831 -0.0358  0.0075
  162DOPC    C319554   2.343   5.717  16.517 -0.6055  0.5868  0.0131
  162DOPC    HX19555   2.281   5.807  16.540 -1.0122  0.1594  0.6369
  162DOPC    HY19556   2.311   5.655  16.604 -1.4016 -0.3960 -0.9477
  162DOPC   O3119557   2.293   5.657  16.401  0.5422 -0.3825  0.0145
  162DOPC   C3119558   2.336   5.535  16.368  0.5888 -0.0191  0.4178
  162DOPC   O3219559   2.415   5.468  16.432  0.1162 -0.2513 -0.4925
  162DOPC   C3219560   2.276   5.490  16.234  0.3935  0.1481  0.3162
  162DOPC   H2X19561   2.179   5.438  16.249  0.9806 -1.0736  0.0060
  162DOPC   H2Y19562   2.239   5.584  16.188  3.2731  1.5119  0.5707
  162DOPC   C2319563   2.500   6.024  16.172 -0.2604 -0.6245 -0.7378
  162DOPC   H3R19564   2.448   6.111  16.126  0.5798 -0.0049 -0.5241
  162DOPC   H3S19565   2.422   5.945  16.183 -0.2903 -0.5552 -0.4420
  162DOPC   C2419566   2.591   5.957  16.068 -0.2590 -0.2650 -0.4821
  162DOPC   H4R19567   2.653   5.878  16.116  0.5045  0.7054  0.1756
  162DOPC   H4S19568   2.643   6.043  16.020 -1.8141  1.0079  0.0150
  162DOPC   C2519569   2.490   5.910  15.960 -0.5573  0.5603 -0.4374
  162DOPC   H5R19570   2.422   5.995  15.937 -3.1969 -0.7732  1.8722
  162DOPC   H5S19571   2.427   5.830  16.004  1.9441 -1.0814  0.3298
  162DOPC   C2619572   2.567   5.862  15.835 -0.0702  0.0078  0.5874
  162DOPC   H6R19573   2.662   5.809  15.859  0.0648 -0.7372 -1.3851
  162DOPC   H6S19574   2.602   5.951  15.778 -0.9771 -0.5888 -0.9719
  162DOPC   C2719575   2.478   5.779  15.738  0.8630 -0.0522  0.8649
  162DOPC   H7R19576   2.403   5.845  15.688  2.5178  1.3757  0.1478
  162DOPC   H7S19577   2.421   5.700  15.791 -1.3874 -1.0640 -2.6864
  162DOPC   C2819578   2.557   5.695  15.625  0.0523  0.2299  0.2001
  162DOPC   H8R19579   2.481   5.636  15.570  0.2640  0.8224 -0.7532
  162DOPC   H8S19580   2.627   5.632  15.684 -0.8584 -0.9065  0.1013
  162DOPC   C2919581   2.622   5.789  15.532  0.5097 -0.5721  0.2375
  162DOPC   H9R19582   2.714   5.841  15.564  0.1167  0.8497 -0.8822
  162DOPC  C21019583   2.595   5.792  15.395  0.0538 -0.3787 -0.1307
  162DOPC  H10R19584   2.610   5.889  15.346 -0.8777  0.0827  0.4686
  162DOPC  C21119585   2.490   5.716  15.320 -0.2188 -0.1850 -0.0368
  162DOPC  H11R19586   2.388   5.758  15.330 -0.5160 -0.3233 -2.0942
  162DOPC  H11S19587   2.489   5.608  15.345 -1.0107 -1.3969 -4.4615
  162DOPC  C21219588   2.528   5.723  15.167 -0.6493  0.1492  0.0653
  162DOPC  H12R19589   2.630   5.683  15.149 -0.6492  0.9069 -1.7741
  162DOPC  H12S19590   2.545   5.832  15.152 -3.3540  0.7155  0.6437
  162DOPC  C21319591   2.423   5.660  15.072 -0.4828 -0.3784 -0.3498
  162DOPC  H13R19592   2.326   5.699  15.110 -1.1250 -1.3772 -0.9020
  162DOPC  H13S19593   2.432   5.549  15.077 -2.2569 -0.5590 -0.5581
  162DOPC  C21419594   2.437   5.731  14.936  0.0299  0.1311  0.0020
  162DOPC  H14R19595   2.533   5.712  14.883 -0.1302  0.6602 -0.4874
  162DOPC  H14S19596   2.418   5.838  14.959 -1.6758 -0.3624  1.0407
  162DOPC  C21519597   2.330   5.682  14.848  0.3382 -0.1219  0.7785
  162DOPC  H15R19598   2.331   5.740  14.753 -2.6870  1.0349  1.3537
  162DOPC  H15S19599   2.227   5.707  14.881  0.5652  0.7985  0.8165
  162DOPC  C21619600   2.341   5.533  14.809 -0.2691 -0.6464 -0.7563
  162DOPC  H16R19601   2.237   5.503  14.783 -0.2750 -1.2312 -0.1001
  162DOPC  H16S19602   2.363   5.464  14.893 -1.2133 -0.7983 -0.6232
  162DOPC  C21719603   2.425   5.500  14.690 -1.0752  0.1250  0.2016
  162DOPC  H17R19604   2.442   5.591  14.628  1.3232  0.1167  0.7428
  162DOPC  H17S19605   2.375   5.426  14.623  0.4727 -0.8745  0.1119
  162DOPC  C21819606   2.565   5.439  14.730  0.3746  0.1452 -0.8489
  162DOPC  H18R19607   2.645   5.446  14.653  1.7054  1.9255  0.6088
  162DOPC  H18S19608   2.538   5.332  14.745 -0.2050  0.5933  1.7875
  162DOPC  H18T19609   2.599   5.475  14.829 -1.7073 -0.0674 -0.0014
  162DOPC   C3319610   2.372   5.412  16.146 -0.1811 -0.1582 -0.4414
  162DOPC   H3X19611   2.321   5.373  16.055 -1.4561 -0.2095  0.2758
  162DOPC   H3Y19612   2.414   5.321  16.194 -0.5486 -0.7084 -1.1360
  162DOPC   C3419613   2.491   5.493  16.097  0.0714 -0.2958 -0.3034
  162DOPC   H4X19614   2.554   5.515  16.186 -1.3027 -0.0652  0.6446
  162DOPC   H4Y19615   2.467   5.590  16.048  3.7119  1.0128  0.2172
  162DOPC   C3519616   2.575   5.421  15.991 -0.4386 -0.9541  0.2624
  162DOPC   H5X19617   2.657   5.489  15.959 -0.9889 -0.0348  0.7605
  162DOPC   H5Y19618   2.513   5.398  15.902  1.2871 -0.8459 -1.0084
  162DOPC   C3619619   2.636   5.287  16.037 -0.2294 -0.1271 -0.2792
  162DOPC   H6X19620   2.672   5.290  16.142 -1.7732 -1.6573  0.3640
  162DOPC   H6Y19621   2.554   5.212  16.044  0.3972 -0.7319  0.9178
  162DOPC   C3719622   2.735   5.218  15.943  0.0103 -0.1610  0.1403
  162DOPC   H7X19623   2.832   5.271  15.943  0.1141 -0.1675 -3.2532
  162DOPC   H7Y19624   2.757   5.125  16.000  0.1985  0.8505  1.7861
  162DOPC   C3819625   2.683   5.178  15.803 -0.1541  0.1148 -0.0662
  162DOPC   H8X19626   2.682   5.273  15.746 -0.1413 -0.1733 -0.5565
  162DOPC   H8Y19627   2.576   5.148  15.805 -1.1476  3.2219 -0.9108
  162DOPC   C3919628   2.777   5.074  15.739  0.3892  0.6739  0.3896
  162DOPC   H9X19629   2.858   5.112  15.675  2.4350 -4.0183 -0.3017
  162DOPC  C31019630   2.759   4.940  15.720  0.0841 -0.3874  0.1126
  162DOPC  H10X19631   2.839   4.876  15.682  1.2818  2.5516 -2.7644
  162DOPC  C31119632   2.652   4.854  15.780  0.2922  0.5497  0.0696
  162DOPC  H11X19633   2.599   4.907  15.862 -1.1297 -0.4443 -0.1631
  162DOPC  H11Y19634   2.706   4.769  15.827 -0.7211  0.4484  1.0880
  162DOPC  C31219635   2.549   4.822  15.674  0.0895  0.5148  0.2738
  162DOPC  H12X19636   2.589   4.753  15.597  0.1152 -0.6710  1.3074
  162DOPC  H12Y19637   2.516   4.915  15.624 -0.1600  1.3037  1.8318
  162DOPC  C31319638   2.417   4.752  15.728  0.5042 -0.7192 -0.4629
  162DOPC  H13X19639   2.372   4.816  15.807 -2.3590  0.1212 -2.5779
  162DOPC  H13Y19640   2.340   4.749  15.648  0.7657  2.6730 -0.9809
  162DOPC  C31419641   2.439   4.613  15.788 -0.6240  0.5731 -0.7844
  162DOPC  H14X19642   2.492   4.555  15.710  0.9705 -0.3423  0.9066
  162DOPC  H14Y19643   2.506   4.625  15.876 -1.0269  0.4817 -0.4608
  162DOPC  C31519644   2.310   4.541  15.824  1.0578 -0.2691 -0.5969
  162DOPC  H15X19645   2.329   4.442  15.872 -0.2338 -0.7649 -1.0656
  162DOPC  H15Y19646   2.230   4.519  15.750 -1.0363  2.8001  0.5749
  162DOPC  C31619647   2.238   4.615  15.942  0.0349  0.6576 -0.2295
  162DOPC  H16X19648   2.324   4.641  16.007  1.0887 -0.2027 -1.2235
  162DOPC  H16Y19649   2.191   4.709  15.906  1.7293  1.0139 -1.6152
  162DOPC  C31719650   2.135   4.532  16.012  1.3675 -0.3431 -0.2344
  162DOPC  H17X19651   2.056   4.505  15.939  1.9551 -1.0282 -0.6282
  162DOPC  H17Y19652   2.182   4.435  16.038  1.4273 -0.3734 -0.4549
  162DOPC  C31819653   2.064   4.595  16.134 -0.6644 -0.4727  0.4536
  162DOPC  H18X19654   1.975   4.535  16.163 -1.4977  0.1195 -0.8140
  162DOPC  H18Y19655   2.139   4.607  16.216 -0.7521 -0.0718  0.4766
  162DOPC  H18Z19656   2.036   4.696  16.100  1.0403  0.6347  2.0868
  163DOPC     N19657   1.577   1.969  17.501 -0.2283  0.1130 -0.1964
  163DOPC   C1219658   1.533   2.067  17.395  0.1013  0.5944  0.3472
  163DOPC  H12A19659   1.596   2.155  17.388  0.7464  0.1150  0.0449
  163DOPC  H12B19660   1.438   2.108  17.427  1.5552  4.1791  0.5281
  163DOPC   C1319661   1.456   1.897  17.552  0.0119  0.3589  0.1665
  163DOPC  H13A19662   1.394   1.873  17.467  2.0373 -0.0371 -1.2740
  163DOPC  H13B19663   1.487   1.798  17.583 -1.8783 -0.6864 -1.1153
  163DOPC  H13C19664   1.398   1.946  17.628 -1.4947 -2.9339  1.2802
  163DOPC   C1419665   1.641   2.044  17.617  0.2608  0.3559 -0.7688
  163DOPC  H14A19666   1.582   2.109  17.681 -0.9600 -0.2010 -1.2994
  163DOPC  H14B19667   1.668   1.968  17.690 -1.5255  1.4106  1.1115
  163DOPC  H14C19668   1.734   2.094  17.594 -0.0277  1.0746 -0.3913
  163DOPC   C1519669   1.675   1.865  17.453  0.5943 -0.3866  0.4108
  163DOPC  H15A19670   1.632   1.798  17.380 -0.9178  2.8466 -1.9129
  163DOPC  H15B19671   1.694   1.801  17.538  0.0806  1.3769  1.9206
  163DOPC  H15C19672   1.769   1.904  17.417  0.7540 -1.3419 -0.2337
  163DOPC   C1119673   1.503   2.008  17.257  0.5497 -0.0611  0.0510
  163DOPC  H11A19674   1.471   2.096  17.195 -0.0719  0.2988  0.8594
  163DOPC  H11B19675   1.587   1.963  17.200  0.3466  0.2101 -0.4779
  163DOPC     P19676   1.253   1.928  17.206 -0.4055  0.1953 -0.4914
  163DOPC   O1319677   1.199   2.063  17.247 -0.1725  0.2379  0.0327
  163DOPC   O1419678   1.181   1.809  17.256  0.4167  0.0609 -0.5181
  163DOPC   O1219679   1.398   1.914  17.257  0.0474  0.0761  0.3480
  163DOPC   O1119680   1.263   1.916  17.049 -0.6267  0.2322  0.5653
  163DOPC    C119681   1.165   1.982  16.960 -0.6187  0.6755  0.5208
  163DOPC    HA19682   1.194   2.089  16.958  0.7761  0.3974  2.6010
  163DOPC    HB19683   1.060   1.983  16.998 -2.2081  2.6883 -3.3316
  163DOPC    C219684   1.169   1.918  16.818 -0.7467  0.3364  0.8112
  163DOPC    HS19685   1.270   1.955  16.791 -1.2072  2.8543  2.1554
  163DOPC   O2119686   1.064   1.975  16.738 -0.2707 -0.4257 -0.1294
  163DOPC   C2119687   1.107   2.002  16.620  0.7340  0.3780  0.0923
  163DOPC   O2219688   1.219   1.998  16.574 -0.0915 -0.2479  0.1454
  163DOPC   C2219689   0.987   2.048  16.532 -0.8063  0.0196  0.3808
  163DOPC   H2R19690   0.932   2.127  16.588  0.9622  0.2355  1.8799
  163DOPC   H2S19691   0.922   1.958  16.534 -1.2548  0.3132  2.6913
  163DOPC    C319692   1.146   1.761  16.814  0.3953 -1.0845  0.5295
  163DOPC    HX19693   1.038   1.755  16.840  1.1145  0.4845  4.6690
  163DOPC    HY19694   1.209   1.707  16.889  1.2486 -0.1544  0.5085
  163DOPC   O3119695   1.179   1.701  16.689  0.1722 -0.3299  0.1655
  163DOPC   C3119696   1.115   1.593  16.652 -0.2421  0.2440  0.8029
  163DOPC   O3219697   1.043   1.525  16.720  0.6142  0.1777 -0.0700
  163DOPC   C3219698   1.127   1.572  16.503  0.0381  0.1442  0.0536
  163DOPC   H2X19699   1.217   1.508  16.489  0.1148  0.3337 -0.3137
  163DOPC   H2Y19700   1.038   1.510  16.478  0.5724 -0.5982 -0.0529
  163DOPC   C2319701   1.021   2.099  16.389 -0.1867 -0.0614  0.1463
  163DOPC   H3R19702   1.052   2.011  16.329  0.6961  0.9384 -0.9263
  163DOPC   H3S19703   1.108   2.169  16.396 -0.5385  0.3248  0.7605
  163DOPC   C2419704   0.903   2.172  16.310 -0.1776 -0.3185 -0.2633
  163DOPC   H4R19705   0.891   2.277  16.343 -0.8676 -0.7326  0.8746
  163DOPC   H4S19706   0.820   2.103  16.334  0.6103 -1.4484 -0.6466
  163DOPC   C2519707   0.926   2.157  16.158 -0.1382  0.1475  0.0168
  163DOPC   H5R19708   0.934   2.050  16.132 -0.5774  0.3303 -0.9145
  163DOPC   H5S19709   1.013   2.214  16.120  0.9111 -1.7465 -0.5450
  163DOPC   C2619710   0.807   2.211  16.076  0.3086  0.3017  0.0765
  163DOPC   H6R19711   0.798   2.321  16.090  2.2002  0.7369 -1.6221
  163DOPC   H6S19712   0.716   2.161  16.115  0.1909  0.9587  0.6596
  163DOPC   C2719713   0.810   2.172  15.928  0.4096 -0.1515 -0.1871
  163DOPC   H7R19714   0.848   2.068  15.922 -1.5478 -1.0151  1.0841
  163DOPC   H7S19715   0.877   2.234  15.865 -1.6725  2.4946  0.0050
  163DOPC   C2819716   0.666   2.183  15.866  0.3157  0.1067 -0.7526
  163DOPC   H8R19717   0.594   2.146  15.942  0.0342  1.2458 -0.4375
  163DOPC   H8S19718   0.663   2.121  15.775  0.8298  0.3721 -0.9550
  163DOPC   C2919719   0.639   2.327  15.834  0.5281  0.2133 -1.1732
  163DOPC   H9R19720   0.621   2.384  15.926  0.1656  0.6389 -1.5053
  163DOPC  C21019721   0.623   2.373  15.711 -1.2704 -0.4015 -0.2989
  163DOPC  H10R19722   0.591   2.478  15.706 -0.5712 -0.0987  1.0699
  163DOPC  C21119723   0.615   2.291  15.588  0.6657 -0.7153 -0.8704
  163DOPC  H11R19724   0.545   2.342  15.519 -1.3307 -0.5577  1.1695
  163DOPC  H11S19725   0.555   2.202  15.617 -0.8901  0.4837 -0.2509
  163DOPC  C21219726   0.744   2.251  15.517 -0.6732 -0.1714 -0.4403
  163DOPC  H12R19727   0.724   2.180  15.434  1.0928  0.8804 -1.8815
  163DOPC  H12S19728   0.802   2.194  15.592 -2.0560 -0.5639  0.3600
  163DOPC  C21319729   0.820   2.367  15.447  0.0645 -0.1146 -0.5124
  163DOPC  H13R19730   0.748   2.434  15.396 -1.0864 -0.9933 -0.0836
  163DOPC  H13S19731   0.872   2.327  15.358  0.0836  2.1216 -1.5675
  163DOPC  C21419732   0.931   2.434  15.530 -0.4215 -0.3539  0.2644
  163DOPC  H14R19733   1.010   2.357  15.542 -1.1634 -1.0282  0.9711
  163DOPC  H14S19734   0.885   2.441  15.631  2.3137  1.5408  1.4752
  163DOPC  C21519735   1.005   2.563  15.490  0.5213 -1.0306  0.7198
  163DOPC  H15R19736   1.083   2.547  15.413  2.6262  1.2156  2.2477
  163DOPC  H15S19737   1.055   2.603  15.581 -1.7471  2.5252  0.5844
  163DOPC  C21619738   0.906   2.667  15.428  0.0352  0.3799  0.1841
  163DOPC  H16R19739   0.820   2.675  15.499  0.5101 -0.3306  0.8619
  163DOPC  H16S19740   0.864   2.622  15.336 -2.1101  0.0335  1.2475
  163DOPC  C21719741   0.953   2.804  15.390  0.1078  0.3065 -0.0609
  163DOPC  H17R19742   0.986   2.868  15.475 -0.9227  1.8180 -0.7512
  163DOPC  H17S19743   0.880   2.864  15.332 -1.9341  0.6035  2.6571
  163DOPC  C21819744   1.084   2.801  15.301  0.1393  0.0052 -0.5372
  163DOPC  H18R19745   1.134   2.900  15.310 -2.0535  1.0836  0.6060
  163DOPC  H18S19746   1.063   2.774  15.195  0.1370 -0.4479 -0.4228
  163DOPC  H18T19747   1.157   2.732  15.348 -0.8041 -1.2135 -0.8022
  163DOPC   C3319748   1.110   1.703  16.418  0.3258 -0.2292  0.0666
  163DOPC   H3X19749   1.202   1.764  16.430  0.1275  0.4631 -1.7227
  163DOPC   H3Y19750   1.025   1.765  16.454 -0.4162 -1.4965  0.5626
  163DOPC   C3419751   1.085   1.687  16.264 -0.5318  0.1544 -0.3505
  163DOPC   H4X19752   1.166   1.618  16.232 -0.2671 -1.4356  3.2148
  163DOPC   H4Y19753   1.093   1.784  16.211 -2.8093  1.7101  1.8964
  163DOPC   C3519754   0.943   1.626  16.241 -0.1571  0.1070  0.3862
  163DOPC   H5X19755   0.863   1.702  16.258 -2.0584 -1.8785  0.8291
  163DOPC   H5Y19756   0.921   1.545  16.313  0.5870 -0.6610 -0.2413
  163DOPC   C3619757   0.923   1.565  16.099 -0.7677 -0.0276  0.0274
  163DOPC   H6X19758   0.989   1.478  16.074  2.5575  2.7956 -1.9224
  163DOPC   H6Y19759   0.815   1.541  16.095 -1.2514  2.2001 -2.0337
  163DOPC   C3719760   0.927   1.670  15.980 -0.0878 -0.0757 -1.3933
  163DOPC   H7X19761   0.867   1.762  16.003 -1.1883 -0.7033 -1.6728
  163DOPC   H7Y19762   1.031   1.707  15.965 -0.3011  0.7622 -0.8909
  163DOPC   C3819763   0.877   1.615  15.843  0.7824 -0.3989  0.1606
  163DOPC   H8X19764   0.894   1.506  15.846 -0.7644 -0.6571  0.5487
  163DOPC   H8Y19765   0.936   1.660  15.760  0.9364  0.0721  0.5213
  163DOPC   C3919766   0.731   1.631  15.820  0.1369 -0.4927 -0.4476
  163DOPC   H9X19767   0.672   1.584  15.900  1.4616 -0.1155  0.7790
  163DOPC  C31019768   0.670   1.682  15.708  0.3929  0.2952 -0.2485
  163DOPC  H10X19769   0.560   1.694  15.712  0.2418 -1.1677  3.2452
  163DOPC  C31119770   0.729   1.730  15.578  0.1894 -0.0190  0.0339
  163DOPC  H11X19771   0.658   1.716  15.494  0.4057  0.2901 -0.1995
  163DOPC  H11Y19772   0.809   1.655  15.562  0.8550  0.5871  0.5093
  163DOPC  C31219773   0.774   1.875  15.582  0.0002  0.5219  0.0667
  163DOPC  H12X19774   0.830   1.897  15.676 -0.4072  1.2832  0.1355
  163DOPC  H12Y19775   0.692   1.949  15.583 -1.2876 -0.8419  2.0395
  163DOPC  C31319776   0.860   1.904  15.456  0.8504 -0.2282 -0.1755
  163DOPC  H13X19777   0.894   2.010  15.452  1.3488 -0.4197 -1.4083
  163DOPC  H13Y19778   0.955   1.847  15.453 -0.3698 -2.3538  0.0253
  163DOPC  C31419779   0.791   1.879  15.316  0.4255 -0.5596 -0.6399
  163DOPC  H14X19780   0.759   1.773  15.306 -0.2122 -0.4537  0.1976
  163DOPC  H14Y19781   0.698   1.940  15.315  1.1765  0.7427  1.5866
  163DOPC  C31519782   0.882   1.915  15.197  0.2773  0.2446 -0.6565
  163DOPC  H15X19783   0.966   1.842  15.193  1.0666  1.1852 -2.5998
  163DOPC  H15Y19784   0.933   2.013  15.214 -0.0919  0.4712 -0.8356
  163DOPC  C31619785   0.804   1.922  15.068 -0.3730 -0.2285 -0.4676
  163DOPC  H16X19786   0.715   1.856  15.073 -1.3467  0.9137 -1.8679
  163DOPC  H16Y19787   0.765   2.025  15.052  1.3216  0.5675  0.1853
  163DOPC  C31719788   0.887   1.874  14.947 -0.2827  0.2335 -0.5404
  163DOPC  H17X19789   0.957   1.958  14.928  1.8050 -1.3419 -0.2000
  163DOPC  H17Y19790   0.958   1.791  14.969 -0.9972  0.5172  3.5626
  163DOPC  C31819791   0.800   1.845  14.830  0.3424 -0.9276  0.3850
  163DOPC  H18X19792   0.872   1.824  14.748  2.1211 -0.1991  1.6960
  163DOPC  H18Y19793   0.745   1.752  14.857  4.0548 -3.8217 -1.0068
  163DOPC  H18Z19794   0.725   1.925  14.813  2.9060  1.4953 -0.3609
  164DOPC     N19795   2.218   0.673  17.128  0.2108 -0.3479  0.3530
  164DOPC   C1219796   2.309   0.700  17.019 -0.3277  0.2263  0.8245
  164DOPC  H12A19797   2.335   0.601  16.984 -0.9800  0.4676 -0.4154
  164DOPC  H12B19798   2.408   0.735  17.044  0.1368  0.7722 -1.4934
  164DOPC   C1319799   2.289   0.571  17.206 -0.3741 -0.4314  0.4576
  164DOPC  H13A19800   2.371   0.611  17.264 -0.1563 -1.4623  0.8742
  164DOPC  H13B19801   2.227   0.514  17.273  0.2772 -0.9756  0.6055
  164DOPC  H13C19802   2.342   0.498  17.146  0.6651 -0.5662  1.5007
  164DOPC   C1419803   2.080   0.618  17.077 -0.7386 -0.3684 -0.3697
  164DOPC  H14A19804   2.018   0.699  17.040  1.5200  0.6011 -2.2958
  164DOPC  H14B19805   2.113   0.545  17.004  0.9381 -0.0331  0.0162
  164DOPC  H14C19806   2.032   0.572  17.162  1.8588 -0.1637  1.3090
  164DOPC   C1519807   2.201   0.788  17.221 -0.6299  0.1206 -0.3472
  164DOPC  H15A19808   2.120   0.856  17.196 -0.7355 -0.1109 -0.6377
  164DOPC  H15B19809   2.291   0.845  17.240 -0.7728  1.2971 -2.7564
  164DOPC  H15C19810   2.180   0.755  17.321  0.9285 -3.3761 -1.0422
  164DOPC   C1119811   2.257   0.801  16.903  0.0262 -0.2040  0.1090
  164DOPC  H11A19812   2.233   0.898  16.951  2.7515  1.0092 -0.7815
  164DOPC  H11B19813   2.349   0.822  16.845  0.3021 -0.1601  0.5575
  164DOPC     P19814   2.177   0.619  16.733  0.0329 -0.0421  0.4679
  164DOPC   O1319815   2.049   0.542  16.749  0.2139 -0.1330 -0.2572
  164DOPC   O1419816   2.305   0.549  16.758  0.0468  0.8422  0.3349
  164DOPC   O1219817   2.154   0.746  16.826  0.2785  0.2706 -0.3274
  164DOPC   O1119818   2.173   0.683  16.587 -0.4885 -0.3192 -0.4214
  164DOPC    C119819   2.069   0.778  16.558 -0.5366  0.0629  0.1068
  164DOPC    HA19820   2.087   0.882  16.593  0.7463 -0.2182  0.3434
  164DOPC    HB19821   1.967   0.753  16.595 -0.9456 -0.1602 -1.1031
  164DOPC    C219822   2.059   0.797  16.403  0.1340 -0.5726  0.3974
  164DOPC    HS19823   2.003   0.707  16.369  0.8463 -0.8267 -0.1011
  164DOPC   O2119824   2.191   0.800  16.351 -0.1751  0.5663  0.3050
  164DOPC   C2119825   2.199   0.756  16.226 -0.1942 -1.0494 -0.3008
  164DOPC   O2219826   2.111   0.695  16.166  0.3206 -0.3613 -0.2943
  164DOPC   C2219827   2.339   0.779  16.166  0.3950 -0.4316  0.0309
  164DOPC   H2R19828   2.329   0.698  16.091 -3.0984  2.4104 -2.9390
  164DOPC   H2S19829   2.415   0.756  16.244 -0.3557 -2.8023  0.1554
  164DOPC    C319830   1.982   0.935  16.362 -1.0300  0.2887 -0.4505
  164DOPC    HX19831   2.045   1.023  16.384 -1.1231  0.9116 -2.4742
  164DOPC    HY19832   1.891   0.949  16.424 -1.2791 -2.5983  0.0029
  164DOPC   O3119833   1.951   0.942  16.223 -1.0148 -0.2353  0.2474
  164DOPC   C3119834   1.839   0.895  16.183  0.5349  0.4209 -0.1214
  164DOPC   O3219835   1.756   0.846  16.253  0.0880  1.0233 -0.8190
  164DOPC   C3219836   1.823   0.902  16.032 -0.2761 -0.0924  0.0864
  164DOPC   H2X19837   1.833   1.005  15.991 -2.8253 -0.7430 -2.6316
  164DOPC   H2Y19838   1.909   0.853  15.982 -1.2175 -0.6575 -1.0541
  164DOPC   C2319839   2.361   0.918  16.114  0.7258 -0.1118  0.6955
  164DOPC   H3R19840   2.467   0.945  16.091 -0.3384  2.5114 -1.8599
  164DOPC   H3S19841   2.323   0.986  16.193  0.6763  0.3436  0.2839
  164DOPC   C2419842   2.271   0.947  15.986  0.4196 -0.3344 -0.7029
  164DOPC   H4R19843   2.164   0.938  16.014  1.0414 -2.3332  1.4285
  164DOPC   H4S19844   2.292   0.856  15.926 -1.3394 -1.5464  0.4163
  164DOPC   C2519845   2.309   1.070  15.913  0.5551 -0.7294  0.1408
  164DOPC   H5R19846   2.417   1.089  15.931  0.2799 -0.2234  1.2845
  164DOPC   H5S19847   2.270   1.158  15.967  0.5933  0.5182 -1.7834
  164DOPC   C2619848   2.271   1.065  15.770 -0.2456 -0.1271  0.0711
  164DOPC   H6R19849   2.162   1.043  15.759 -0.3547 -0.1235  1.0383
  164DOPC   H6S19850   2.300   0.962  15.738 -0.2231  0.1578 -0.8492
  164DOPC   C2719851   2.316   1.172  15.674  0.2378 -0.2254 -0.1577
  164DOPC   H7R19852   2.296   1.149  15.568 -2.4069  0.1094  0.2026
  164DOPC   H7S19853   2.426   1.190  15.683  0.5074 -1.7760 -0.1342
  164DOPC   C2819854   2.244   1.310  15.696  0.7604 -0.8755  0.0850
  164DOPC   H8R19855   2.315   1.383  15.652  1.0508 -2.2842 -1.9927
  164DOPC   H8S19856   2.235   1.335  15.803  1.2157  0.1034 -0.0985
  164DOPC   C2919857   2.100   1.329  15.638  0.1858  0.2667  0.7249
  164DOPC   H9R19858   2.028   1.273  15.699  0.5890 -0.7257  0.3130
  164DOPC  C21019859   2.043   1.397  15.538  0.2815  0.2880 -0.1501
  164DOPC  H10R19860   1.936   1.376  15.522  0.2682  0.6371 -0.5456
  164DOPC  C21119861   2.108   1.490  15.441  0.4459  0.3567  0.1500
  164DOPC  H11R19862   2.218   1.485  15.462  0.2062  1.9651  2.1480
  164DOPC  H11S19863   2.086   1.597  15.460  0.4709  0.2796  0.6496
  164DOPC  C21219864   2.084   1.457  15.294 -0.1958  0.5905 -0.0183
  164DOPC  H12R19865   1.975   1.450  15.270 -0.1791 -0.1572  0.0845
  164DOPC  H12S19866   2.125   1.354  15.282 -2.4905 -0.3653 -0.1897
  164DOPC  C21319867   2.142   1.563  15.202  0.0160  0.3895 -0.1592
  164DOPC  H13R19868   2.252   1.558  15.216 -0.1587 -0.3824  1.0836
  164DOPC  H13S19869   2.106   1.663  15.233 -3.4230 -1.5568  2.9796
  164DOPC  C21419870   2.112   1.553  15.055 -0.1159  0.5442  0.1111
  164DOPC  H14R19871   2.003   1.538  15.045 -0.1172 -1.0954  2.0526
  164DOPC  H14S19872   2.146   1.456  15.014  0.8993 -0.3497  2.8251
  164DOPC  C21519873   2.162   1.672  14.977  1.2786  0.0143  0.1844
  164DOPC  H15R19874   2.116   1.764  15.019  0.4918 -0.0698 -0.4568
  164DOPC  H15S19875   2.137   1.659  14.869 -1.2493  1.2017  0.5387
  164DOPC  C21619876   2.312   1.689  14.972  0.1308 -0.5875 -0.2249
  164DOPC  H16R19877   2.361   1.590  14.990 -1.5110 -1.1148  1.8543
  164DOPC  H16S19878   2.346   1.747  15.061 -1.6405  0.0401  0.0778
  164DOPC  C21719879   2.358   1.760  14.846  0.7352 -0.6720  0.4794
  164DOPC  H17R19880   2.304   1.857  14.847  0.9750 -0.4698 -1.6744
  164DOPC  H17S19881   2.331   1.704  14.754 -3.4040 -0.5408  1.4112
  164DOPC  C21819882   2.512   1.789  14.838 -0.1000 -0.6723  0.0240
  164DOPC  H18R19883   2.521   1.862  14.755 -1.4290 -0.4465  0.0586
  164DOPC  H18S19884   2.559   1.698  14.796 -0.8178 -1.3542  0.6770
  164DOPC  H18T19885   2.563   1.819  14.933 -1.2164 -1.5559  0.9312
  164DOPC   C3319886   1.694   0.830  15.988 -0.6573 -0.2540 -0.7918
  164DOPC   H3X19887   1.608   0.858  16.053  2.1377  2.9151  1.9835
  164DOPC   H3Y19888   1.717   0.722  15.996 -1.0459 -0.3154 -0.4657
  164DOPC   C3419889   1.658   0.874  15.846  0.3054  0.1039 -0.1381
  164DOPC   H4X19890   1.656   0.985  15.840  0.2750  0.1656  0.8534
  164DOPC   H4Y19891   1.561   0.824  15.822  1.3412 -3.4815  2.3277
  164DOPC   C3519892   1.760   0.835  15.740  0.7086  0.5839  0.3447
  164DOPC   H5X19893   1.720   0.749  15.681  1.2766  1.0302 -0.7141
  164DOPC   H5Y19894   1.858   0.804  15.782  2.2738  3.2920 -1.0716
  164DOPC   C3619895   1.783   0.945  15.639 -0.2431  0.0422 -0.2827
  164DOPC   H6X19896   1.686   0.986  15.604  0.4304  1.4001 -0.6719
  164DOPC   H6Y19897   1.846   1.024  15.686 -0.0619 -0.6768  0.6999
  164DOPC   C3719898   1.876   0.897  15.519  0.0086 -0.2793 -0.1247
  164DOPC   H7X19899   1.932   0.983  15.477  2.6450 -2.7156 -2.0732
  164DOPC   H7Y19900   1.955   0.825  15.553  0.1936 -2.1316 -3.9648
  164DOPC   C3819901   1.803   0.824  15.402  0.6311  0.0222  0.4545
  164DOPC   H8X19902   1.724   0.757  15.440  1.1437  0.0274  1.5667
  164DOPC   H8Y19903   1.875   0.752  15.357  0.3132  0.0332 -0.0774
  164DOPC   C3919904   1.756   0.928  15.307  0.3748  1.1141 -0.4918
  164DOPC   H9X19905   1.649   0.952  15.310  0.8683  4.0396  4.1339
  164DOPC  C31019906   1.843   0.995  15.217  0.0263 -0.1506  0.3183
  164DOPC  H10X19907   1.800   1.068  15.147 -0.9106 -1.0274 -0.0456
  164DOPC  C31119908   1.989   0.954  15.192 -0.1258  0.4439 -0.0172
  164DOPC  H11X19909   1.993   0.877  15.112 -2.0812 -0.8389  1.0516
  164DOPC  H11Y19910   2.023   0.905  15.285  0.1856 -1.0841 -0.8948
  164DOPC  C31219911   2.085   1.069  15.165 -0.4091 -0.4211  0.1828
  164DOPC  H12X19912   2.075   1.144  15.246  3.4667  0.0708  0.4203
  164DOPC  H12Y19913   2.082   1.107  15.061 -2.5360 -3.1855 -0.8902
  164DOPC  C31319914   2.230   1.017  15.179 -0.2858 -0.3267 -0.9223
  164DOPC  H13X19915   2.254   0.981  15.281 -2.1005  2.5555  0.6692
  164DOPC  H13Y19916   2.246   0.929  15.113  2.0705 -0.2716 -0.5020
  164DOPC  C31419917   2.335   1.127  15.161 -0.5186  0.1458 -0.2662
  164DOPC  H14X19918   2.315   1.207  15.087 -0.2028  1.2061  0.7704
  164DOPC  H14Y19919   2.419   1.072  15.112  1.6735  1.7794  1.4364
  164DOPC  C31519920   2.395   1.185  15.290  0.4672  0.4036  0.4055
  164DOPC  H15X19921   2.424   1.103  15.359  0.1933 -0.9187 -1.0013
  164DOPC  H15Y19922   2.323   1.251  15.343  1.6940  0.0699  2.5945
  164DOPC  C31619923   2.529   1.264  15.269 -0.5955 -0.4758  0.2738
  164DOPC  H16X19924   2.588   1.277  15.362  0.2478  0.1910 -0.3319
  164DOPC  H16Y19925   2.595   1.213  15.195 -3.1854 -1.1815 -1.7022
  164DOPC  C31719926   2.500   1.405  15.219  0.6434  0.0837  0.4190
  164DOPC  H17X19927   2.418   1.396  15.145 -0.3455  3.8589  0.8698
  164DOPC  H17Y19928   2.457   1.457  15.307  2.0200  1.1250  0.5098
  164DOPC  C31819929   2.626   1.479  15.163 -0.0365 -0.7636  0.0777
  164DOPC  H18X19930   2.657   1.423  15.072  1.6405  2.8758 -1.8136
  164DOPC  H18Y19931   2.596   1.584  15.144  0.5654 -0.4346  0.9364
  164DOPC  H18Z19932   2.707   1.487  15.238 -0.6101 -1.3536  0.7801
  165DOPC     N19933   6.444   6.846  17.080 -0.0166  0.0796  0.3633
  165DOPC   C1219934   6.471   6.970  16.994 -0.4595  0.2981 -0.8402
  165DOPC  H12A19935   6.578   6.971  16.979 -0.7428  0.3869 -3.1449
  165DOPC  H12B19936   6.463   7.055  17.060 -2.1744  0.2001 -0.8941
  165DOPC   C1319937   6.553   6.827  17.175 -0.2922  0.0444 -0.0508
  165DOPC  H13A19938   6.532   6.734  17.226 -0.4892 -0.8533 -1.6724
  165DOPC  H13B19939   6.647   6.821  17.123  0.0075  2.1467  0.1616
  165DOPC  H13C19940   6.564   6.908  17.245 -2.9971  1.9261 -1.6187
  165DOPC   C1419941   6.443   6.729  16.988  0.0608  0.0995 -0.0175
  165DOPC  H14A19942   6.375   6.749  16.906  1.0981  2.9231 -0.2931
  165DOPC  H14B19943   6.534   6.713  16.933 -0.5871 -0.6543 -0.9076
  165DOPC  H14C19944   6.424   6.645  17.053 -0.0952  0.4932  0.4565
  165DOPC   C1519945   6.313   6.853  17.151  0.2327  0.0354  0.3904
  165DOPC  H15A19946   6.246   6.883  17.071  2.4754  1.1996 -1.1746
  165DOPC  H15B19947   6.310   6.941  17.214  3.2599  1.4769 -1.2488
  165DOPC  H15C19948   6.283   6.774  17.218  0.6060  0.2767  0.8476
  165DOPC   C1119949   6.390   7.005  16.874  0.2371  0.2723  0.6883
  165DOPC  H11A19950   6.430   7.095  16.823  0.0142 -0.6704 -1.2304
  165DOPC  H11B19951   6.410   6.923  16.802 -0.6928 -0.4079  1.1855
  165DOPC     P19952   6.164   7.128  16.840  0.5431 -0.0082  0.1433
  165DOPC   O1319953   6.206   7.265  16.877 -0.4368 -0.2532 -0.2129
  165DOPC   O1419954   6.026   7.104  16.883 -0.2408 -1.0249  0.6569
  165DOPC   O1219955   6.251   7.025  16.901 -0.3008  0.0836  0.4359
  165DOPC   O1119956   6.166   7.119  16.684 -0.1711  0.7965  0.3234
  165DOPC    C119957   6.083   7.030  16.611  0.7875  0.2075  0.8558
  165DOPC    HA19958   6.047   7.086  16.522 -0.0963 -1.6997 -0.0376
  165DOPC    HB19959   5.995   6.995  16.669  1.2722 -0.1366  1.3903
  165DOPC    C219960   6.172   6.916  16.551 -0.0169  0.2339  0.5682
  165DOPC    HS19961   6.116   6.879  16.462  1.4894 -0.5703 -0.0926
  165DOPC   O2119962   6.194   6.813  16.649 -0.6540  0.6233  0.0543
  165DOPC   C2119963   6.093   6.731  16.671  0.1691  0.6656  0.7630
  165DOPC   O2219964   5.984   6.743  16.620  0.8293  0.3067 -0.6102
  165DOPC   C2219965   6.138   6.625  16.773 -0.4949  0.0227  0.7618
  165DOPC   H2R19966   6.053   6.554  16.774 -1.0859  0.5557 -2.4434
  165DOPC   H2S19967   6.146   6.679  16.870  0.2017 -0.0348  0.7384
  165DOPC    C319968   6.312   6.956  16.494  0.3655  0.7120 -0.1260
  165DOPC    HX19969   6.378   6.986  16.578 -0.9120 -1.5993  1.8556
  165DOPC    HY19970   6.295   7.040  16.424 -1.7597 -1.0287 -1.8540
  165DOPC   O3119971   6.366   6.841  16.416 -0.3149  0.6333  0.3747
  165DOPC   C3119972   6.476   6.778  16.464  0.4466  0.9862  0.0662
  165DOPC   O3219973   6.528   6.813  16.571 -0.1286 -0.5174 -0.0570
  165DOPC   C3219974   6.532   6.674  16.365  0.1700 -1.1169 -0.6422
  165DOPC   H2X19975   6.518   6.573  16.408 -0.4404 -0.5027  0.6494
  165DOPC   H2Y19976   6.467   6.672  16.275 -1.1740 -0.8595  0.2955
  165DOPC   C2319977   6.274   6.563  16.722 -0.2498  0.8947 -0.0779
  165DOPC   H3R19978   6.313   6.497  16.803  0.6729  2.8840  1.1957
  165DOPC   H3S19979   6.348   6.643  16.699  1.4533 -0.9046 -1.1219
  165DOPC   C2419980   6.251   6.476  16.593  0.2900 -0.8052  0.0687
  165DOPC   H4R19981   6.348   6.425  16.579  0.7726 -0.0298  0.4859
  165DOPC   H4S19982   6.224   6.550  16.514  0.5957  0.5289  1.1687
  165DOPC   C2519983   6.138   6.368  16.611  0.2715 -0.2868 -0.7932
  165DOPC   H5R19984   6.043   6.422  16.592  1.3935  1.4654 -1.7720
  165DOPC   H5S19985   6.141   6.327  16.714 -2.6186 -0.4220 -0.6873
  165DOPC   C2619986   6.149   6.252  16.513  0.4562 -0.6036  0.4296
  165DOPC   H6R19987   6.248   6.202  16.519  1.1101  0.4792 -0.8023
  165DOPC   H6S19988   6.147   6.299  16.413 -0.5119 -0.4704  0.5019
  165DOPC   C2719989   6.036   6.147  16.517  0.0031  0.6072  0.4362
  165DOPC   H7R19990   5.959   6.227  16.513  0.7458  1.3597  0.7395
  165DOPC   H7S19991   6.025   6.097  16.616 -1.5319 -2.2062 -1.0558
  165DOPC   C2819992   6.056   6.039  16.412  0.0662  0.5436  0.2621
  165DOPC   H8R19993   6.014   5.944  16.451  1.4673 -1.0966 -1.9673
  165DOPC   H8S19994   6.164   6.011  16.406 -0.5052 -1.8043  0.0083
  165DOPC   C2919995   5.999   6.085  16.278  0.3432 -0.0534  0.1246
  165DOPC   H9R19996   5.998   6.195  16.268 -0.1650 -0.1597 -1.1197
  165DOPC  C21019997   5.970   6.004  16.172 -0.2701  0.1915  0.1195
  165DOPC  H10R19998   5.932   6.050  16.080 -1.2753 -1.3770 -0.2863
  165DOPC  C21119999   5.972   5.850  16.176 -0.0759 -0.2747 -0.1077
  165DOPC  H11R20000   5.940   5.810  16.275  2.8002 -0.3688  0.8941
  165DOPC  H11S20001   6.079   5.824  16.167 -0.1420 -0.8888  0.7383
  165DOPC  C21220002   5.883   5.780  16.070 -0.1752  0.0190  0.7991
  165DOPC  H12R20003   5.911   5.804  15.965 -1.1266  1.2072  0.7958
  165DOPC  H12S20004   5.778   5.816  16.083 -0.6083 -0.8520 -0.1248
  165DOPC  C21320005   5.886   5.627  16.089 -0.0874 -0.6740  0.5899
  165DOPC  H13R20006   5.857   5.606  16.194  0.5238 -1.9510  0.5237
  165DOPC  H13S20007   5.988   5.590  16.069  0.0896  0.7069 -1.3094
  165DOPC  C21420008   5.797   5.542  15.987 -0.7003 -0.7672  0.1842
  165DOPC  H14R20009   5.692   5.553  16.022 -0.2603 -0.4665  1.4676
  165DOPC  H14S20010   5.826   5.436  15.999  0.6408 -0.6711 -1.6277
  165DOPC  C21520011   5.810   5.585  15.843  0.2072 -0.0507 -0.1705
  165DOPC  H15R20012   5.920   5.595  15.835  0.6735 -3.5435  0.2791
  165DOPC  H15S20013   5.766   5.685  15.820 -0.2534 -0.5697 -1.7099
  165DOPC  C21620014   5.747   5.478  15.750 -0.5940  0.2025  0.8500
  165DOPC  H16R20015   5.640   5.452  15.761 -0.6455  0.5406  1.1531
  165DOPC  H16S20016   5.803   5.384  15.771 -0.8415 -0.6661 -1.9039
  165DOPC  C21720017   5.758   5.522  15.600  0.2493 -0.2449  0.1104
  165DOPC  H17R20018   5.858   5.569  15.588 -1.7219  3.7681 -3.2847
  165DOPC  H17S20019   5.683   5.603  15.584  0.0687 -0.3031  0.6417
  165DOPC  C21820020   5.718   5.407  15.499 -0.2148  0.0668 -0.1726
  165DOPC  H18R20021   5.730   5.440  15.393 -0.2520 -1.3217 -0.6254
  165DOPC  H18S20022   5.613   5.371  15.506 -0.2716  0.3546  0.5010
  165DOPC  H18T20023   5.774   5.312  15.509  1.9033  1.4470  2.2847
  165DOPC   C3320024   6.673   6.707  16.328 -0.3744 -0.7354 -0.3342
  165DOPC   H3X20025   6.708   6.611  16.284 -1.5222 -1.8505  1.0902
  165DOPC   H3Y20026   6.741   6.736  16.411  1.4311 -1.5451 -1.4794
  165DOPC   C3420027   6.696   6.801  16.209  0.2945 -0.4664  0.0680
  165DOPC   H4X20028   6.599   6.802  16.154 -0.0152 -2.0583  0.5388
  165DOPC   H4Y20029   6.779   6.765  16.145  0.7234  1.8853 -0.8009
  165DOPC   C3520030   6.724   6.944  16.264 -0.3960  0.4600  0.1580
  165DOPC   H5X20031   6.807   6.950  16.338  1.2131  1.5231 -1.6238
  165DOPC   H5Y20032   6.629   6.980  16.309 -1.5069  2.1650 -3.1695
  165DOPC   C3620033   6.759   7.049  16.152 -0.0045  0.0692  1.1448
  165DOPC   H6X20034   6.746   7.157  16.174 -1.4217  0.4341 -1.2187
  165DOPC   H6Y20035   6.865   7.039  16.118  0.5604  0.6043  2.6479
  165DOPC   C3720036   6.683   7.038  16.010 -0.0054 -0.5579 -0.8451
  165DOPC   H7X20037   6.579   7.065  16.038  0.1116 -0.2612 -0.6937
  165DOPC   H7Y20038   6.697   6.935  15.971  0.7958 -0.1654 -1.6325
  165DOPC   C3820039   6.734   7.136  15.899  0.5699  0.3509 -0.4032
  165DOPC   H8X20040   6.844   7.120  15.890  0.8657  0.8072  1.8485
  165DOPC   H8Y20041   6.711   7.239  15.934  1.0455  0.8229 -1.4427
  165DOPC   C3920042   6.672   7.094  15.768  0.3937  0.0272 -0.1939
  165DOPC   H9X20043   6.707   6.998  15.727  1.9438 -0.0508  1.1984
  165DOPC  C31020044   6.588   7.171  15.697  0.4164  0.4690  0.2822
  165DOPC  H10X20045   6.561   7.136  15.596 -0.3041 -0.1739  0.6812
  165DOPC  C31120046   6.550   7.311  15.734  0.4351 -0.7888 -0.3252
  165DOPC  H11X20047   6.536   7.344  15.839 -0.8051 -0.1155 -0.6797
  165DOPC  H11Y20048   6.449   7.327  15.689  1.1286  4.0317 -0.6832
  165DOPC  C31220049   6.637   7.412  15.661  0.4294 -0.2823 -0.2252
  165DOPC  H12X20050   6.661   7.381  15.557  0.0721  0.3613 -0.5092
  165DOPC  H12Y20051   6.732   7.419  15.717  0.9073 -1.2769 -0.8739
  165DOPC  C31320052   6.561   7.547  15.654  0.1176 -0.8550  0.6544
  165DOPC  H13X20053   6.506   7.550  15.558  1.0345 -0.9263  0.1133
  165DOPC  H13Y20054   6.483   7.557  15.732  0.5175  1.9101  0.7765
  165DOPC  C31420055   6.657   7.675  15.650  0.6812  0.8695 -0.0504
  165DOPC  H14X20056   6.699   7.678  15.753  2.0936  0.8311 -0.6013
  165DOPC  H14Y20057   6.738   7.663  15.576 -0.2167  2.2256 -1.3095
  165DOPC  C31520058   6.570   7.794  15.612 -0.2738 -0.1977  0.9634
  165DOPC  H15X20059   6.525   7.771  15.514 -0.8888  0.1249  1.1696
  165DOPC  H15Y20060   6.641   7.879  15.607 -2.5148  1.7172 -0.2371
  165DOPC  C31620061   6.454   7.825  15.708  0.1741 -0.6286 -0.1794
  165DOPC  H16X20062   6.400   7.915  15.670  1.0237  0.7367  1.7060
  165DOPC  H16Y20063   6.377   7.745  15.716 -0.4354  0.0302  0.7373
  165DOPC  C31720064   6.502   7.867  15.852 -0.8912 -0.3622 -0.3336
  165DOPC  H17X20065   6.607   7.833  15.861 -1.0611 -0.6951  0.5112
  165DOPC  H17Y20066   6.511   7.977  15.866  2.2196 -0.8030  2.2376
  165DOPC  C31820067   6.409   7.813  15.952  0.2612  0.0996 -0.2494
  165DOPC  H18X20068   6.418   7.702  15.960  0.1702  0.1311  0.3760
  165DOPC  H18Y20069   6.426   7.859  16.052  1.9432  1.2685 -1.0272
  165DOPC  H18Z20070   6.304   7.824  15.916  0.7513  2.2341 -1.1796
  166DOPC     N20071   0.449   1.856  17.319 -0.0403 -0.4191  0.1687
  166DOPC   C1220072   0.315   1.790  17.302  0.3529  0.6210  0.7118
  166DOPC  H12A20073   0.250   1.827  17.380 -0.1580 -0.7217  0.9519
  166DOPC  H12B20074   0.312   1.682  17.313  2.8736  0.5859  1.9038
  166DOPC   C1320075   0.494   1.846  17.462 -0.0723  0.0083  1.0505
  166DOPC  H13A20076   0.422   1.886  17.531  0.6055  1.2133  1.0836
  166DOPC  H13B20077   0.503   1.742  17.492  1.1376  0.0178  0.7835
  166DOPC  H13C20078   0.581   1.909  17.470  0.0866  0.5798 -2.9433
  166DOPC   C1420079   0.435   2.003  17.291 -0.1238  0.3669 -0.6353
  166DOPC  H14A20080   0.359   2.061  17.342 -1.2991  0.0300 -1.9163
  166DOPC  H14B20081   0.525   2.058  17.311  0.1696 -0.2238 -0.2898
  166DOPC  H14C20082   0.420   2.018  17.185  0.2650 -1.9899 -1.0764
  166DOPC   C1520083   0.553   1.788  17.224 -0.0252 -0.1001  0.5106
  166DOPC  H15A20084   0.648   1.839  17.219  0.4576 -0.8189  1.9406
  166DOPC  H15B20085   0.513   1.786  17.123 -0.2026  1.5060  0.5325
  166DOPC  H15C20086   0.577   1.689  17.259  0.0415 -0.8517 -1.4914
  166DOPC   C1120087   0.235   1.817  17.169 -0.2164  0.0330  0.3002
  166DOPC  H11A20088   0.136   1.768  17.176  0.3726 -1.5195 -1.5375
  166DOPC  H11B20089   0.218   1.926  17.151 -2.6449 -0.0482  1.7489
  166DOPC     P20090   0.310   1.609  17.037 -0.2242  0.5070  0.1292
  166DOPC   O1320091   0.226   1.543  17.139 -0.0639 -0.1370 -0.3298
  166DOPC   O1420092   0.454   1.563  17.028 -0.0452 -0.7981 -0.1287
  166DOPC   O1220093   0.312   1.761  17.066 -0.0055 -0.2299  1.0212
  166DOPC   O1120094   0.236   1.596  16.901  0.5549  0.4246  0.0784
  166DOPC    C120095   0.092   1.625  16.890 -0.1584 -0.0001 -0.4315
  166DOPC    HA20096   0.060   1.707  16.959 -1.7757 -2.3754  1.8008
  166DOPC    HB20097   0.031   1.538  16.920  1.5103 -0.7516  0.9666
  166DOPC    C220098   0.061   1.673  16.751 -0.3749  0.3679 -0.4149
  166DOPC    HS20099  -0.029   1.738  16.759  0.4952  1.6541 -0.7647
  166DOPC   O2120100   0.029   1.557  16.678 -0.4495 -0.1496  0.2472
  166DOPC   C2120101  -0.064   1.552  16.588  0.2090 -0.7067  0.1314
  166DOPC   O2220102  -0.138   1.647  16.557 -0.1554 -0.0980 -0.0735
  166DOPC   C2220103  -0.064   1.413  16.521  0.1653  0.3372 -0.3978
  166DOPC   H2R20104  -0.061   1.336  16.601 -3.2176  1.0072  0.5355
  166DOPC   H2S20105   0.024   1.407  16.454  0.6557 -1.5488  0.3260
  166DOPC    C320106   0.175   1.753  16.679 -0.3206 -0.7213 -0.5417
  166DOPC    HX20107   0.270   1.698  16.698 -0.3266 -0.7244 -0.5198
  166DOPC    HY20108   0.185   1.849  16.733  0.1703 -1.4672  0.7613
  166DOPC   O3120109   0.149   1.765  16.542  0.2850  0.0046  0.1724
  166DOPC   C3120110   0.067   1.864  16.511 -0.2120  0.4902  0.1890
  166DOPC   O3220111   0.018   1.943  16.591 -0.3038 -0.3862  0.6373
  166DOPC   C3220112   0.045   1.865  16.358 -0.5102 -0.0269 -0.0047
  166DOPC   H2X20113   0.096   1.953  16.314 -0.0926  0.1501  0.8100
  166DOPC   H2Y20114   0.103   1.782  16.311  0.5350  1.2942 -1.1425
  166DOPC   C2320115  -0.200   1.390  16.448 -0.0303 -0.0388  0.5454
  166DOPC   H3R20116  -0.209   1.480  16.383  0.9264 -0.0705  0.3508
  166DOPC   H3S20117  -0.280   1.381  16.524  0.0402 -1.3032  0.4873
  166DOPC   C2420118  -0.205   1.258  16.364  0.2043 -0.5737  0.1331
  166DOPC   H4R20119  -0.177   1.174  16.430 -0.8155 -1.3222 -0.3657
  166DOPC   H4S20120  -0.146   1.259  16.270  0.3391 -2.2548  0.1750
  166DOPC   C2520121  -0.352   1.225  16.330  0.1199 -0.6379  0.1493
  166DOPC   H5R20122  -0.418   1.249  16.416  0.2761 -2.1064  0.6908
  166DOPC   H5S20123  -0.356   1.116  16.310 -2.1733 -0.6311  0.3304
  166DOPC   C2620124  -0.394   1.294  16.205  0.8265 -0.2476 -0.2188
  166DOPC   H6R20125  -0.311   1.316  16.135  0.7673  2.2037  0.3861
  166DOPC   H6S20126  -0.428   1.399  16.224 -1.1525 -1.2577  2.6132
  166DOPC   C2720127  -0.505   1.215  16.133  0.3912 -0.0056  0.0943
  166DOPC   H7R20128  -0.602   1.218  16.189 -0.4251 -1.8891 -1.1311
  166DOPC   H7S20129  -0.482   1.108  16.118  1.8819  0.2397  0.4816
  166DOPC   C2820130  -0.533   1.272  15.989 -0.1586 -0.3502 -0.9211
  166DOPC   H8R20131  -0.443   1.253  15.927 -0.0093  0.4142 -0.9398
  166DOPC   H8S20132  -0.540   1.383  15.991 -0.7080 -0.3904 -0.4311
  166DOPC   C2920133  -0.658   1.216  15.931  0.2320  0.8561  0.6548
  166DOPC   H9R20134  -0.755   1.245  15.974 -0.5558 -0.1241 -0.3959
  166DOPC  C21020135  -0.664   1.117  15.835  0.4299  0.2583 -0.1274
  166DOPC  H10R20136  -0.766   1.082  15.814  0.1107  0.5327  0.9082
  166DOPC  C21120137  -0.560   1.047  15.752  0.2965 -0.3622 -0.1661
  166DOPC  H11R20138  -0.469   1.028  15.812 -1.7567 -0.4791  3.1461
  166DOPC  H11S20139  -0.534   1.114  15.667 -2.4191  1.1397  0.0685
  166DOPC  C21220140  -0.618   0.919  15.680 -0.2226  0.2554 -0.0815
  166DOPC  H12R20141  -0.703   0.945  15.613 -0.5545 -1.3478 -0.3020
  166DOPC  H12S20142  -0.652   0.845  15.755  1.1195  0.8457  1.1611
  166DOPC  C21320143  -0.512   0.843  15.600  0.2852 -0.2413 -0.0529
  166DOPC  H13R20144  -0.428   0.809  15.664  1.7810  1.4519 -1.0337
  166DOPC  H13S20145  -0.462   0.913  15.530 -1.3520 -0.5939 -1.6688
  166DOPC  C21420146  -0.571   0.721  15.539 -0.4615  0.1111 -0.1664
  166DOPC  H14R20147  -0.639   0.745  15.454  0.4355 -0.2123 -0.9966
  166DOPC  H14S20148  -0.622   0.672  15.625  0.8506 -0.1395  0.4935
  166DOPC  C21520149  -0.464   0.625  15.491 -0.1902  0.4744 -0.1202
  166DOPC  H15R20150  -0.410   0.576  15.575  2.0157  0.9204 -1.1955
  166DOPC  H15S20151  -0.388   0.682  15.433  0.2964  1.1183  1.0830
  166DOPC  C21620152  -0.531   0.526  15.391 -0.2165  0.6168 -0.3054
  166DOPC  H16R20153  -0.604   0.580  15.328 -2.8612  1.5594  3.2753
  166DOPC  H16S20154  -0.574   0.440  15.447 -0.5233  0.1432 -1.2339
  166DOPC  C21720155  -0.438   0.443  15.300  0.6013 -0.1066 -0.1527
  166DOPC  H17R20156  -0.370   0.385  15.366  1.9674  0.3514 -1.0980
  166DOPC  H17S20157  -0.382   0.511  15.232  1.6858  0.3747  1.1811
  166DOPC  C21820158  -0.514   0.346  15.219 -0.1895 -0.5510  0.1336
  166DOPC  H18R20159  -0.443   0.284  15.160  0.3580  0.8282 -0.6926
  166DOPC  H18S20160  -0.574   0.407  15.149 -0.0190  0.3124  0.7172
  166DOPC  H18T20161  -0.589   0.282  15.271  0.2867 -1.3010 -0.0872
  166DOPC   C3320162  -0.107   1.875  16.315 -0.4560  0.4857 -0.4534
  166DOPC   H3X20163  -0.151   1.971  16.351 -0.5748 -0.1783  1.2425
  166DOPC   H3Y20164  -0.162   1.795  16.368  2.3789 -0.2280  1.6304
  166DOPC   C3420165  -0.123   1.855  16.160  0.0557 -0.5294  0.2215
  166DOPC   H4X20166  -0.048   1.904  16.094 -0.6722  0.4090  0.0668
  166DOPC   H4Y20167  -0.220   1.899  16.127 -0.2418 -2.2403 -1.3504
  166DOPC   C3520168  -0.121   1.711  16.122 -0.5162 -0.8602 -0.5967
  166DOPC   H5X20169  -0.205   1.658  16.172  1.0726 -2.3233  0.6107
  166DOPC   H5Y20170  -0.033   1.666  16.172 -1.1425 -1.8749 -0.3669
  166DOPC   C3620171  -0.114   1.682  15.971 -0.5664  0.1278 -0.7065
  166DOPC   H6X20172  -0.030   1.744  15.933 -0.4780  1.9668  2.1529
  166DOPC   H6Y20173  -0.094   1.574  15.955  1.4178  0.2561  0.5642
  166DOPC   C3720174  -0.241   1.726  15.902 -0.0697 -0.1218 -0.3444
  166DOPC   H7X20175  -0.327   1.674  15.949 -1.4811  2.1798 -0.2353
  166DOPC   H7Y20176  -0.247   1.834  15.925  1.7132  0.6309 -2.9440
  166DOPC   C3820177  -0.245   1.704  15.745 -0.6585 -0.4638  0.9412
  166DOPC   H8X20178  -0.145   1.726  15.702 -0.3494 -1.7270  0.9740
  166DOPC   H8Y20179  -0.319   1.773  15.701  0.0351  0.5462  1.3346
  166DOPC   C3920180  -0.296   1.567  15.702 -0.9551  0.0723  0.9271
  166DOPC   H9X20181  -0.401   1.549  15.730 -0.9771  2.2938  2.4312
  166DOPC  C31020182  -0.217   1.476  15.642 -0.5513 -0.3806 -1.3265
  166DOPC  H10X20183  -0.260   1.377  15.618 -0.6039 -0.2502 -1.7869
  166DOPC  C31120184  -0.072   1.506  15.609  0.1637 -0.1898 -0.4484
  166DOPC  H11X20185  -0.006   1.416  15.615  1.0813  0.5499  1.4810
  166DOPC  H11Y20186  -0.029   1.573  15.686  0.0082  0.4505 -0.9080
  166DOPC  C31220187  -0.069   1.564  15.469  0.4143 -0.3662  0.1473
  166DOPC  H12X20188  -0.119   1.663  15.463  2.2356  0.6002  0.2128
  166DOPC  H12Y20189  -0.119   1.495  15.398 -2.0015  0.2168  1.1865
  166DOPC  C31320190   0.074   1.584  15.416 -0.8029 -0.3251 -0.3909
  166DOPC  H13X20191   0.111   1.671  15.475 -0.9769  0.2503 -1.1172
  166DOPC  H13Y20192   0.124   1.489  15.446  1.4699  0.8784 -0.0728
  166DOPC  C31420193   0.088   1.617  15.263  0.3951 -0.0089  0.4479
  166DOPC  H14X20194   0.071   1.524  15.204 -1.6682  1.0547 -0.7625
  166DOPC  H14Y20195   0.015   1.693  15.230 -0.7646 -1.6056 -0.8302
  166DOPC  C31520196   0.238   1.660  15.250  0.0289 -0.5745 -0.2918
  166DOPC  H15X20197   0.303   1.578  15.284  2.5257  1.3512 -0.1170
  166DOPC  H15Y20198   0.259   1.745  15.319  1.1239 -0.3504 -0.8833
  166DOPC  C31620199   0.286   1.704  15.109 -0.1209 -0.3346 -0.0557
  166DOPC  H16X20200   0.272   1.614  15.044  1.2792 -0.1167 -0.6929
  166DOPC  H16Y20201   0.227   1.793  15.078  2.0092  0.9230 -0.6702
  166DOPC  C31720202   0.439   1.748  15.116 -0.4858 -0.3002  0.1723
  166DOPC  H17X20203   0.466   1.794  15.018 -2.6608  2.7373  0.8515
  166DOPC  H17Y20204   0.430   1.828  15.192 -1.4569  0.8606 -1.1218
  166DOPC  C31820205   0.538   1.642  15.164  0.7252 -0.7002 -0.3001
  166DOPC  H18X20206   0.530   1.558  15.091 -1.2831  0.0504 -1.0184
  166DOPC  H18Y20207   0.640   1.683  15.153  0.9722 -0.8628  1.1808
  166DOPC  H18Z20208   0.522   1.617  15.272  0.7427 -0.7633 -0.3118
  167DOPC     N20209   6.896   7.263  17.161 -0.7139 -0.5668 -0.4514
  167DOPC   C1220210   6.965   7.344  17.045 -0.3727 -0.4425  0.1118
  167DOPC  H12A20211   7.070   7.344  17.071 -0.1450 -1.8245 -0.7000
  167DOPC  H12B20212   6.928   7.445  17.048  1.7615  0.4121 -0.1516
  167DOPC   C1320213   6.970   7.301  17.288  0.3675 -0.0738 -0.1979
  167DOPC  H13A20214   6.974   7.408  17.297 -0.1731  0.1263 -1.8677
  167DOPC  H13B20215   6.912   7.268  17.373 -0.3118  0.4030 -0.4609
  167DOPC  H13C20216   7.069   7.259  17.294  0.7766  0.9828  0.6009
  167DOPC   C1420217   6.896   7.118  17.131 -0.5967 -0.3689 -0.0150
  167DOPC  H14A20218   6.999   7.085  17.123 -0.0480  1.6260 -2.0261
  167DOPC  H14B20219   6.855   7.068  17.218  0.0199  0.6749  0.9013
  167DOPC  H14C20220   6.842   7.091  17.042 -0.4857  1.9217 -0.8211
  167DOPC   C1520221   6.751   7.297  17.180 -0.6579 -0.2445  0.5423
  167DOPC  H15A20222   6.746   7.400  17.213  0.3833 -0.3306  1.0044
  167DOPC  H15B20223   6.699   7.235  17.251  0.7128 -2.4607 -0.2854
  167DOPC  H15C20224   6.697   7.291  17.087 -0.5931 -1.7636  0.5860
  167DOPC   C1120225   6.940   7.308  16.897 -0.1830  0.4036  0.3724
  167DOPC  H11A20226   7.010   7.375  16.842 -2.1706  1.5491 -0.8929
  167DOPC  H11B20227   6.988   7.211  16.872 -2.2233 -0.1956 -1.5290
  167DOPC     P20228   6.748   7.432  16.767 -0.4382 -0.1998  0.1672
  167DOPC   O1320229   6.840   7.550  16.782  0.5297  0.2790  0.0995
  167DOPC   O1420230   6.611   7.460  16.812 -0.0919 -0.1339  0.0377
  167DOPC   O1220231   6.804   7.313  16.857 -0.0097 -0.4322  0.1941
  167DOPC   O1120232   6.756   7.356  16.627 -0.7028  0.6468  0.4352
  167DOPC    C120233   6.874   7.292  16.576  0.1930 -0.3363 -0.0232
  167DOPC    HA20234   6.845   7.240  16.482 -1.2098  2.4598 -1.2651
  167DOPC    HB20235   6.919   7.218  16.646  3.1872  3.3735  2.3651
  167DOPC    C220236   6.985   7.393  16.536  0.3790  0.5857 -0.6135
  167DOPC    HS20237   6.991   7.471  16.614  2.3211  0.2337 -0.3580
  167DOPC   O2120238   6.958   7.447  16.409  0.5754 -0.3871 -0.1864
  167DOPC   C2120239   7.025   7.561  16.377 -0.1206  0.1708  0.2988
  167DOPC   O2220240   7.109   7.612  16.443  0.4555  0.3331 -0.1644
  167DOPC   C2220241   6.991   7.604  16.234 -0.2624  0.4156  0.3035
  167DOPC   H2R20242   6.881   7.596  16.221 -0.2407 -3.4388  0.9951
  167DOPC   H2S20243   7.037   7.532  16.163 -2.6036  0.9610 -1.9131
  167DOPC    C320244   7.121   7.311  16.551 -1.3563  0.2247  0.8176
  167DOPC    HX20245   7.122   7.272  16.655 -0.8284  2.1399  1.5657
  167DOPC    HY20246   7.209   7.375  16.529 -0.5824 -1.2106 -0.4762
  167DOPC   O3120247   7.119   7.199  16.454 -0.1231 -0.3923 -0.7569
  167DOPC   C3120248   7.193   7.221  16.343 -0.0272  0.2350 -0.1516
  167DOPC   O3220249   7.267   7.318  16.325 -0.7995  0.0993 -0.2770
  167DOPC   C3220250   7.159   7.120  16.238 -0.7580  0.2858 -0.2660
  167DOPC   H2X20251   7.252   7.059  16.229  0.5797  2.3814 -1.4998
  167DOPC   H2Y20252   7.080   7.052  16.277  0.4570 -0.9107  0.1872
  167DOPC   C2320253   7.046   7.743  16.200 -0.4439  0.5891 -0.3661
  167DOPC   H3R20254   7.146   7.719  16.158 -0.7354  0.4356 -0.9920
  167DOPC   H3S20255   7.067   7.797  16.295  0.0538  0.1205 -0.2067
  167DOPC   C2420256   6.969   7.830  16.108  0.4196 -0.2832  0.0789
  167DOPC   H4R20257   6.864   7.849  16.139 -0.0866 -1.4356 -0.8618
  167DOPC   H4S20258   6.945   7.770  16.018  2.2197 -2.6100  1.0264
  167DOPC   C2520259   7.029   7.960  16.079 -0.5845 -0.0876 -0.0665
  167DOPC   H5R20260   7.128   7.939  16.033 -0.6085  0.7684 -0.5147
  167DOPC   H5S20261   7.032   8.022  16.172  0.5483 -0.1784 -0.0345
  167DOPC   C2620262   6.964   8.045  15.969 -0.6666 -0.1668 -0.3876
  167DOPC   H6R20263   6.856   8.052  15.995 -0.6169 -4.8770  2.2705
  167DOPC   H6S20264   6.978   7.982  15.878 -0.9409 -0.7329 -0.0427
  167DOPC   C2720265   7.029   8.179  15.952  0.0775 -0.2356  0.4516
  167DOPC   H7R20266   6.970   8.232  15.874 -1.1668  0.1927  1.6379
  167DOPC   H7S20267   7.137   8.171  15.927  0.0586 -2.9688  0.9089
  167DOPC   C2820268   7.017   8.271  16.076  0.9798  0.2513  0.1698
  167DOPC   H8R20269   7.056   8.227  16.171 -0.8217 -0.5803  0.5808
  167DOPC   H8S20270   6.908   8.278  16.096  0.5926 -1.5112 -1.0725
  167DOPC   C2920271   7.070   8.413  16.071  0.1419  0.4001 -0.9417
  167DOPC   H9R20272   7.016   8.486  16.011  2.0504  1.2109 -1.7629
  167DOPC  C21020273   7.189   8.456  16.128  0.4775  0.6405 -0.1088
  167DOPC  H10R20274   7.229   8.554  16.101 -2.2526  1.1298 -2.9643
  167DOPC  C21120275   7.289   8.383  16.216 -0.1166 -0.7056  0.4511
  167DOPC  H11R20276   7.232   8.336  16.299 -2.4478  0.5166 -0.3401
  167DOPC  H11S20277   7.352   8.462  16.263  1.1305 -1.1253 -0.4624
  167DOPC  C21220278   7.376   8.291  16.135  0.1695 -0.5065  0.8102
  167DOPC  H12R20279   7.447   8.235  16.200 -0.1614 -1.0828  0.6797
  167DOPC  H12S20280   7.307   8.208  16.108 -0.7552  1.1996 -2.5190
  167DOPC  C21320281   7.450   8.359  16.018  0.4855 -0.2142  0.3168
  167DOPC  H13R20282   7.492   8.448  16.069  1.7146 -1.7310  2.0562
  167DOPC  H13S20283   7.385   8.410  15.943  0.2453  0.2340  0.8211
  167DOPC  C21420284   7.567   8.274  15.958 -0.0237 -0.2103 -0.1903
  167DOPC  H14R20285   7.629   8.341  15.896  0.4667  1.9049  2.4067
  167DOPC  H14S20286   7.527   8.191  15.895  1.5083 -1.7657  0.7995
  167DOPC  C21520287   7.670   8.218  16.058  0.3793  0.1933  0.1866
  167DOPC  H15R20288   7.762   8.192  16.001  0.2244 -1.6274  0.7165
  167DOPC  H15S20289   7.642   8.116  16.091 -0.6700  0.1461 -0.7823
  167DOPC  C21620290   7.720   8.312  16.176 -0.4704  0.7407  0.7418
  167DOPC  H16R20291   7.628   8.334  16.234 -1.3451  0.3843 -0.4587
  167DOPC  H16S20292   7.757   8.407  16.130 -0.3564 -0.3201 -1.5152
  167DOPC  C21720293   7.828   8.249  16.260 -0.0989  0.3790 -0.6826
  167DOPC  H17R20294   7.903   8.208  16.189 -1.4743 -2.2535 -0.7089
  167DOPC  H17S20295   7.785   8.166  16.319 -0.8205  0.8662 -0.5075
  167DOPC  C21820296   7.895   8.347  16.353  0.7727  0.1771 -0.1797
  167DOPC  H18R20297   7.960   8.415  16.294 -0.9398  2.0536 -0.0377
  167DOPC  H18S20298   7.953   8.289  16.427  0.3731 -1.7362 -1.2807
  167DOPC  H18T20299   7.813   8.403  16.404 -0.3517 -0.1127 -1.5847
  167DOPC   C3320300   7.093   7.175  16.116  0.1162 -0.3179 -0.3169
  167DOPC   H3X20301   7.017   7.255  16.130  0.6184  0.2367 -0.7003
  167DOPC   H3Y20302   7.045   7.096  16.056 -0.3905  1.2385 -2.0670
  167DOPC   C3420303   7.199   7.229  16.020 -0.4107  0.4726  0.1018
  167DOPC   H4X20304   7.287   7.164  16.001 -0.5845  0.1784  0.2993
  167DOPC   H4Y20305   7.233   7.324  16.066 -1.5379  0.7299  0.4277
  167DOPC   C3520306   7.133   7.259  15.882 -0.2642 -0.5916 -0.4874
  167DOPC   H5X20307   7.202   7.334  15.836  0.0855  0.3295  1.4278
  167DOPC   H5Y20308   7.034   7.306  15.900  0.6618  1.6002 -0.7621
  167DOPC   C3620309   7.130   7.139  15.796  0.5263 -0.1656  0.3299
  167DOPC   H6X20310   7.231   7.108  15.763 -0.7735 -1.0624 -3.1762
  167DOPC   H6Y20311   7.098   7.056  15.862  3.0109 -0.0040  1.8746
  167DOPC   C3720312   7.042   7.155  15.673  0.5299  0.8369  0.0879
  167DOPC   H7X20313   7.000   7.065  15.623  0.2388  1.4445 -0.7762
  167DOPC   H7Y20314   6.954   7.220  15.692 -0.8445 -1.2305  1.2100
  167DOPC   C3820315   7.120   7.225  15.559 -0.3059 -0.1099  0.6076
  167DOPC   H8X20316   7.209   7.161  15.541 -0.4123  0.4182 -2.1338
  167DOPC   H8Y20317   7.164   7.321  15.594  1.4743 -0.6962  0.1058
  167DOPC   C3920318   7.039   7.251  15.433  0.1572  0.7085  0.0799
  167DOPC   H9X20319   6.954   7.318  15.452 -0.5853 -0.5226  1.1936
  167DOPC  C31020320   7.079   7.213  15.305 -0.1294  0.1880 -0.2427
  167DOPC  H10X20321   7.022   7.235  15.214 -0.4468 -1.9589 -0.6101
  167DOPC  C31120322   7.200   7.125  15.272  0.6415  0.5151  0.9181
  167DOPC  H11X20323   7.257   7.090  15.361  2.0714  0.9748  0.1961
  167DOPC  H11Y20324   7.272   7.190  15.219 -0.1037  0.2270 -0.5123
  167DOPC  C31220325   7.149   6.999  15.196  0.2733  0.1234  0.3260
  167DOPC  H12X20326   7.239   6.964  15.142 -0.1288  0.1172 -0.3503
  167DOPC  H12Y20327   7.088   7.041  15.113  1.3244 -0.9253 -1.0244
  167DOPC  C31320328   7.065   6.886  15.270 -0.0014 -0.6232  0.5071
  167DOPC  H13X20329   7.120   6.877  15.366  0.8333 -0.9163  0.0135
  167DOPC  H13Y20330   6.962   6.925  15.283 -0.5136 -2.1560  1.2572
  167DOPC  C31420331   7.058   6.759  15.184 -0.2368 -0.1501  0.3035
  167DOPC  H14X20332   7.160   6.738  15.147 -0.2516  0.1324  0.0934
  167DOPC  H14Y20333   7.035   6.676  15.254 -0.6516  0.5582  1.0222
  167DOPC  C31520334   6.964   6.761  15.061 -0.0949 -0.2087  0.4804
  167DOPC  H15X20335   6.960   6.856  15.005  2.3934 -0.5264 -0.3983
  167DOPC  H15Y20336   6.859   6.746  15.095 -0.4133  0.9437  0.0234
  167DOPC  C31620337   7.025   6.654  14.961  0.5990  0.6897  0.5829
  167DOPC  H16X20338   7.118   6.698  14.921 -0.1756 -0.5099 -2.8995
  167DOPC  H16Y20339   7.057   6.561  15.014 -2.3150 -0.3339  0.7394
  167DOPC  C31720340   6.932   6.626  14.842  0.4225 -0.4509  0.6346
  167DOPC  H17X20341   6.837   6.579  14.877 -0.9205  0.2446 -1.8017
  167DOPC  H17Y20342   6.898   6.724  14.804 -1.9850 -0.7468  1.8147
  167DOPC  C31820343   6.998   6.531  14.741  0.3174 -0.1295 -0.4207
  167DOPC  H18X20344   7.072   6.582  14.675  2.8431  0.2854  2.5008
  167DOPC  H18Y20345   7.046   6.449  14.798 -0.1495 -1.1879 -1.4970
  167DOPC  H18Z20346   6.911   6.491  14.684  0.9789 -1.9477 -0.2400
  168DOPC     N20347   3.045   0.129  17.433  0.1639  0.3599 -0.4315
  168DOPC   C1220348   3.093  -0.017  17.417 -0.1421  0.3016 -0.4034
  168DOPC  H12A20349   3.085  -0.061  17.515 -5.2752  1.8889  0.1828
  168DOPC  H12B20350   3.196  -0.021  17.385 -0.5342  0.2921 -1.7373
  168DOPC   C1320351   2.896   0.130  17.454 -0.4804 -0.5528 -0.3208
  168DOPC  H13A20352   2.860   0.067  17.534 -0.8982  0.2368  0.1281
  168DOPC  H13B20353   2.854   0.230  17.457  2.4519  0.8234 -1.4107
  168DOPC  H13C20354   2.849   0.083  17.368  0.5870 -1.1031 -0.6214
  168DOPC   C1420355   3.079   0.208  17.310  0.4841  0.2212 -0.0593
  168DOPC  H14A20356   3.183   0.237  17.306 -0.0783  2.4728  0.6413
  168DOPC  H14B20357   3.060   0.152  17.219  1.5151  0.6570 -0.5624
  168DOPC  H14C20358   3.020   0.297  17.295  0.1701  0.3927  1.9662
  168DOPC   C1520359   3.111   0.201  17.545 -0.0894  0.3848  0.1297
  168DOPC  H15A20360   3.217   0.192  17.528 -0.1233  1.2826 -0.6125
  168DOPC  H15B20361   3.081   0.152  17.637  0.4592  0.8611  0.5678
  168DOPC  H15C20362   3.083   0.304  17.558  0.6700  0.3634  2.2200
  168DOPC   C1120363   3.022  -0.105  17.307  0.5886  0.4935  0.3872
  168DOPC  H11A20364   3.069  -0.205  17.312  0.8936  0.6903  2.5859
  168DOPC  H11B20365   2.917  -0.128  17.337 -0.0018 -0.2878 -2.0648
  168DOPC     P20366   3.147  -0.074  17.085 -0.0736  0.2495 -0.2080
  168DOPC   O1320367   3.253  -0.159  17.149  0.1007 -1.0434 -0.5505
  168DOPC   O1420368   3.197   0.055  17.026  0.5328  0.1376  0.8060
  168DOPC   O1220369   3.030  -0.036  17.181  0.6381  0.2235  0.3644
  168DOPC   O1120370   3.076  -0.152  16.974  0.2315  0.2951 -0.1082
  168DOPC    C120371   3.004  -0.266  17.009 -0.3222 -0.5098  0.2460
  168DOPC    HA20372   2.926  -0.233  17.080 -0.5005  2.1263 -1.0681
  168DOPC    HB20373   3.070  -0.351  17.039  2.3854  0.6509 -1.9624
  168DOPC    C220374   2.928  -0.322  16.883  0.0122  0.2854 -0.5081
  168DOPC    HS20375   2.875  -0.417  16.905  0.8046 -0.6506 -2.4042
  168DOPC   O2120376   3.000  -0.322  16.762 -0.3716  0.4674  0.2117
  168DOPC   C2120377   3.085  -0.423  16.756 -0.3427  0.3214  0.3661
  168DOPC   O2220378   3.094  -0.519  16.835  0.1653 -0.5865 -0.5262
  168DOPC   C2220379   3.183  -0.400  16.635 -0.3397  0.0435  0.0220
  168DOPC   H2R20380   3.245  -0.488  16.610 -0.4069  0.6073 -2.4225
  168DOPC   H2S20381   3.256  -0.319  16.659 -0.3675  0.3305 -0.8126
  168DOPC    C320382   2.809  -0.226  16.857  0.0494 -0.0539 -0.1325
  168DOPC    HX20383   2.854  -0.125  16.852  0.4829 -0.2484 -0.2186
  168DOPC    HY20384   2.746  -0.223  16.948  0.8388  0.2984  0.4099
  168DOPC   O3120385   2.743  -0.262  16.735  0.4063 -0.2108  0.6203
  168DOPC   C3120386   2.777  -0.197  16.627 -0.1824  0.4331  0.1717
  168DOPC   O3220387   2.869  -0.113  16.624  0.1701  0.0897  0.7132
  168DOPC   C3220388   2.677  -0.243  16.520  0.2411 -0.1126 -0.0855
  168DOPC   H2X20389   2.723  -0.333  16.475  0.4330 -1.0149  1.8100
  168DOPC   H2Y20390   2.579  -0.261  16.569 -0.5157  1.9498 -0.7339
  168DOPC   C2320391   3.101  -0.362  16.511  0.2841 -0.6521  0.1112
  168DOPC   H3R20392   3.168  -0.338  16.425 -0.5752  1.3757 -0.0477
  168DOPC   H3S20393   3.039  -0.273  16.534  0.7943 -0.2204 -0.1644
  168DOPC   C2420394   3.015  -0.473  16.452  0.5363  0.8661  0.1880
  168DOPC   H4R20395   2.925  -0.502  16.510 -1.8039  1.1450 -3.0658
  168DOPC   H4S20396   3.078  -0.563  16.435  1.9733  1.6323  1.1874
  168DOPC   C2520397   2.953  -0.430  16.315 -0.1432  0.5951 -0.2505
  168DOPC   H5R20398   3.036  -0.434  16.242 -0.3595 -2.3310 -0.4564
  168DOPC   H5S20399   2.916  -0.326  16.323  1.4611  1.3725 -2.3364
  168DOPC   C2620400   2.833  -0.521  16.277  0.0319 -0.1133  0.0574
  168DOPC   H6R20401   2.752  -0.514  16.353  1.3600 -0.4487  1.5661
  168DOPC   H6S20402   2.864  -0.628  16.282  2.3076  0.5193  1.3699
  168DOPC   C2720403   2.791  -0.483  16.140  0.0433 -0.4265  0.0781
  168DOPC   H7R20404   2.834  -0.382  16.125 -0.1946 -0.3601 -0.1570
  168DOPC   H7S20405   2.683  -0.460  16.134 -0.4980 -3.0234 -1.7441
  168DOPC   C2820406   2.823  -0.581  16.029 -0.3812 -0.1118 -0.5002
  168DOPC   H8R20407   2.775  -0.676  16.062  0.0833  1.2329  5.1796
  168DOPC   H8S20408   2.931  -0.603  16.016 -0.7736 -1.6848 -1.3722
  168DOPC   C2920409   2.778  -0.548  15.887  0.0792 -0.2855  0.5495
  168DOPC   H9R20410   2.670  -0.558  15.865  0.2199 -0.5590 -0.0120
  168DOPC  C21020411   2.855  -0.512  15.787 -0.3635  0.6117  0.0182
  168DOPC  H10R20412   2.817  -0.488  15.687 -3.0271  0.7939  0.9969
  168DOPC  C21120413   3.000  -0.480  15.806 -0.6791  0.0157 -0.8032
  168DOPC  H11R20414   3.048  -0.473  15.906  2.2858 -0.1523 -2.1004
  168DOPC  H11S20415   3.019  -0.384  15.752  2.3401 -1.5773 -2.8889
  168DOPC  C21220416   3.082  -0.577  15.726 -0.4385 -0.6052  0.0959
  168DOPC  H12R20417   3.044  -0.677  15.756 -1.6946 -0.6395 -1.4868
  168DOPC  H12S20418   3.186  -0.564  15.764 -0.4964 -0.3652  0.1730
  168DOPC  C21320419   3.080  -0.562  15.573  0.2748 -0.2090 -0.2826
  168DOPC  H13R20420   3.074  -0.453  15.551 -0.7811 -0.4691 -1.3539
  168DOPC  H13S20421   2.984  -0.601  15.533 -2.7115  3.9087  2.0392
  168DOPC  C21420422   3.208  -0.615  15.512  0.8044  0.4724  0.7158
  168DOPC  H14R20423   3.221  -0.724  15.532 -0.5653  0.3191  0.8218
  168DOPC  H14S20424   3.300  -0.562  15.545  0.7271  2.6562 -2.1586
  168DOPC  C21520425   3.196  -0.610  15.359 -0.1066 -0.4135 -0.5914
  168DOPC  H15R20426   3.094  -0.620  15.317  0.2316 -1.2357 -1.2757
  168DOPC  H15S20427   3.267  -0.685  15.315  1.2188  0.8964 -0.7719
  168DOPC  C21620428   3.247  -0.476  15.313 -0.5674  0.2461  1.1374
  168DOPC  H16R20429   3.343  -0.443  15.360  0.0245 -0.9726  0.8331
  168DOPC  H16S20430   3.178  -0.399  15.354 -0.2650 -0.0587  2.2557
  168DOPC  C21720431   3.249  -0.448  15.166 -0.1245 -0.2106  0.0484
  168DOPC  H17R20432   3.283  -0.537  15.110 -2.6563 -1.4346  0.3629
  168DOPC  H17S20433   3.326  -0.368  15.153 -2.7781  2.3549 -1.0593
  168DOPC  C21820434   3.117  -0.396  15.110 -0.2828  0.1431  0.0219
  168DOPC  H18R20435   3.046  -0.477  15.140 -0.6691  1.5093  3.2277
  168DOPC  H18S20436   3.128  -0.366  15.004 -0.5061  1.4067  0.3432
  168DOPC  H18T20437   3.097  -0.304  15.170  1.7201 -0.6671  2.1008
  168DOPC   C3320438   2.673  -0.138  16.397  0.5570 -0.3982  0.2056
  168DOPC   H3X20439   2.777  -0.119  16.364  0.5732 -0.1012  0.4165
  168DOPC   H3Y20440   2.624  -0.044  16.431  1.2277  1.0141 -2.5155
  168DOPC   C3420441   2.593  -0.197  16.281  0.7084  0.1209 -0.0073
  168DOPC   H4X20442   2.658  -0.275  16.236  0.5087 -1.2669  2.0310
  168DOPC   H4Y20443   2.576  -0.114  16.208 -1.0817 -0.2324 -0.0114
  168DOPC   C3520444   2.454  -0.249  16.302  0.8689  0.3945 -0.6465
  168DOPC   H5X20445   2.420  -0.180  16.383  0.2300 -2.4430  1.6735
  168DOPC   H5Y20446   2.457  -0.348  16.352  0.4445  1.3706  1.4320
  168DOPC   C3620447   2.371  -0.257  16.180 -0.0619  0.3906  0.2096
  168DOPC   H6X20448   2.366  -0.162  16.122  1.0576  0.1548 -0.2874
  168DOPC   H6Y20449   2.421  -0.327  16.110  1.3325  0.9078  0.6525
  168DOPC   C3720450   2.226  -0.314  16.188 -0.0707  0.0801 -0.2359
  168DOPC   H7X20451   2.230  -0.412  16.240  1.4114  1.4114  2.3713
  168DOPC   H7Y20452   2.170  -0.246  16.254  0.1629  2.0724 -1.9850
  168DOPC   C3820453   2.155  -0.332  16.052 -0.0909 -0.1758  0.1795
  168DOPC   H8X20454   2.070  -0.396  16.085  1.0243 -1.4992  0.5528
  168DOPC   H8Y20455   2.212  -0.402  15.988  1.4704  2.9814 -2.1263
  168DOPC   C3920456   2.127  -0.202  15.987  0.3024  0.3342 -0.4011
  168DOPC   H9X20457   2.099  -0.127  16.062 -0.1764 -0.7495  0.5451
  168DOPC  C31020458   2.133  -0.170  15.853 -0.3142 -0.2783 -0.6314
  168DOPC  H10X20459   2.115  -0.064  15.831 -0.9273  0.2971  2.3137
  168DOPC  C31120460   2.174  -0.257  15.743  0.3687  0.1739  0.6754
  168DOPC  H11X20461   2.111  -0.235  15.655  1.8371 -0.1077 -0.4942
  168DOPC  H11Y20462   2.171  -0.367  15.762  1.8630  0.1406  0.8373
  168DOPC  C31220463   2.320  -0.223  15.698  0.3148 -0.1695  0.3563
  168DOPC  H12X20464   2.316  -0.133  15.633 -3.6314  1.0624  2.0377
  168DOPC  H12Y20465   2.352  -0.305  15.628 -1.1023 -0.9678  0.6131
  168DOPC  C31320466   2.420  -0.204  15.810  0.5749 -0.2630 -0.6190
  168DOPC  H13X20467   2.395  -0.113  15.870  2.4164 -1.2968  1.8732
  168DOPC  H13Y20468   2.406  -0.300  15.864  1.5622 -0.2048 -0.2319
  168DOPC  C31420469   2.572  -0.199  15.772  0.9002 -0.3134  0.2373
  168DOPC  H14X20470   2.598  -0.290  15.714 -1.1801 -0.0703 -1.1784
  168DOPC  H14Y20471   2.589  -0.111  15.706  1.0500 -1.0422 -0.7199
  168DOPC  C31520472   2.641  -0.178  15.904  0.9177 -0.3209  0.4046
  168DOPC  H15X20473   2.663  -0.277  15.950  1.2551 -0.4292  0.0119
  168DOPC  H15Y20474   2.566  -0.132  15.972 -1.1679 -2.9767  0.0720
  168DOPC  C31620475   2.780  -0.106  15.899 -0.2405 -0.3723  0.2058
  168DOPC  H16X20476   2.852  -0.167  15.840  0.2577  0.4615 -0.0727
  168DOPC  H16Y20477   2.776  -0.011  15.842  1.2248 -0.5067 -0.1785
  168DOPC  C31720478   2.842  -0.065  16.038 -0.4975 -0.6183 -0.1105
  168DOPC  H17X20479   2.785   0.025  16.069 -0.0484 -0.2540 -0.3252
  168DOPC  H17Y20480   2.827  -0.142  16.117  2.6812  0.4281  1.7209
  168DOPC  C31820481   2.991  -0.028  16.037 -0.1495  0.1009  0.0679
  168DOPC  H18X20482   3.051  -0.112  15.995  1.1699  1.8716 -1.7961
  168DOPC  H18Y20483   3.011   0.056  15.967 -0.3499 -0.1138 -0.2503
  168DOPC  H18Z20484   3.027  -0.002  16.139 -0.3367  1.2840 -0.1601
  169DOPC     N20485   0.607   0.228  17.218 -0.5263 -0.0797 -0.2129
  169DOPC   C1220486   0.498   0.315  17.165  0.1703  0.1767 -0.6186
  169DOPC  H12A20487   0.429   0.340  17.244  1.3993  1.4903  0.0808
  169DOPC  H12B20488   0.439   0.253  17.099  0.2445 -0.5641 -0.0022
  169DOPC   C1320489   0.705   0.327  17.290 -0.1592  0.3289  0.4648
  169DOPC  H13A20490   0.784   0.261  17.323 -0.5506 -0.0380  0.6782
  169DOPC  H13B20491   0.742   0.406  17.226  0.7648 -1.0871 -0.8132
  169DOPC  H13C20492   0.672   0.367  17.385 -1.6327 -0.5735  0.3713
  169DOPC   C1420493   0.676   0.150  17.112 -0.2482 -0.2636  0.3441
  169DOPC  H14A20494   0.751   0.089  17.161 -0.2139  0.5371  1.3418
  169DOPC  H14B20495   0.624   0.076  17.054  0.6938 -2.4578  2.1841
  169DOPC  H14C20496   0.733   0.212  17.043 -0.6376 -0.1821  0.0949
  169DOPC   C1520497   0.555   0.138  17.323 -0.1687 -0.1246  0.2317
  169DOPC  H15A20498   0.560   0.187  17.419  1.1946 -0.7752  0.5111
  169DOPC  H15B20499   0.605   0.045  17.344  0.2749  0.0241 -0.1438
  169DOPC  H15C20500   0.455   0.108  17.295 -0.8088  2.0567 -0.0185
  169DOPC   C1120501   0.543   0.445  17.095 -0.4150  0.2013  0.1459
  169DOPC  H11A20502   0.567   0.519  17.175 -0.3155 -2.1881  2.4541
  169DOPC  H11B20503   0.636   0.421  17.040  0.3520  1.3177  0.9058
  169DOPC     P20504   0.416   0.454  16.862 -0.2126  0.3250 -0.1306
  169DOPC   O1320505   0.309   0.538  16.801  0.3445  0.2815  0.4927
  169DOPC   O1420506   0.393   0.306  16.861  0.3824 -0.1792 -0.3718
  169DOPC   O1220507   0.440   0.496  17.014  0.3411  0.0695  0.4904
  169DOPC   O1120508   0.555   0.484  16.793 -0.4145 -0.2461  0.2080
  169DOPC    C120509   0.602   0.615  16.772  0.4236  0.0116 -0.2129
  169DOPC    HA20510   0.669   0.652  16.852  1.8342 -1.2863 -0.7524
  169DOPC    HB20511   0.517   0.686  16.757 -1.1885 -1.8671 -0.4208
  169DOPC    C220512   0.692   0.636  16.653 -0.2976  0.6482 -0.1087
  169DOPC    HS20513   0.719   0.742  16.670  1.2463  0.1822  0.4663
  169DOPC   O2120514   0.629   0.601  16.529 -0.5599  0.3278 -0.0640
  169DOPC   C2120515   0.666   0.690  16.435  0.3056 -0.1757  0.4138
  169DOPC   O2220516   0.748   0.781  16.453  0.1361 -0.3725 -0.3494
  169DOPC   C2220517   0.600   0.657  16.299  0.4466 -0.4938 -0.2409
  169DOPC   H2R20518   0.494   0.658  16.331  1.0741 -2.0148  2.1988
  169DOPC   H2S20519   0.626   0.554  16.264  0.6758  0.1862 -2.1930
  169DOPC    C320520   0.815   0.546  16.675 -0.7644  0.2756  0.5049
  169DOPC    HX20521   0.787   0.443  16.643 -0.7120  0.4658 -0.1530
  169DOPC    HY20522   0.838   0.538  16.784  0.1918  0.0063  0.2941
  169DOPC   O3120523   0.932   0.604  16.606  0.0129  0.4393  0.3778
  169DOPC   C3120524   0.969   0.555  16.488  0.6898 -0.3988  0.2011
  169DOPC   O3220525   0.896   0.481  16.425  0.6688  0.1536 -0.4257
  169DOPC   C3220526   1.098   0.614  16.432  0.0013  0.2280 -0.2038
  169DOPC   H2X20527   1.111   0.711  16.484 -1.2039  0.4986 -0.3732
  169DOPC   H2Y20528   1.178   0.541  16.456 -0.2754  0.0132  0.0673
  169DOPC   C2320529   0.645   0.764  16.196 -0.3385 -0.0955  0.8415
  169DOPC   H3R20530   0.755   0.746  16.189 -0.5293 -0.8445 -0.4735
  169DOPC   H3S20531   0.612   0.866  16.224 -1.2857  0.4352 -1.9556
  169DOPC   C2420532   0.596   0.739  16.053 -0.0599  0.6258  0.6353
  169DOPC   H4R20533   0.598   0.633  16.022  2.0937  0.7009  0.3700
  169DOPC   H4S20534   0.673   0.774  15.981  0.2928  0.8792  1.1305
  169DOPC   C2520535   0.457   0.791  16.007  0.6106 -0.0181 -0.3401
  169DOPC   H5R20536   0.442   0.892  16.051  0.7859  0.2335 -0.8461
  169DOPC   H5S20537   0.389   0.730  16.070 -0.0836 -0.2813 -1.3033
  169DOPC   C2620538   0.428   0.762  15.866  0.4561 -0.3399  0.5820
  169DOPC   H6R20539   0.451   0.658  15.834  1.1402 -0.2539  0.7993
  169DOPC   H6S20540   0.483   0.842  15.811 -0.2911  0.5122  1.0315
  169DOPC   C2720541   0.280   0.797  15.849 -0.1729 -0.2154  0.3549
  169DOPC   H7R20542   0.257   0.905  15.852  1.1205  0.1353 -0.9673
  169DOPC   H7S20543   0.220   0.760  15.935  0.1623  1.9387  1.5809
  169DOPC   C2820544   0.222   0.747  15.716  0.2163 -0.0292 -0.2711
  169DOPC   H8R20545   0.247   0.639  15.701 -2.7122 -0.7646 -0.5327
  169DOPC   H8S20546   0.274   0.802  15.634  0.5301  2.4413  1.4766
  169DOPC   C2920547   0.077   0.759  15.704  0.2586 -0.2320 -0.1573
  169DOPC   H9R20548   0.044   0.850  15.756  0.2803 -2.0703  3.3151
  169DOPC  C21020549  -0.012   0.685  15.643 -0.5750  0.4177  0.3663
  169DOPC  H10R20550  -0.120   0.709  15.637 -0.2862  1.7797  0.4047
  169DOPC  C21120551   0.021   0.565  15.561  0.6608 -0.4242 -0.5175
  169DOPC  H11R20552   0.130   0.543  15.564  0.1865 -3.0371 -0.7011
  169DOPC  H11S20553   0.007   0.598  15.455 -3.6673  1.2887  0.3771
  169DOPC  C21220554  -0.072   0.443  15.582  0.8043  0.2633  0.4327
  169DOPC  H12R20555  -0.182   0.457  15.586  0.2517 -3.2785  3.0134
  169DOPC  H12S20556  -0.037   0.405  15.681 -0.7628 -0.6124  0.6844
  169DOPC  C21320557  -0.066   0.329  15.475  0.5668  0.1988  0.7062
  169DOPC  H13R20558   0.044   0.313  15.463  0.6529  1.4773 -0.5713
  169DOPC  H13S20559  -0.113   0.364  15.380 -1.5277 -0.9650  1.2572
  169DOPC  C21420560  -0.117   0.188  15.520  0.4371  0.3941 -0.4466
  169DOPC  H14R20561  -0.221   0.204  15.555 -0.0983 -1.2345 -1.2075
  169DOPC  H14S20562  -0.058   0.161  15.610 -1.5444 -0.8057  0.5420
  169DOPC  C21520563  -0.125   0.081  15.409 -0.6696  0.4406  0.3200
  169DOPC  H15R20564  -0.018   0.064  15.383 -0.8834 -0.5939  0.0595
  169DOPC  H15S20565  -0.182   0.135  15.330 -0.1037  1.3138  0.5026
  169DOPC  C21620566  -0.182  -0.055  15.442  0.1525 -0.6079 -0.9520
  169DOPC  H16R20567  -0.193  -0.123  15.355 -2.6222 -0.2338 -0.9789
  169DOPC  H16S20568  -0.284  -0.044  15.486  1.9551  0.4985  3.5575
  169DOPC  C21720569  -0.102  -0.129  15.564  0.8273 -0.0028  0.2190
  169DOPC  H17R20570  -0.117  -0.075  15.660  1.2066  0.3761  0.0675
  169DOPC  H17S20571   0.004  -0.134  15.533  0.5093 -0.9770 -0.7925
  169DOPC  C21820572  -0.163  -0.269  15.596  0.7839  0.3263  0.3197
  169DOPC  H18R20573  -0.257  -0.266  15.654  0.6664 -0.5912  0.1834
  169DOPC  H18S20574  -0.088  -0.327  15.654 -1.0925 -1.4933  1.0165
  169DOPC  H18T20575  -0.180  -0.316  15.497  1.3001 -0.6167  0.6759
  169DOPC   C3320576   1.102   0.627  16.281  0.2874  0.0728 -0.3050
  169DOPC   H3X20577   1.029   0.704  16.247 -0.4954 -0.3834  0.2908
  169DOPC   H3Y20578   1.076   0.534  16.226 -0.1090  0.8663 -1.4960
  169DOPC   C3420579   1.240   0.653  16.228 -0.4246  0.0628  0.1216
  169DOPC   H4X20580   1.306   0.570  16.261  0.2191  0.6371  0.3025
  169DOPC   H4Y20581   1.265   0.752  16.271 -2.0299  0.5280  0.0392
  169DOPC   C3520582   1.242   0.664  16.079  0.9143  0.4281  0.2347
  169DOPC   H5X20583   1.228   0.562  16.037 -0.9401 -1.4899  4.8250
  169DOPC   H5Y20584   1.347   0.690  16.051  0.6169 -1.7824 -3.6422
  169DOPC   C3620585   1.154   0.772  16.012  0.1279 -0.0762 -0.5568
  169DOPC   H6X20586   1.046   0.749  16.022 -0.5926  2.8101 -0.9172
  169DOPC   H6Y20587   1.171   0.866  16.070  0.2066 -1.2271  1.4017
  169DOPC   C3720588   1.189   0.787  15.866  0.9594 -0.6389 -0.2382
  169DOPC   H7X20589   1.300   0.790  15.860  1.0219 -0.6100  0.7530
  169DOPC   H7Y20590   1.156   0.695  15.812  0.2180 -0.5502  0.0469
  169DOPC   C3820591   1.121   0.909  15.804 -0.5740  0.1598  0.3904
  169DOPC   H8X20592   1.020   0.914  15.849 -1.2040  2.3811 -1.0797
  169DOPC   H8Y20593   1.111   0.885  15.695 -0.9842 -2.6171  0.9509
  169DOPC   C3920594   1.198   1.035  15.832 -0.4960  0.0461 -0.2407
  169DOPC   H9X20595   1.178   1.085  15.928  0.2331  0.8421 -0.4949
  169DOPC  C31020596   1.292   1.089  15.745  0.1298  0.0059 -0.6913
  169DOPC  H10X20597   1.336   1.188  15.766  0.1998  0.0403 -1.0010
  169DOPC  C31120598   1.337   1.023  15.611  0.9640 -0.2726  0.2243
  169DOPC  H11X20599   1.315   0.914  15.619  0.7269 -0.1464  1.4627
  169DOPC  H11Y20600   1.447   1.035  15.601  0.7336  1.6023 -0.5254
  169DOPC  C31220601   1.288   1.087  15.488 -0.4789 -0.7794 -0.0254
  169DOPC  H12X20602   1.319   1.194  15.483 -1.5747 -0.4342  0.3333
  169DOPC  H12Y20603   1.178   1.104  15.479 -0.1300  4.9546  2.1216
  169DOPC  C31320604   1.349   1.030  15.363 -0.2748 -0.1384  0.0726
  169DOPC  H13X20605   1.459   1.022  15.371  0.0165  0.6385 -2.4277
  169DOPC  H13Y20606   1.304   0.929  15.348 -1.6660  0.4440  0.1539
  169DOPC  C31420607   1.320   1.113  15.234  0.6186  0.0934 -0.4021
  169DOPC  H14X20608   1.212   1.099  15.214  0.3599 -0.3119  1.1527
  169DOPC  H14Y20609   1.342   1.222  15.242  1.3880 -0.1997  2.2564
  169DOPC  C31520610   1.403   1.066  15.111 -0.0537  1.0946 -0.3274
  169DOPC  H15X20611   1.384   0.957  15.095 -1.0117  0.7926  2.3564
  169DOPC  H15Y20612   1.512   1.076  15.129  0.1355 -1.0707 -0.0316
  169DOPC  C31620613   1.381   1.144  14.985 -0.8103 -0.1799 -0.0876
  169DOPC  H16X20614   1.276   1.130  14.952 -0.9213  1.0455 -0.2857
  169DOPC  H16Y20615   1.396   1.251  15.010  1.0202 -0.4425  0.1088
  169DOPC  C31720616   1.479   1.100  14.874  0.2508 -0.2833 -0.6098
  169DOPC  H17X20617   1.585   1.112  14.904 -0.1512  1.1904  0.3274
  169DOPC  H17Y20618   1.464   0.991  14.857  0.9349 -0.2254 -1.6748
  169DOPC  C31820619   1.460   1.179  14.744  0.3044  1.0797 -0.6784
  169DOPC  H18X20620   1.497   1.283  14.755 -1.1753  1.8380 -2.3153
  169DOPC  H18Y20621   1.517   1.136  14.660  1.2869  0.7871  0.1161
  169DOPC  H18Z20622   1.352   1.185  14.718 -0.2618  1.9920  1.5686
  170DOPC     N20623   7.195   6.140  16.871  0.0682 -0.1483  0.2567
  170DOPC   C1220624   7.255   6.123  16.733 -0.5814 -1.0697  0.2062
  170DOPC  H12A20625   7.180   6.134  16.656 -1.5403  1.6609  1.3949
  170DOPC  H12B20626   7.283   6.019  16.728  2.3993 -0.3939  0.6780
  170DOPC   C1320627   7.159   6.282  16.901 -0.1334  0.0172 -0.1656
  170DOPC  H13A20628   7.104   6.289  16.994  1.0219  0.3387  0.5123
  170DOPC  H13B20629   7.242   6.351  16.899 -0.3241  0.2742  0.3032
  170DOPC  H13C20630   7.086   6.312  16.827 -1.0488 -2.1176 -0.1771
  170DOPC   C1420631   7.293   6.097  16.987  0.3366  0.1768 -0.0260
  170DOPC  H14A20632   7.390   6.144  16.980 -0.5660  2.0911 -0.2865
  170DOPC  H14B20633   7.247   6.117  17.083 -1.6389  0.5040 -0.9759
  170DOPC  H14C20634   7.304   5.990  16.979 -1.9123 -0.1418  0.4322
  170DOPC   C1520635   7.075   6.052  16.881 -0.0622  0.1000 -0.3055
  170DOPC  H15A20636   7.033   6.061  16.981  1.2274 -0.6046  0.3293
  170DOPC  H15B20637   7.104   5.948  16.883 -1.5102 -0.3295 -0.0195
  170DOPC  H15C20638   7.000   6.070  16.805 -0.6751 -0.2530  0.2012
  170DOPC   C1120639   7.387   6.198  16.687  0.0951 -0.2736  0.0806
  170DOPC  H11A20640   7.393   6.192  16.577  0.2343 -2.3977  0.1534
  170DOPC  H11B20641   7.368   6.307  16.701 -1.6566 -0.1594 -2.6566
  170DOPC     P20642   7.564   6.021  16.757 -0.4623  0.2304 -0.0833
  170DOPC   O1320643   7.469   5.925  16.702  0.0630  0.2588 -0.0070
  170DOPC   O1420644   7.625   5.991  16.894 -0.5693 -0.1679  0.5316
  170DOPC   O1220645   7.506   6.171  16.756 -0.8433  0.2485  0.1600
  170DOPC   O1120646   7.680   6.029  16.654  0.1171 -0.0451 -0.0473
  170DOPC    C120647   7.793   6.119  16.675 -0.5293 -0.5332 -0.0379
  170DOPC    HA20648   7.881   6.086  16.617 -0.7930  1.3444 -1.6006
  170DOPC    HB20649   7.828   6.126  16.780 -0.5471  0.6317 -0.0978
  170DOPC    C220650   7.754   6.256  16.618  0.3828  0.3148 -0.7592
  170DOPC    HS20651   7.669   6.300  16.674  0.5819 -0.1508 -0.0817
  170DOPC   O2120652   7.719   6.236  16.485 -0.0359 -0.1674  0.1825
  170DOPC   C2120653   7.672   6.343  16.419  0.0624 -0.7703  0.3138
  170DOPC   O2220654   7.647   6.452  16.466 -0.3367  0.1009  0.2164
  170DOPC   C2220655   7.646   6.301  16.277  0.1505  0.5924  0.3173
  170DOPC   H2R20656   7.568   6.224  16.294  1.8312 -0.9049  1.6541
  170DOPC   H2S20657   7.740   6.261  16.232 -0.4957  1.3757 -1.8352
  170DOPC    C320658   7.867   6.359  16.644 -0.3726 -0.0700 -0.1624
  170DOPC    HX20659   7.873   6.373  16.754  0.5732  0.5769 -0.2778
  170DOPC    HY20660   7.835   6.456  16.599 -0.0201 -0.4738 -1.3377
  170DOPC   O3120661   7.996   6.313  16.579 -0.6629  0.0647 -0.5044
  170DOPC   C3120662   8.103   6.311  16.652 -0.7037  0.4723 -0.2892
  170DOPC   O3220663   8.120   6.346  16.770 -0.0231  0.0394 -0.6061
  170DOPC   C3220664   8.220   6.260  16.560 -0.1978 -0.3106 -0.4430
  170DOPC   H2X20665   8.246   6.335  16.482 -0.0635 -0.5717 -0.6483
  170DOPC   H2Y20666   8.309   6.239  16.623  0.2327 -0.8706 -1.2221
  170DOPC   C2320667   7.579   6.411  16.183  0.0828 -0.2661 -0.3908
  170DOPC   H3R20668   7.654   6.490  16.161  2.0311 -1.9025  0.0566
  170DOPC   H3S20669   7.505   6.462  16.249  1.6940 -0.9135  2.0612
  170DOPC   C2420670   7.532   6.365  16.048  0.1379  0.0950  0.3652
  170DOPC   H4R20671   7.438   6.308  16.065 -2.1622  3.4129 -0.1646
  170DOPC   H4S20672   7.605   6.299  15.996 -0.6679 -1.3211  0.9774
  170DOPC   C2520673   7.495   6.481  15.952  0.2961 -0.7237 -0.6203
  170DOPC   H5R20674   7.591   6.524  15.918  1.4211 -0.2586  2.7522
  170DOPC   H5S20675   7.429   6.548  16.011  0.0080 -1.0233 -0.5969
  170DOPC   C2620676   7.425   6.430  15.829  0.1051  0.9528 -0.8919
  170DOPC   H6R20677   7.333   6.380  15.867 -0.9712  3.2472 -0.2973
  170DOPC   H6S20678   7.496   6.363  15.777  0.3040 -0.3901  0.9899
  170DOPC   C2720679   7.394   6.546  15.738 -0.1332  0.3765  0.1261
  170DOPC   H7R20680   7.489   6.603  15.727  0.5149 -0.2242  2.1836
  170DOPC   H7S20681   7.331   6.616  15.796 -0.8652 -1.6012  1.8466
  170DOPC   C2820682   7.323   6.510  15.606  0.2495  0.1907 -0.1613
  170DOPC   H8R20683   7.227   6.469  15.644  0.7729 -0.4009  0.5513
  170DOPC   H8S20684   7.383   6.438  15.547 -1.3531 -1.3351 -0.0061
  170DOPC   C2920685   7.317   6.638  15.533  0.1924 -0.1533 -0.0179
  170DOPC   H9R20686   7.268   6.720  15.588 -0.3791 -0.8232  0.4903
  170DOPC  C21020687   7.352   6.662  15.406  0.1220 -0.0961 -0.1985
  170DOPC  H10R20688   7.376   6.766  15.382 -0.8248 -0.2949 -2.2104
  170DOPC  C21120689   7.422   6.565  15.316  0.3869  0.2122  0.0994
  170DOPC  H11R20690   7.429   6.462  15.356 -0.2738  1.1528  2.8178
  170DOPC  H11S20691   7.529   6.596  15.319  0.5451 -0.2623 -0.4807
  170DOPC  C21220692   7.376   6.578  15.175 -0.2113 -0.1108  0.6319
  170DOPC  H12R20693   7.360   6.684  15.147  0.7248 -0.2271 -0.4224
  170DOPC  H12S20694   7.274   6.535  15.165 -0.2037  0.1142 -0.5903
  170DOPC  C21320695   7.468   6.508  15.075  0.2116 -0.4462 -0.1168
  170DOPC  H13R20696   7.489   6.401  15.094  1.9787 -0.0341  0.4523
  170DOPC  H13S20697   7.572   6.547  15.070  0.0925 -0.0651  0.3636
  170DOPC  C21420698   7.406   6.524  14.933  0.0345  0.0254 -0.3904
  170DOPC  H14R20699   7.408   6.630  14.902 -1.2483  0.0406 -0.4883
  170DOPC  H14S20700   7.296   6.507  14.930 -0.1527  1.1344 -0.0830
  170DOPC  C21520701   7.475   6.432  14.831 -0.3931  0.0423  0.3982
  170DOPC  H15R20702   7.499   6.326  14.854 -0.9232 -0.4074 -0.9722
  170DOPC  H15S20703   7.574   6.482  14.820 -0.8131  0.5708 -1.1739
  170DOPC  C21620704   7.403   6.431  14.688 -0.3310  0.1431  0.3302
  170DOPC  H16R20705   7.414   6.530  14.638 -0.1410  0.1398  0.3658
  170DOPC  H16S20706   7.300   6.401  14.718 -0.0110  0.3137  1.6839
  170DOPC  C21720707   7.446   6.319  14.593 -0.1194 -0.3050  0.5540
  170DOPC  H17R20708   7.413   6.228  14.647  0.2623  0.1191  1.5129
  170DOPC  H17S20709   7.556   6.315  14.580 -0.2860  1.1358 -2.1376
  170DOPC  C21820710   7.378   6.327  14.457  0.3999 -0.0847  0.8124
  170DOPC  H18R20711   7.388   6.431  14.418  0.8040 -0.2215  0.5460
  170DOPC  H18S20712   7.270   6.300  14.454 -0.1200  1.8194  0.9788
  170DOPC  H18T20713   7.443   6.266  14.391  1.6548  2.1291 -0.0948
  170DOPC   C3320714   8.178   6.129  16.497  0.1603  0.1585  0.0185
  170DOPC   H3X20715   8.142   6.053  16.570 -1.8014  0.8096 -0.2085
  170DOPC   H3Y20716   8.267   6.081  16.452 -0.2178 -1.9333  1.3087
  170DOPC   C3420717   8.081   6.142  16.376 -0.3649  0.0416 -0.2144
  170DOPC   H4X20718   7.999   6.214  16.396  0.3887  1.3793 -1.6893
  170DOPC   H4Y20719   8.036   6.043  16.351 -1.7074  0.1421  1.6117
  170DOPC   C3520720   8.146   6.189  16.247  0.8097  0.1005  0.7068
  170DOPC   H5X20721   8.216   6.106  16.219  0.8026  0.3844 -0.1797
  170DOPC   H5Y20722   8.208   6.281  16.256  0.8521  0.7404 -3.7980
  170DOPC   C3620723   8.047   6.204  16.128  0.0451 -0.2318 -0.6291
  170DOPC   H6X20724   7.987   6.295  16.147  2.2228  1.1420 -0.0457
  170DOPC   H6Y20725   8.094   6.223  16.029 -1.1026  1.0428 -0.9590
  170DOPC   C3720726   7.951   6.087  16.096  1.0662  0.0768 -0.1543
  170DOPC   H7X20727   7.991   5.983  16.098 -0.8468 -0.6957  0.8841
  170DOPC   H7Y20728   7.875   6.083  16.177 -1.2285 -0.7036 -2.2369
  170DOPC   C3820729   7.865   6.099  15.974  0.8393 -0.1265 -0.0838
  170DOPC   H8X20730   7.836   6.205  15.963  3.3463  0.4022 -2.9296
  170DOPC   H8Y20731   7.773   6.036  15.980  0.9062 -0.1360  0.9522
  170DOPC   C3920732   7.942   6.058  15.848 -0.5571  0.1349 -0.0408
  170DOPC   H9X20733   7.961   5.950  15.841  1.5271  0.3064  1.9931
  170DOPC  C31020734   7.966   6.134  15.737 -0.0520 -0.2734  0.0451
  170DOPC  H10X20735   8.034   6.093  15.662  0.5657 -1.7437  1.3616
  170DOPC  C31120736   7.932   6.279  15.709 -0.3305 -0.1697  0.7468
  170DOPC  H11X20737   8.029   6.326  15.680  0.5249 -0.9362  2.2178
  170DOPC  H11Y20738   7.900   6.338  15.798  2.5643  2.6598  0.1195
  170DOPC  C31220739   7.831   6.298  15.594 -0.2696 -0.7146 -0.0452
  170DOPC  H12X20740   7.869   6.265  15.495  1.3260 -1.1880  0.6903
  170DOPC  H12Y20741   7.812   6.407  15.591  1.1952 -0.3518  2.0865
  170DOPC  C31320742   7.683   6.248  15.604  0.2734 -0.7642 -0.0586
  170DOPC  H13X20743   7.649   6.247  15.710 -0.3945  0.6053 -0.2388
  170DOPC  H13Y20744   7.622   6.323  15.550  2.4237 -0.2594 -1.9236
  170DOPC  C31420745   7.661   6.111  15.543 -0.5077  0.6119 -0.3367
  170DOPC  H14X20746   7.692   6.117  15.437  0.2805  1.2264 -0.0840
  170DOPC  H14Y20747   7.732   6.043  15.596 -0.7840  1.8411  1.7029
  170DOPC  C31520748   7.527   6.055  15.574  0.0862  0.4972 -0.1553
  170DOPC  H15X20749   7.441   6.122  15.553  0.5734  0.9703 -0.6355
  170DOPC  H15Y20750   7.519   6.047  15.685 -3.4084 -1.2324 -0.3755
  170DOPC  C31620751   7.488   5.912  15.521  0.0228  0.9252  0.4551
  170DOPC  H16X20752   7.581   5.856  15.544 -0.1416  0.4816  0.0356
  170DOPC  H16Y20753   7.402   5.867  15.575 -0.3955 -0.4895 -1.3060
  170DOPC  C31720754   7.451   5.918  15.365  1.0424  1.0896  0.0648
  170DOPC  H17X20755   7.356   5.975  15.355 -0.4743 -1.1796  0.8656
  170DOPC  H17Y20756   7.540   5.955  15.311  0.7460  2.1108  0.2416
  170DOPC  C31820757   7.417   5.785  15.309 -0.5559 -0.0384  0.3074
  170DOPC  H18X20758   7.339   5.732  15.368 -1.5196 -0.0479 -0.9537
  170DOPC  H18Y20759   7.400   5.778  15.200 -3.3961  1.0725  0.5965
  170DOPC  H18Z20760   7.508   5.724  15.326 -0.5258  0.0077  0.3134
  171DOPC     N20761   4.612   1.500  12.993 -0.1149 -0.4119 -0.6992
  171DOPC   C1220762   4.685   1.619  12.924 -0.1491 -0.4479  0.1590
  171DOPC  H12A20763   4.647   1.624  12.823  1.4325 -2.2436 -0.5989
  171DOPC  H12B20764   4.792   1.603  12.926  0.0250  0.6271 -0.1717
  171DOPC   C1320765   4.645   1.490  13.148  0.2671  0.1231  0.0007
  171DOPC  H13A20766   4.627   1.588  13.189  1.6040  0.1567  0.5513
  171DOPC  H13B20767   4.580   1.414  13.189  0.8097  0.5528  1.7856
  171DOPC  H13C20768   4.748   1.461  13.163 -0.1785 -0.9853  1.2051
  171DOPC   C1420769   4.646   1.368  12.928 -0.3136  0.0484 -0.5325
  171DOPC  H14A20770   4.603   1.289  12.987 -0.6980  1.4780  1.1978
  171DOPC  H14B20771   4.596   1.353  12.833  0.2992 -0.9512 -0.7153
  171DOPC  H14C20772   4.751   1.347  12.923 -0.2802 -0.4888  1.6997
  171DOPC   C1520773   4.464   1.520  12.978  0.2506 -0.2356  0.9443
  171DOPC  H15A20774   4.438   1.568  12.885 -2.5242 -0.0275  1.7527
  171DOPC  H15B20775   4.437   1.585  13.060 -1.0371 -2.1976  2.1458
  171DOPC  H15C20776   4.415   1.424  12.979 -0.1050 -0.0570  0.7827
  171DOPC   C1120777   4.653   1.765  12.989 -0.5653 -1.0201  0.8366
  171DOPC  H11A20778   4.677   1.842  12.913  0.1902 -0.8355  1.2536
  171DOPC  H11B20779   4.543   1.777  13.002 -0.7746  0.9701 -1.9869
  171DOPC     P20780   4.734   1.920  13.193 -0.5717  0.1440 -0.2380
  171DOPC   O1320781   4.613   2.008  13.179  0.4049  0.4311 -0.2958
  171DOPC   O1420782   4.867   1.980  13.159 -0.2002 -0.3602  0.2422
  171DOPC   O1220783   4.718   1.790  13.117 -0.4413  0.4211 -0.2288
  171DOPC   O1120784   4.739   1.865  13.341 -0.6816  0.0685  0.3989
  171DOPC    C120785   4.614   1.816  13.391  0.1844 -0.4153  0.0026
  171DOPC    HA20786   4.629   1.728  13.457  2.0282  1.3612  2.1116
  171DOPC    HB20787   4.544   1.785  13.310  0.2141  1.0689 -0.6126
  171DOPC    C220788   4.535   1.918  13.484  0.2202  0.3969  0.0607
  171DOPC    HS20789   4.506   2.004  13.419 -1.6002  1.0037  1.5924
  171DOPC   O2120790   4.625   1.954  13.585 -0.3735  0.0647 -0.2542
  171DOPC   C2120791   4.615   2.080  13.630 -0.0218  0.1515 -0.3982
  171DOPC   O2220792   4.533   2.158  13.595  0.2550  0.0151 -0.2420
  171DOPC   C2220793   4.708   2.091  13.753  0.2068 -0.0551  0.2800
  171DOPC   H2R20794   4.812   2.081  13.713 -0.1843 -0.3004 -0.6924
  171DOPC   H2S20795   4.678   2.010  13.822 -0.5370  1.4646  1.8133
  171DOPC    C320796   4.412   1.849  13.554  0.2000 -0.5699 -0.2420
  171DOPC    HX20797   4.461   1.759  13.597 -1.9774 -0.9359  1.6725
  171DOPC    HY20798   4.334   1.817  13.481 -1.4053  3.0570 -0.3402
  171DOPC   O3120799   4.365   1.932  13.658 -0.4305  0.6728  0.3659
  171DOPC   C3120800   4.254   1.994  13.638 -0.3305 -0.0610  0.5628
  171DOPC   O3220801   4.178   1.974  13.543 -0.2362  0.0631  0.0526
  171DOPC   C3220802   4.237   2.101  13.744  1.6584 -0.7048  0.3400
  171DOPC   H2X20803   4.206   2.067  13.845  0.4606  1.4646  0.7588
  171DOPC   H2Y20804   4.335   2.153  13.744  1.0453  0.5482 -1.1146
  171DOPC   C2320805   4.703   2.223  13.826  0.6969  0.1398 -0.3294
  171DOPC   H3R20806   4.700   2.315  13.764 -0.1810  1.4799  1.6043
  171DOPC   H3S20807   4.789   2.229  13.896  0.0037  0.2973  0.5166
  171DOPC   C2420808   4.577   2.227  13.915  0.1910  0.6628  0.4541
  171DOPC   H4R20809   4.567   2.130  13.968 -1.8032  1.1029  0.9779
  171DOPC   H4S20810   4.484   2.233  13.854  0.8982  1.0246 -0.6312
  171DOPC   C2520811   4.583   2.327  14.031  0.8739  0.2801  0.1795
  171DOPC   H5R20812   4.480   2.347  14.068 -0.5497 -0.9964 -2.7624
  171DOPC   H5S20813   4.631   2.420  13.994  0.6993  0.8549  1.3705
  171DOPC   C2620814   4.672   2.283  14.146  0.3800 -0.1243  0.1552
  171DOPC   H6R20815   4.695   2.376  14.203 -0.3000  0.4561 -0.4872
  171DOPC   H6S20816   4.767   2.240  14.107 -0.2600  1.3906 -3.5176
  171DOPC   C2720817   4.605   2.177  14.241  0.2911 -0.0206 -0.1098
  171DOPC   H7R20818   4.606   2.086  14.177  1.6145 -0.6320  0.7489
  171DOPC   H7S20819   4.502   2.215  14.259  1.0143  1.8893  0.2339
  171DOPC   C2820820   4.689   2.160  14.372 -0.2913  0.0157  0.3920
  171DOPC   H8R20821   4.746   2.253  14.393  0.8845 -0.8800  1.3654
  171DOPC   H8S20822   4.770   2.086  14.358 -0.2107  0.5123 -2.0992
  171DOPC   C2920823   4.604   2.140  14.493 -0.6600  0.8414 -0.5777
  171DOPC   H9R20824   4.578   2.233  14.546  1.1616  1.1463 -0.1479
  171DOPC  C21020825   4.557   2.019  14.533  0.2643  0.3789 -0.2633
  171DOPC  H10R20826   4.479   2.027  14.610  0.1062 -1.0011 -0.2445
  171DOPC  C21120827   4.574   1.888  14.459  0.6526 -0.2259  0.1946
  171DOPC  H11R20828   4.590   1.914  14.352  1.4096  0.5688  0.4845
  171DOPC  H11S20829   4.478   1.833  14.462 -0.1423  1.1101  3.2427
  171DOPC  C21220830   4.677   1.784  14.505 -0.8271 -0.3076  0.1766
  171DOPC  H12R20831   4.776   1.834  14.496 -0.4434 -0.9498  0.7479
  171DOPC  H12S20832   4.670   1.700  14.433 -0.4577 -1.4363  1.4207
  171DOPC  C21320833   4.648   1.728  14.648  0.1398  0.4027  0.6268
  171DOPC  H13R20834   4.636   1.815  14.716 -0.8467  0.2740  0.6330
  171DOPC  H13S20835   4.730   1.659  14.677 -0.6369 -0.4916  0.7328
  171DOPC  C21420836   4.507   1.644  14.661 -0.6568 -0.0410  0.1987
  171DOPC  H14R20837   4.501   1.552  14.598 -2.9877 -0.9372  1.6138
  171DOPC  H14S20838   4.429   1.718  14.635  2.0461  3.4774  1.3370
  171DOPC  C21520839   4.474   1.611  14.808  0.0788  0.0219  0.1488
  171DOPC  H15R20840   4.463   1.705  14.866 -3.0551  0.1769 -0.5063
  171DOPC  H15S20841   4.558   1.552  14.850  0.8393  0.6109 -0.5148
  171DOPC  C21620842   4.347   1.530  14.830  0.7032  0.1207  0.0813
  171DOPC  H16R20843   4.362   1.451  14.906  0.6097  1.0544  1.1029
  171DOPC  H16S20844   4.329   1.475  14.736 -1.7276  1.6591 -0.4480
  171DOPC  C21720845   4.211   1.605  14.848 -0.0048  0.0110  0.3628
  171DOPC  H17R20846   4.126   1.533  14.849 -0.7837  0.9231  1.0561
  171DOPC  H17S20847   4.185   1.671  14.763 -2.5576  0.9708  1.8072
  171DOPC  C21820848   4.206   1.703  14.964  0.7357 -0.3072  0.4042
  171DOPC  H18R20849   4.116   1.767  14.967  0.8203 -0.2315  2.1726
  171DOPC  H18S20850   4.292   1.772  14.953  0.4318  0.4074  2.3011
  171DOPC  H18T20851   4.226   1.649  15.059  0.5786  1.5853  1.5599
  171DOPC   C3320852   4.131   2.196  13.688  0.2167  0.2565 -0.4552
  171DOPC   H3X20853   4.034   2.146  13.708  0.4230 -0.5424 -1.3677
  171DOPC   H3Y20854   4.142   2.225  13.581  2.2144  3.9665  0.5714
  171DOPC   C3420855   4.136   2.331  13.752  0.0766 -0.0626 -0.1509
  171DOPC   H4X20856   4.060   2.401  13.711 -0.5587 -0.7589 -0.1884
  171DOPC   H4Y20857   4.233   2.377  13.723  0.3389 -0.5589 -0.0827
  171DOPC   C3520858   4.146   2.329  13.910  0.4033 -0.2566  0.0373
  171DOPC   H5X20859   4.219   2.255  13.947  1.1131 -0.2313 -1.2708
  171DOPC   H5Y20860   4.053   2.281  13.947  0.9546 -1.9986 -0.7358
  171DOPC   C3620861   4.184   2.460  13.981  0.7618 -0.0876 -0.1684
  171DOPC   H6X20862   4.280   2.502  13.942  2.3498 -1.0081  2.4707
  171DOPC   H6Y20863   4.111   2.540  13.957  0.5037 -0.8203 -1.9849
  171DOPC   C3720864   4.193   2.441  14.131 -0.2937  0.1683 -0.1624
  171DOPC   H7X20865   4.109   2.383  14.175 -0.5226  1.7787  1.6568
  171DOPC   H7Y20866   4.274   2.370  14.156 -2.1568 -1.0752  3.0428
  171DOPC   C3820867   4.196   2.571  14.217  0.3715 -0.4173  0.0061
  171DOPC   H8X20868   4.197   2.544  14.325  2.0263 -3.0503 -0.5986
  171DOPC   H8Y20869   4.096   2.613  14.191  0.1205 -0.3932  0.9720
  171DOPC   C3920870   4.303   2.676  14.193 -0.3660  0.4522  0.1248
  171DOPC   H9X20871   4.274   2.761  14.128 -2.2496  0.5804  1.0656
  171DOPC  C31020872   4.421   2.670  14.249 -0.7274  0.6864  0.2506
  171DOPC  H10X20873   4.500   2.737  14.212  1.6130 -0.7084  2.4422
  171DOPC  C31120874   4.474   2.560  14.333  0.0801  0.4655 -0.1881
  171DOPC  H11X20875   4.541   2.499  14.268 -2.3034 -2.9585  0.2862
  171DOPC  H11Y20876   4.391   2.497  14.370  1.4930 -1.7091 -0.5548
  171DOPC  C31220877   4.560   2.609  14.451  0.4087  0.2196 -0.7016
  171DOPC  H12X20878   4.488   2.673  14.507  0.1404 -0.4435 -0.2886
  171DOPC  H12Y20879   4.640   2.672  14.405  0.8838  0.2949  0.2107
  171DOPC  C31320880   4.607   2.494  14.537 -0.1225 -0.3040  0.0282
  171DOPC  H13X20881   4.512   2.452  14.577  0.6229 -1.5077  0.6207
  171DOPC  H13Y20882   4.660   2.421  14.473  1.1795  0.9619 -0.3814
  171DOPC  C31420883   4.706   2.530  14.646 -0.1813  0.3767 -0.0671
  171DOPC  H14X20884   4.782   2.598  14.601  0.5516 -1.7987 -2.3313
  171DOPC  H14Y20885   4.640   2.583  14.719 -1.0155 -3.0246  1.8490
  171DOPC  C31520886   4.780   2.409  14.711  0.0394  0.0382  0.5173
  171DOPC  H15X20887   4.865   2.447  14.771 -0.8610  1.6795  0.7992
  171DOPC  H15Y20888   4.811   2.348  14.624 -0.2226  0.9006 -0.1860
  171DOPC  C31620889   4.692   2.326  14.804  0.4644  0.7419  0.6184
  171DOPC  H16X20890   4.648   2.384  14.888 -0.6440  0.5024  0.2294
  171DOPC  H16Y20891   4.612   2.303  14.729  1.3050 -0.5716  0.0967
  171DOPC  C31720892   4.746   2.193  14.852 -0.7880 -0.2113 -1.1899
  171DOPC  H17X20893   4.808   2.145  14.773 -0.4683 -1.5753 -0.1373
  171DOPC  H17Y20894   4.818   2.208  14.935 -3.0609  2.7673  0.4467
  171DOPC  C31820895   4.647   2.091  14.902 -0.3400 -0.8102 -0.0526
  171DOPC  H18X20896   4.688   2.024  14.981  3.8397  0.6580 -0.7064
  171DOPC  H18Y20897   4.557   2.141  14.943 -0.6397 -1.3784 -0.0046
  171DOPC  H18Z20898   4.618   2.025  14.817  0.1292 -1.0155 -0.0585
  172DOPC     N20899   3.742   3.408  12.504  0.1965  0.1434 -0.2232
  172DOPC   C1220900   3.780   3.291  12.586  0.4500 -0.2115 -0.4435
  172DOPC  H12A20901   3.887   3.291  12.603  0.5863  0.9714 -1.2589
  172DOPC  H12B20902   3.758   3.199  12.533  2.5836 -1.0490  0.0028
  172DOPC   C1320903   3.812   3.539  12.562 -0.0989  0.8485  0.2409
  172DOPC  H13A20904   3.771   3.551  12.661  1.8870 -0.7581  1.3502
  172DOPC  H13B20905   3.915   3.513  12.579 -0.7472 -0.1014  3.3010
  172DOPC  H13C20906   3.797   3.621  12.494 -0.8619  1.9619  1.6948
  172DOPC   C1420907   3.594   3.438  12.488  0.0331 -0.2676 -0.6569
  172DOPC  H14A20908   3.546   3.461  12.582 -0.3646  1.5941 -1.2844
  172DOPC  H14B20909   3.572   3.518  12.420 -0.7577 -1.1203 -1.4298
  172DOPC  H14C20910   3.540   3.356  12.443 -1.2138  0.0928  0.1252
  172DOPC   C1520911   3.785   3.383  12.358 -0.1819 -0.0118  0.0029
  172DOPC  H15A20912   3.775   3.469  12.293  0.8565 -0.1456 -0.3471
  172DOPC  H15B20913   3.727   3.300  12.321 -1.5259 -0.3409  2.6477
  172DOPC  H15C20914   3.891   3.360  12.358  0.4977  2.7631 -0.3496
  172DOPC   C1120915   3.716   3.271  12.725  0.2308  0.1339 -0.4995
  172DOPC  H11A20916   3.610   3.242  12.711  0.0271 -0.2419  1.5366
  172DOPC  H11B20917   3.761   3.190  12.787 -2.2797 -0.9463  0.0351
  172DOPC     P20918   3.619   3.460  12.881  0.6422 -0.1323 -0.2621
  172DOPC   O1320919   3.493   3.382  12.870 -0.2715  0.1815  0.2462
  172DOPC   O1420920   3.624   3.601  12.836 -0.3865 -0.1581  0.3199
  172DOPC   O1220921   3.731   3.390  12.804  0.7209  0.3695  0.6423
  172DOPC   O1120922   3.672   3.450  13.031 -0.8382  0.0187 -0.3834
  172DOPC    C120923   3.667   3.316  13.091  0.0847 -0.0885  0.3996
  172DOPC    HA20924   3.750   3.253  13.052 -0.2907 -0.7639  0.6617
  172DOPC    HB20925   3.567   3.272  13.068 -0.1202  1.6557 -2.6590
  172DOPC    C220926   3.690   3.330  13.247  0.7022  0.8704 -0.0560
  172DOPC    HS20927   3.666   3.240  13.307 -1.3866  1.1715 -0.3675
  172DOPC   O2120928   3.604   3.437  13.299  0.0826 -0.0350  0.2319
  172DOPC   C2120929   3.473   3.403  13.321 -0.1313 -0.5626  0.3962
  172DOPC   O2220930   3.432   3.290  13.323  0.0808  0.1291 -0.0952
  172DOPC   C2220931   3.389   3.526  13.356 -0.1491 -0.0411 -0.7681
  172DOPC   H2R20932   3.325   3.552  13.269 -2.3666 -1.2187  0.4113
  172DOPC   H2S20933   3.450   3.618  13.368 -1.4069  0.7297  0.0145
  172DOPC    C320934   3.841   3.352  13.288  1.0419 -0.4237 -0.3178
  172DOPC    HX20935   3.874   3.456  13.268 -0.3060  0.2501  0.7821
  172DOPC    HY20936   3.904   3.297  13.214  1.0067 -0.1935 -0.5206
  172DOPC   O3120937   3.879   3.312  13.424  0.4028  0.1935  0.2884
  172DOPC   C3120938   3.877   3.415  13.517  0.2387  0.2436  0.1029
  172DOPC   O3220939   3.883   3.535  13.485  0.2082  0.6612  0.1961
  172DOPC   C3220940   3.851   3.351  13.654  0.1105  0.8084  0.0611
  172DOPC   H2X20941   3.768   3.279  13.637  1.8014 -0.8991 -1.5125
  172DOPC   H2Y20942   3.945   3.303  13.688 -0.2433 -0.1922 -0.3354
  172DOPC   C2320943   3.286   3.512  13.474 -0.5842 -0.4066 -0.1670
  172DOPC   H3R20944   3.228   3.420  13.454  0.3491 -1.2506  0.8544
  172DOPC   H3S20945   3.224   3.602  13.458 -0.9890 -1.0110 -2.3666
  172DOPC   C2420946   3.355   3.540  13.617  0.1141 -0.3485 -0.2533
  172DOPC   H4R20947   3.396   3.643  13.612 -1.1052  0.2315  0.7740
  172DOPC   H4S20948   3.449   3.483  13.632  0.7970  0.6769 -0.5732
  172DOPC   C2520949   3.261   3.521  13.736  0.2768 -0.3117  0.0639
  172DOPC   H5R20950   3.205   3.425  13.735 -0.7783  0.2728  0.9758
  172DOPC   H5S20951   3.192   3.607  13.734  0.5600 -0.0592  0.7832
  172DOPC   C2620952   3.349   3.517  13.868 -0.1944  0.5620  0.2319
  172DOPC   H6R20953   3.411   3.608  13.881  0.0165  0.6670 -1.2790
  172DOPC   H6S20954   3.415   3.433  13.838 -1.0068 -0.0039 -0.0217
  172DOPC   C2720955   3.260   3.476  13.985  0.0506 -0.3602  0.0126
  172DOPC   H7R20956   3.239   3.366  13.987  0.5628 -0.4658 -0.3548
  172DOPC   H7S20957   3.156   3.513  13.972 -0.4411 -1.4646  0.6402
  172DOPC   C2820958   3.333   3.530  14.114  0.1242  0.0500 -0.4455
  172DOPC   H8R20959   3.362   3.637  14.117 -2.4677  0.8392 -0.4659
  172DOPC   H8S20960   3.424   3.467  14.118 -0.8976 -1.4451  1.5755
  172DOPC   C2920961   3.225   3.506  14.218  0.0419  0.1949 -0.1609
  172DOPC   H9R20962   3.154   3.423  14.201 -0.1149  0.0128  1.2636
  172DOPC  C21020963   3.195   3.591  14.313 -0.0154 -0.8402 -0.4428
  172DOPC  H10R20964   3.112   3.567  14.381  0.4599  1.1457  0.9184
  172DOPC  C21120965   3.253   3.727  14.347 -0.0558 -0.0913  0.3279
  172DOPC  H11R20966   3.172   3.801  14.361 -1.5591 -1.0018 -2.6656
  172DOPC  H11S20967   3.322   3.756  14.265  1.6040 -0.5749  1.4987
  172DOPC  C21220968   3.346   3.715  14.463 -0.0323  0.3648 -1.1477
  172DOPC  H12R20969   3.412   3.627  14.446  3.8216  2.8456 -0.3790
  172DOPC  H12S20970   3.287   3.703  14.556 -0.0640  1.0095 -1.0767
  172DOPC  C21320971   3.440   3.839  14.485  0.0397 -0.1798  0.1780
  172DOPC  H13R20972   3.370   3.925  14.495 -0.4959 -0.5132 -0.5596
  172DOPC  H13S20973   3.505   3.851  14.396 -0.0842 -1.1057 -0.0452
  172DOPC  C21420974   3.525   3.829  14.607 -0.4079 -0.7637 -0.1123
  172DOPC  H14R20975   3.459   3.840  14.696 -0.4592 -1.4415 -0.0578
  172DOPC  H14S20976   3.588   3.920  14.602 -0.8955 -0.5023 -2.5965
  172DOPC  C21520977   3.618   3.700  14.616  0.0008 -0.4773  0.1143
  172DOPC  H15R20978   3.685   3.714  14.528  0.3033  1.2150  0.5838
  172DOPC  H15S20979   3.573   3.599  14.626 -1.4070  0.3742  4.1437
  172DOPC  C21620980   3.692   3.717  14.751 -0.4301  0.3913 -0.1946
  172DOPC  H16R20981   3.630   3.709  14.843  1.0236  0.1216  0.8045
  172DOPC  H16S20982   3.745   3.814  14.748  1.5148 -0.4209  2.8898
  172DOPC  C21720983   3.807   3.610  14.779 -0.5578 -0.1112 -0.1667
  172DOPC  H17R20984   3.865   3.641  14.868  0.7488 -0.9579 -0.7049
  172DOPC  H17S20985   3.879   3.603  14.695 -0.6254  1.2395 -0.3599
  172DOPC  C21820986   3.751   3.469  14.799 -0.6433 -0.0785  0.3355
  172DOPC  H18R20987   3.654   3.475  14.852 -2.3806  3.8172 -2.7407
  172DOPC  H18S20988   3.812   3.393  14.853 -1.0408 -1.9924 -1.7470
  172DOPC  H18T20989   3.735   3.413  14.704  1.6476 -0.2630 -0.0023
  172DOPC   C3320990   3.796   3.450  13.760 -0.1235 -0.2112 -0.3522
  172DOPC   H3X20991   3.692   3.476  13.730  0.9112  1.3821 -2.8388
  172DOPC   H3Y20992   3.866   3.536  13.761  1.4987 -1.4752  1.3496
  172DOPC   C3420993   3.800   3.391  13.900  0.0087 -0.2208  0.2740
  172DOPC   H4X20994   3.891   3.335  13.930 -0.8423 -1.2158  1.1160
  172DOPC   H4Y20995   3.735   3.300  13.905  1.2179 -1.1139  0.2807
  172DOPC   C3520996   3.777   3.487  14.020 -0.5896 -0.2164 -0.5927
  172DOPC   H5X20997   3.678   3.537  14.009  0.1351  0.9222 -2.3848
  172DOPC   H5Y20998   3.862   3.558  14.029 -0.3804 -0.3725 -1.2981
  172DOPC   C3620999   3.791   3.422  14.151 -1.0114  0.3377  0.1658
  172DOPC   H6X21000   3.896   3.394  14.175 -0.9923  1.7655  2.0224
  172DOPC   H6Y21001   3.778   3.504  14.225  0.0945  0.5101  0.1972
  172DOPC   C3721002   3.685   3.322  14.167  0.2920 -0.5813  0.2417
  172DOPC   H7X21003   3.584   3.356  14.138  0.0238 -0.5631  1.1753
  172DOPC   H7Y21004   3.707   3.223  14.120 -0.8984 -0.6178 -0.2626
  172DOPC   C3821005   3.658   3.278  14.309 -0.3603 -0.3033 -1.0830
  172DOPC   H8X21006   3.576   3.205  14.292  0.4043 -0.8007 -2.8116
  172DOPC   H8Y21007   3.624   3.369  14.364  1.3369  0.8366 -1.8519
  172DOPC   C3921008   3.772   3.212  14.382  0.3023  0.0374  0.1178
  172DOPC   H9X21009   3.868   3.265  14.377  0.5612 -0.5527 -2.9006
  172DOPC  C31021010   3.765   3.084  14.432  0.1849 -0.3500  0.6572
  172DOPC  H10X21011   3.857   3.038  14.470  2.2667  1.1702 -2.1809
  172DOPC  C31121012   3.651   2.990  14.446 -0.6029  0.2901 -1.2389
  172DOPC  H11X21013   3.659   2.906  14.375  0.6188 -0.2904 -0.4431
  172DOPC  H11Y21014   3.550   3.036  14.434 -0.4607  1.0124  0.1028
  172DOPC  C31221015   3.649   2.930  14.588 -0.7872  0.9086 -0.4190
  172DOPC  H12X21016   3.753   2.892  14.602 -1.0801  0.2482  0.0141
  172DOPC  H12Y21017   3.585   2.839  14.593  0.0392  0.3549  0.7487
  172DOPC  C31321018   3.621   3.026  14.705  0.2054  0.2670  0.3219
  172DOPC  H13X21019   3.661   3.126  14.678 -2.0827  1.4203  0.9212
  172DOPC  H13Y21020   3.510   3.023  14.714  0.2147 -1.6377  0.2192
  172DOPC  C31421021   3.678   2.982  14.830 -0.1140  0.1676  0.3885
  172DOPC  H14X21022   3.621   2.896  14.872 -1.3812  1.2390  0.8890
  172DOPC  H14Y21023   3.786   2.956  14.823  0.1718  1.4861 -0.3114
  172DOPC  C31521024   3.683   3.081  14.946 -0.1212  0.0512 -0.0068
  172DOPC  H15X21025   3.583   3.130  14.938  1.0613  2.3487 -4.4121
  172DOPC  H15Y21026   3.753   3.162  14.914 -1.1237  0.4742 -1.2139
  172DOPC  C31621027   3.721   3.022  15.082  0.0738 -0.3389  0.9861
  172DOPC  H16X21028   3.658   2.933  15.103 -0.6143 -0.8278 -2.5707
  172DOPC  H16Y21029   3.830   2.999  15.076  0.4033  1.3118 -0.4550
  172DOPC  C31721030   3.699   3.127  15.193 -0.5146  0.2652  0.5344
  172DOPC  H17X21031   3.718   3.231  15.162 -0.6110 -0.3669 -1.8110
  172DOPC  H17Y21032   3.589   3.124  15.209 -0.5954 -0.2721 -0.0671
  172DOPC  C31821033   3.756   3.092  15.332 -0.2085  0.3208  0.0800
  172DOPC  H18X21034   3.867   3.090  15.329 -0.1778 -0.4700  1.1140
  172DOPC  H18Y21035   3.727   3.170  15.405  0.4318  0.5836  0.0620
  172DOPC  H18Z21036   3.724   2.990  15.362  2.5233 -0.2558  1.2606
  173DOPC     N21037   2.497   2.045  12.935  0.1229 -0.1692 -0.2720
  173DOPC   C1221038   2.409   2.018  13.051  0.5668 -0.4367 -0.3125
  173DOPC  H12A21039   2.407   1.910  13.058  1.5501 -0.5521 -1.4770
  173DOPC  H12B21040   2.309   2.056  13.042  0.6948 -0.0935 -0.2745
  173DOPC   C1321041   2.634   1.983  12.938  1.0041 -0.5640 -0.0764
  173DOPC  H13A21042   2.634   1.876  12.927  0.7761 -0.6947  1.0775
  173DOPC  H13B21043   2.687   2.025  12.853 -0.4034  1.0947 -0.1906
  173DOPC  H13C21044   2.686   2.013  13.028  0.8319  1.8365 -0.6913
  173DOPC   C1421045   2.514   2.189  12.921 -0.8722 -0.0100  0.2444
  173DOPC  H14A21046   2.584   2.209  12.841  1.3369  0.2427  2.1342
  173DOPC  H14B21047   2.427   2.246  12.895  0.1091  1.0682 -0.8255
  173DOPC  H14C21048   2.557   2.230  13.011 -1.5097 -3.2316  2.2047
  173DOPC   C1521049   2.425   2.009  12.807 -0.0250  0.2777  0.9579
  173DOPC  H15A21050   2.401   1.904  12.815  0.5814 -0.0770 -1.2773
  173DOPC  H15B21051   2.485   2.018  12.717 -2.8196  0.4546 -1.0001
  173DOPC  H15C21052   2.338   2.071  12.794  0.7317  1.8097  2.7188
  173DOPC   C1121053   2.463   2.060  13.194 -0.1168 -0.3635 -1.0586
  173DOPC  H11A21054   2.393   2.012  13.265  0.4903  0.8765  0.4435
  173DOPC  H11B21055   2.567   2.023  13.201 -0.5745 -2.0813 -2.6178
  173DOPC     P21056   2.322   2.281  13.256 -0.5059  0.0249 -0.2427
  173DOPC   O1321057   2.210   2.186  13.270 -0.5363  0.3799  0.1755
  173DOPC   O1421058   2.303   2.393  13.162  0.2580  0.1284  0.5352
  173DOPC   O1221059   2.456   2.207  13.206 -0.4206  0.0097 -0.5634
  173DOPC   O1121060   2.371   2.337  13.393  0.4712 -0.1327 -0.0793
  173DOPC    C121061   2.474   2.275  13.478 -0.2174 -0.0973  0.0828
  173DOPC    HA21062   2.535   2.356  13.523  0.8483 -0.0431 -1.3662
  173DOPC    HB21063   2.536   2.196  13.430 -1.1882  0.9561 -3.1991
  173DOPC    C221064   2.402   2.196  13.602  0.0738  0.8753  0.1177
  173DOPC    HS21065   2.339   2.125  13.544 -2.2440  1.8188  1.3618
  173DOPC   O2121066   2.319   2.293  13.668  0.3691  0.6646  0.3733
  173DOPC   C2121067   2.218   2.232  13.734  0.0145 -0.2000 -0.6119
  173DOPC   O2221068   2.201   2.108  13.735 -0.3292  0.4261  0.1278
  173DOPC   C2221069   2.132   2.337  13.808 -0.5204 -0.1102 -0.2288
  173DOPC   H2R21070   2.105   2.414  13.733 -0.6497 -0.4419 -0.5232
  173DOPC   H2S21071   2.185   2.380  13.897 -4.6370  3.3989  0.8647
  173DOPC    C321072   2.518   2.144  13.692 -0.5894 -0.1730 -0.5578
  173DOPC    HX21073   2.550   2.237  13.743 -0.7310 -0.5898  0.3221
  173DOPC    HY21074   2.610   2.116  13.636  1.0642  2.1357  0.8301
  173DOPC   O3121075   2.485   2.047  13.791  0.1312  0.0478 -0.2981
  173DOPC   C3121076   2.479   1.926  13.758  0.4446  0.7225 -0.4650
  173DOPC   O3221077   2.483   1.881  13.644  0.2612  0.3336 -0.6006
  173DOPC   C3221078   2.458   1.850  13.887  0.2848  0.2364  0.2356
  173DOPC   H2X21079   2.524   1.891  13.967 -0.6543 -1.1916  1.8026
  173DOPC   H2Y21080   2.356   1.871  13.925  1.0384 -0.0494  2.5682
  173DOPC   C2321081   1.999   2.279  13.853  0.1537  0.0485 -0.8789
  173DOPC   H3R21082   2.003   2.207  13.938 -1.1475  0.7613 -0.1821
  173DOPC   H3S21083   1.959   2.217  13.770 -0.9889 -0.0999 -0.2482
  173DOPC   C2421084   1.899   2.382  13.896 -0.2928  0.1506 -0.1303
  173DOPC   H4R21085   1.886   2.453  13.811  2.6623 -1.6875 -2.3341
  173DOPC   H4S21086   1.948   2.445  13.972 -2.5550 -0.1354  1.6770
  173DOPC   C2521087   1.772   2.322  13.953  0.2042 -0.7322 -0.2689
  173DOPC   H5R21088   1.813   2.275  14.045  2.1635  1.2655 -0.0285
  173DOPC   H5S21089   1.720   2.248  13.888  0.1353 -0.8464 -0.0825
  173DOPC   C2621090   1.667   2.432  13.997  0.4046 -0.3433  0.8143
  173DOPC   H6R21091   1.629   2.486  13.907 -0.1186 -1.5112  0.3230
  173DOPC   H6S21092   1.725   2.503  14.060 -0.4565 -1.1424  2.5782
  173DOPC   C2721093   1.551   2.369  14.078 -0.5725  0.0226 -0.3176
  173DOPC   H7R21094   1.595   2.335  14.174  1.3407  2.0774 -0.4157
  173DOPC   H7S21095   1.513   2.279  14.024 -2.3132 -1.4518  3.0222
  173DOPC   C2821096   1.444   2.470  14.112  0.2919 -0.4641  0.0550
  173DOPC   H8R21097   1.483   2.551  14.178 -0.8596  0.0625  0.1076
  173DOPC   H8S21098   1.377   2.413  14.179 -2.2906  1.4279 -0.7765
  173DOPC   C2921099   1.373   2.511  13.988  0.2975  0.1883  0.1721
  173DOPC   H9R21100   1.416   2.477  13.893 -0.4397  1.1872 -0.5350
  173DOPC  C21021101   1.250   2.571  13.973  0.2445 -0.5376  0.3610
  173DOPC  H10R21102   1.218   2.598  13.871 -1.7416 -1.9643  0.5523
  173DOPC  C21121103   1.164   2.636  14.085  0.0975 -0.6452  0.3178
  173DOPC  H11R21104   1.186   2.580  14.179 -0.8154 -0.3631  0.7152
  173DOPC  H11S21105   1.054   2.627  14.066  0.0328 -0.3185  0.5320
  173DOPC  C21221106   1.173   2.787  14.114  0.4449  0.1250 -0.3784
  173DOPC  H12R21107   1.151   2.848  14.024 -1.3974  1.3149  0.8130
  173DOPC  H12S21108   1.280   2.797  14.142  0.3467 -0.1359  0.1124
  173DOPC  C21321109   1.076   2.835  14.227  0.4133 -1.0769 -0.9185
  173DOPC  H13R21110   1.106   2.774  14.315  1.9575 -1.0178 -1.3652
  173DOPC  H13S21111   0.970   2.809  14.206 -0.4568  1.5726 -0.1889
  173DOPC  C21421112   1.094   2.983  14.264  0.5977  0.0096 -0.6451
  173DOPC  H14R21113   1.077   3.052  14.179  0.5878 -1.6144 -2.0214
  173DOPC  H14S21114   1.199   2.989  14.299 -0.0739 -1.4208  1.8678
  173DOPC  C21521115   0.996   3.015  14.378  0.2625 -0.1037 -0.1053
  173DOPC  H15R21116   0.960   2.925  14.432 -0.1258  0.6052  0.8277
  173DOPC  H15S21117   0.903   3.062  14.340 -0.8079 -1.1859  1.1068
  173DOPC  C21621118   1.042   3.125  14.479 -0.5440  0.3377 -0.3194
  173DOPC  H16R21119   1.149   3.108  14.504 -0.9943 -0.6018  1.0737
  173DOPC  H16S21120   0.987   3.095  14.571  1.6458 -3.2419  0.0277
  173DOPC  C21721121   1.016   3.274  14.438 -0.5557  0.2078  0.1230
  173DOPC  H17R21122   0.909   3.279  14.409 -0.7510 -0.2427  0.7433
  173DOPC  H17S21123   1.069   3.300  14.344  0.1438 -0.6156  0.2822
  173DOPC  C21821124   1.046   3.376  14.552  0.4684 -0.2052 -0.2072
  173DOPC  H18R21125   0.987   3.359  14.644  1.4364 -0.1285  0.4443
  173DOPC  H18S21126   1.005   3.476  14.526  1.7928  0.8070  1.3959
  173DOPC  H18T21127   1.156   3.379  14.572  0.2403 -0.0476  1.0790
  173DOPC   C3321128   2.463   1.700  13.856  0.1718  0.2741  0.1952
  173DOPC   H3X21129   2.426   1.673  13.754 -0.7145  1.6349  0.1292
  173DOPC   H3Y21130   2.399   1.635  13.920 -0.0554 -0.7372 -1.0176
  173DOPC   C3421131   2.605   1.640  13.875  0.2245 -0.0664 -0.1244
  173DOPC   H4X21132   2.655   1.671  13.969  0.9594 -1.3730 -0.0716
  173DOPC   H4Y21133   2.662   1.685  13.791  1.3915  0.3836  0.8793
  173DOPC   C3521134   2.605   1.486  13.876 -0.3322  0.2224  0.0576
  173DOPC   H5X21135   2.548   1.459  13.785 -0.4917  1.9257 -0.3967
  173DOPC   H5Y21136   2.545   1.451  13.962 -0.9647 -1.7958 -1.1474
  173DOPC   C3621137   2.747   1.422  13.880 -0.2738 -0.0458  0.0995
  173DOPC   H6X21138   2.792   1.429  13.779 -2.1464 -2.6122 -1.0412
  173DOPC   H6Y21139   2.801   1.466  13.966  0.7820 -1.5519  0.2505
  173DOPC   C3721140   2.752   1.265  13.906  0.4113  0.5012 -0.6073
  173DOPC   H7X21141   2.692   1.239  13.996  0.8313  1.8731  0.0884
  173DOPC   H7Y21142   2.711   1.219  13.813  0.0144  0.0599 -0.2172
  173DOPC   C3821143   2.895   1.212  13.926  0.4188  0.9240  0.0796
  173DOPC   H8X21144   2.893   1.111  13.973  0.6622 -0.7142 -3.1496
  173DOPC   H8Y21145   2.946   1.281  13.997 -0.3337  0.3683  1.1818
  173DOPC   C3921146   2.979   1.214  13.804  0.8773  0.0593  1.1401
  173DOPC   H9X21147   2.936   1.267  13.717 -1.2353 -0.1353  1.9966
  173DOPC  C31021148   3.093   1.160  13.785  0.1366  0.0158 -0.6454
  173DOPC  H10X21149   3.141   1.182  13.688  0.3565  2.9773  0.0346
  173DOPC  C31121150   3.171   1.079  13.881 -0.2273 -0.3140  0.1871
  173DOPC  H11X21151   3.226   0.997  13.829 -1.1392 -1.1549  0.5295
  173DOPC  H11Y21152   3.095   1.016  13.931 -0.4844  0.5509  0.9223
  173DOPC  C31221153   3.263   1.162  13.976  0.1011 -0.4842 -0.1165
  173DOPC  H12X21154   3.186   1.228  14.022  0.4026  0.4925 -0.9693
  173DOPC  H12Y21155   3.337   1.231  13.930  1.3350 -2.9498 -2.0970
  173DOPC  C31321156   3.339   1.075  14.084 -0.0081  0.0367  0.2480
  173DOPC  H13X21157   3.361   1.149  14.164 -2.3579  0.6774  0.3628
  173DOPC  H13Y21158   3.272   1.006  14.140 -1.8807  0.5279 -1.2910
  173DOPC  C31421159   3.466   1.010  14.027 -0.3481 -0.0001  0.2797
  173DOPC  H14X21160   3.440   0.942  13.943 -3.4341 -2.2179  2.7825
  173DOPC  H14Y21161   3.535   1.088  13.988  2.0760 -1.4637  1.4006
  173DOPC  C31521162   3.543   0.931  14.139 -0.1305 -0.3452 -0.0651
  173DOPC  H15X21163   3.548   1.004  14.223 -0.6781 -2.4393  1.8903
  173DOPC  H15Y21164   3.642   0.901  14.098 -0.5831  0.2457 -1.6856
  173DOPC  C31621165   3.471   0.805  14.198  0.7012  0.1722 -0.0193
  173DOPC  H16X21166   3.363   0.830  14.201  0.7918  0.8157 -1.4761
  173DOPC  H16Y21167   3.494   0.705  14.155  0.0667  0.7847 -1.8404
  173DOPC  C31721168   3.524   0.788  14.349 -0.0411  0.4950  0.6978
  173DOPC  H17X21169   3.632   0.769  14.330 -0.0903  0.7583  0.1639
  173DOPC  H17Y21170   3.510   0.880  14.410 -1.3318  0.3815  0.6016
  173DOPC  C31821171   3.467   0.668  14.426  0.1708 -1.4720  0.3869
  173DOPC  H18X21172   3.493   0.573  14.374  2.6954 -0.6659  0.0297
  173DOPC  H18Y21173   3.486   0.649  14.534 -0.5360 -3.2894  0.2232
  173DOPC  H18Z21174   3.356   0.664  14.419  0.0973 -0.3421  0.7329
  174DOPC     N21175   5.254   1.717  12.372  0.5048 -0.2451 -0.4529
  174DOPC   C1221176   5.373   1.809  12.387 -1.0863  1.2330  0.5294
  174DOPC  H12A21177   5.370   1.849  12.488 -3.1809  0.7333  0.6998
  174DOPC  H12B21178   5.368   1.889  12.315  0.3066  1.3990  0.5842
  174DOPC   C1321179   5.245   1.651  12.236 -0.1695 -0.8124  0.4970
  174DOPC  H13A21180   5.244   1.719  12.152  1.8424 -1.2340  0.0785
  174DOPC  H13B21181   5.325   1.583  12.212  0.7380  0.5054 -0.3239
  174DOPC  H13C21182   5.149   1.602  12.233  0.0153 -1.2434 -3.6178
  174DOPC   C1421183   5.131   1.799  12.391 -0.1784 -0.3648  0.7075
  174DOPC  H14A21184   5.130   1.847  12.487  1.5406 -1.9127  1.5630
  174DOPC  H14B21185   5.135   1.878  12.318 -1.9190 -0.6970  0.1960
  174DOPC  H14C21186   5.044   1.737  12.373  1.3438 -2.2868 -0.4997
  174DOPC   C1521187   5.263   1.605  12.474  0.1699 -0.1360  0.5472
  174DOPC  H15A21188   5.360   1.559  12.463  0.1279 -0.6218  2.0211
  174DOPC  H15B21189   5.186   1.529  12.472 -0.1855  0.1040  2.6102
  174DOPC  H15C21190   5.257   1.645  12.574 -2.9356  0.5833  0.1907
  174DOPC   C1121191   5.518   1.756  12.356 -0.0070  1.3103  0.7294
  174DOPC  H11A21192   5.513   1.692  12.266 -1.1791  0.3522  1.4337
  174DOPC  H11B21193   5.588   1.839  12.335 -1.3727  2.1214 -0.8663
  174DOPC     P21194   5.615   1.711  12.587  0.2834 -0.6384  0.0356
  174DOPC   O1321195   5.521   1.812  12.647 -0.1048 -0.5098  0.0784
  174DOPC   O1421196   5.755   1.758  12.565 -0.1033  0.1188  0.0976
  174DOPC   O1221197   5.554   1.659  12.455  0.0988  0.0083 -0.1202
  174DOPC   O1121198   5.603   1.579  12.677  0.2215 -0.2615  0.0899
  174DOPC    C121199   5.683   1.464  12.648  0.8207  0.4429  0.3665
  174DOPC    HA21200   5.771   1.487  12.583  2.1442 -0.8637  1.6019
  174DOPC    HB21201   5.622   1.393  12.588 -0.7526  1.5303  0.6443
  174DOPC    C221202   5.736   1.391  12.775 -0.3019  0.8566  0.5653
  174DOPC    HS21203   5.790   1.299  12.742  0.9164  1.6224  0.3360
  174DOPC   O2121204   5.624   1.361  12.861 -0.1237  0.5631 -0.0722
  174DOPC   C2121205   5.622   1.244  12.923  0.1285  0.8942 -0.4268
  174DOPC   O2221206   5.719   1.165  12.925  0.4872  0.4421  0.6519
  174DOPC   C2221207   5.512   1.236  13.024  0.4407  0.0935  0.0103
  174DOPC   H2R21208   5.459   1.138  13.015 -0.4525  0.3971  1.6138
  174DOPC   H2S21209   5.426   1.300  12.997 -0.1995 -1.6838 -2.5700
  174DOPC    C321210   5.845   1.473  12.843 -0.0956 -0.3392  1.1867
  174DOPC    HX21211   5.816   1.579  12.857  0.6461  0.0579 -0.1253
  174DOPC    HY21212   5.930   1.485  12.772 -1.5248 -1.2358 -0.7625
  174DOPC   O3121213   5.879   1.413  12.972 -0.0143 -0.0960 -0.3071
  174DOPC   C3121214   5.990   1.336  12.968  0.1672  0.1987 -0.3629
  174DOPC   O3221215   6.051   1.305  12.867 -0.1852 -0.2563  0.0710
  174DOPC   C3221216   6.036   1.319  13.114  0.2228  0.8654  0.0439
  174DOPC   H2X21217   6.109   1.400  13.135 -0.5175  1.2283  1.3493
  174DOPC   H2Y21218   5.946   1.316  13.180  1.2903  1.5604  1.5760
  174DOPC   C2321219   5.567   1.259  13.164  0.2421  0.7809  0.0757
  174DOPC   H3R21220   5.588   1.366  13.186  0.4544  0.7881 -0.1608
  174DOPC   H3S21221   5.662   1.206  13.181  0.3249  0.2918 -1.6694
  174DOPC   C2421222   5.469   1.207  13.276  0.9020 -0.2452  0.0639
  174DOPC   H4R21223   5.447   1.099  13.270  1.3856 -0.3787  0.5506
  174DOPC   H4S21224   5.366   1.249  13.271  0.5058 -1.0259  1.2010
  174DOPC   C2521225   5.513   1.249  13.420  0.4702  0.7759  0.1999
  174DOPC   H5R21226   5.527   1.359  13.426  1.9680  0.8110 -2.3661
  174DOPC   H5S21227   5.612   1.199  13.425 -0.6652 -1.8086 -1.1648
  174DOPC   C2621228   5.408   1.194  13.526 -1.0708  0.4083  0.1271
  174DOPC   H6R21229   5.403   1.083  13.520 -0.4969  0.3865  0.0777
  174DOPC   H6S21230   5.305   1.230  13.503 -1.4068 -0.5610  0.0557
  174DOPC   C2721231   5.459   1.235  13.666 -0.4698  0.1396  0.6875
  174DOPC   H7R21232   5.564   1.197  13.671 -1.0107 -1.3154  1.3696
  174DOPC   H7S21233   5.399   1.165  13.728 -0.4540 -1.4930 -1.0543
  174DOPC   C2821234   5.439   1.382  13.704  0.2193  0.2107 -0.6850
  174DOPC   H8R21235   5.332   1.406  13.687  0.6753  2.0467 -1.1490
  174DOPC   H8S21236   5.501   1.446  13.638  0.1452 -0.5221 -1.4818
  174DOPC   C2921237   5.486   1.408  13.843 -0.9220  0.3729  0.0441
  174DOPC   H9R21238   5.530   1.324  13.898  0.2780  1.4468  0.7744
  174DOPC  C21021239   5.449   1.519  13.906  0.2025  1.0912  0.1010
  174DOPC  H10R21240   5.488   1.535  14.007 -1.2162  3.2954  0.3699
  174DOPC  C21121241   5.369   1.637  13.849 -0.0491 -0.0275 -0.5724
  174DOPC  H11R21242   5.264   1.620  13.881 -0.4375 -0.4776 -2.0240
  174DOPC  H11S21243   5.365   1.633  13.738  2.2783  0.9476 -0.7436
  174DOPC  C21221244   5.425   1.773  13.889  0.1356  0.5245  0.5853
  174DOPC  H12R21245   5.376   1.861  13.842 -0.9749 -1.1926 -1.6564
  174DOPC  H12S21246   5.532   1.764  13.861  0.6245  0.4957  2.3273
  174DOPC  C21321247   5.426   1.813  14.037  0.0295  0.5654 -0.2848
  174DOPC  H13R21248   5.492   1.740  14.089 -2.4819 -1.5219  0.2058
  174DOPC  H13S21249   5.323   1.799  14.077 -0.4053  0.6332 -1.3623
  174DOPC  C21421250   5.481   1.953  14.069 -0.0694 -0.4332 -0.2617
  174DOPC  H14R21251   5.420   2.030  14.016  0.7338  1.4553  1.4218
  174DOPC  H14S21252   5.584   1.963  14.028  1.9586 -4.1684  3.2214
  174DOPC  C21521253   5.474   1.991  14.216 -0.0655  0.0090  1.1895
  174DOPC  H15R21254   5.529   1.921  14.282  1.6983 -0.0580 -0.2621
  174DOPC  H15S21255   5.366   1.991  14.238 -0.1907  1.0114  0.6606
  174DOPC  C21621256   5.543   2.128  14.236 -0.0723  0.1602 -0.5075
  174DOPC  H16R21257   5.518   2.206  14.161 -1.8299  0.6998  0.5953
  174DOPC  H16S21258   5.654   2.122  14.238 -0.0811  0.0619 -0.2873
  174DOPC  C21721259   5.507   2.192  14.380 -0.0371 -0.3640  0.7746
  174DOPC  H17R21260   5.533   2.110  14.451  1.3052 -0.3242  0.3623
  174DOPC  H17S21261   5.397   2.206  14.388 -0.5048  0.3204 -3.7694
  174DOPC  C21821262   5.581   2.319  14.404 -0.2559 -0.3734 -0.0924
  174DOPC  H18R21263   5.568   2.401  14.330  2.5940  1.1302  0.9283
  174DOPC  H18S21264   5.692   2.310  14.407 -0.2517 -0.0041  1.6966
  174DOPC  H18T21265   5.544   2.365  14.498  0.0137 -0.6021  0.1301
  174DOPC   C3321266   6.129   1.199  13.146  0.4255 -0.0473  0.8681
  174DOPC   H3X21267   6.201   1.186  13.063  0.8475 -0.5487  1.3098
  174DOPC   H3Y21268   6.059   1.113  13.144  1.5976 -1.0175 -0.0607
  174DOPC   C3421269   6.189   1.207  13.288  1.1274 -0.1288 -0.6529
  174DOPC   H4X21270   6.123   1.253  13.364  1.6061  0.2266 -0.4439
  174DOPC   H4Y21271   6.279   1.271  13.278 -0.1274  1.5833 -1.5812
  174DOPC   C3521272   6.227   1.072  13.345 -0.1085  0.2312 -0.1288
  174DOPC   H5X21273   6.302   1.021  13.280  0.1471  1.1180 -0.5438
  174DOPC   H5Y21274   6.134   1.011  13.339 -0.1819  0.3341 -0.0492
  174DOPC   C3621275   6.279   1.083  13.493 -0.0858 -0.5651 -1.1302
  174DOPC   H6X21276   6.369   1.148  13.498 -0.5144 -0.0425  0.0920
  174DOPC   H6Y21277   6.200   1.141  13.546  1.7595  0.5928  0.5012
  174DOPC   C3721278   6.313   0.947  13.558 -0.1312  0.0913 -0.5939
  174DOPC   H7X21279   6.216   0.896  13.578 -0.0785  0.1679 -0.1336
  174DOPC   H7Y21280   6.368   0.887  13.483  0.8126  0.6317 -0.3495
  174DOPC   C3821281   6.414   0.961  13.674  0.7225 -0.0112 -0.7779
  174DOPC   H8X21282   6.497   1.030  13.648 -0.4390  1.7856  0.1030
  174DOPC   H8Y21283   6.457   0.861  13.695  1.6040  0.0350 -2.2199
  174DOPC   C3921284   6.350   1.021  13.789 -0.0754 -0.3563 -1.0169
  174DOPC   H9X21285   6.250   1.062  13.768 -0.0776  0.8301  0.9941
  174DOPC  C31021286   6.397   1.036  13.917 -0.0877 -0.6176 -0.3063
  174DOPC  H10X21287   6.329   1.080  13.991  0.7290  0.5829 -0.2395
  174DOPC  C31121288   6.530   0.996  13.977 -0.2500 -0.8948  0.7369
  174DOPC  H11X21289   6.535   1.055  14.071  2.0130 -0.8495  0.6351
  174DOPC  H11Y21290   6.608   1.047  13.917 -1.9790  1.2623  0.2029
  174DOPC  C31221291   6.548   0.848  14.001 -0.6059 -0.2054 -0.8485
  174DOPC  H12X21292   6.645   0.836  14.053 -0.9665 -1.8092 -0.4772
  174DOPC  H12Y21293   6.543   0.798  13.902 -0.6498 -3.0792  0.5032
  174DOPC  C31321294   6.450   0.786  14.106  0.7169 -0.7055 -0.5865
  174DOPC  H13X21295   6.475   0.841  14.198  0.5981 -0.8779 -0.4500
  174DOPC  H13Y21296   6.343   0.810  14.087  1.2997  2.1379 -0.7059
  174DOPC  C31421297   6.471   0.638  14.127  0.2001  0.6439  0.2951
  174DOPC  H14X21298   6.459   0.583  14.031  1.1600 -1.0763  1.1115
  174DOPC  H14Y21299   6.575   0.626  14.163  0.3908  1.5130  0.0572
  174DOPC  C31521300   6.377   0.573  14.231 -0.4774 -0.4387  0.2615
  174DOPC  H15X21301   6.365   0.465  14.208 -0.2868 -0.2559 -0.7592
  174DOPC  H15Y21302   6.281   0.627  14.222  1.3765  3.0911  0.2077
  174DOPC  C31621303   6.426   0.580  14.384 -0.8114 -0.5533 -0.0977
  174DOPC  H16X21304   6.484   0.673  14.398 -0.1152 -0.5575 -2.4537
  174DOPC  H16Y21305   6.345   0.587  14.460  0.7562  0.9477  1.5093
  174DOPC  C31721306   6.526   0.466  14.422 -0.8247  0.0055  0.0453
  174DOPC  H17X21307   6.482   0.364  14.414  0.9228 -0.6844 -1.6127
  174DOPC  H17Y21308   6.607   0.460  14.347 -1.6787 -1.2316 -0.8281
  174DOPC  C31821309   6.588   0.475  14.559 -0.1869 -0.4379 -0.8090
  174DOPC  H18X21310   6.510   0.493  14.635  0.2783  0.2087 -0.4791
  174DOPC  H18Y21311   6.646   0.387  14.595 -0.2477  0.1255  0.7155
  174DOPC  H18Z21312   6.647   0.569  14.560  0.1010 -0.6109 -0.9985
  175DOPC     N21313   3.418   4.962  12.383 -1.1417  0.4439 -0.2821
  175DOPC   C1221314   3.406   4.895  12.516 -0.1905 -0.0281 -0.7528
  175DOPC  H12A21315   3.421   4.789  12.502  2.1414  0.2784 -0.8763
  175DOPC  H12B21316   3.307   4.917  12.553  0.2113  1.5882 -0.5474
  175DOPC   C1321317   3.324   4.905  12.285  0.1317  0.1209  0.6191
  175DOPC  H13A21318   3.353   4.809  12.246 -0.3536  0.0004  0.5441
  175DOPC  H13B21319   3.227   4.893  12.332 -0.4837  1.4901 -0.2351
  175DOPC  H13C21320   3.340   4.961  12.194  0.6975 -1.0720 -0.0377
  175DOPC   C1421321   3.560   4.940  12.320  0.0627 -0.2092 -0.0733
  175DOPC  H14A21322   3.573   4.973  12.218 -1.0504 -1.5659 -0.6976
  175DOPC  H14B21323   3.633   4.994  12.378 -1.3821  0.8885  0.7749
  175DOPC  H14C21324   3.587   4.836  12.313  0.0475 -0.2801  0.7582
  175DOPC   C1521325   3.396   5.113  12.384 -0.4077  0.5455 -0.1704
  175DOPC  H15A21326   3.294   5.150  12.388 -0.5296  0.1043  0.9668
  175DOPC  H15B21327   3.427   5.161  12.292 -2.2160  2.0987 -0.0285
  175DOPC  H15C21328   3.452   5.156  12.465 -2.5704  0.1974  1.5906
  175DOPC   C1121329   3.493   4.927  12.634  0.4741 -0.2861  0.7575
  175DOPC  H11A21330   3.468   4.861  12.720 -0.8294  0.4535  0.9783
  175DOPC  H11B21331   3.602   4.916  12.614  0.4971  0.0604  0.6708
  175DOPC     P21332   3.354   5.116  12.756 -0.1485  0.1039  0.4192
  175DOPC   O1321333   3.279   4.994  12.799  0.3370  0.3280  0.2320
  175DOPC   O1421334   3.276   5.219  12.680 -0.3680  0.3224 -0.0863
  175DOPC   O1221335   3.478   5.065  12.665 -0.3620  0.0030 -0.1977
  175DOPC   O1121336   3.418   5.182  12.888  0.6690  0.1493 -0.4865
  175DOPC    C121337   3.525   5.126  12.962  0.2971  0.1979  0.0541
  175DOPC    HA21338   3.588   5.209  13.001 -0.0441 -1.1140  3.7104
  175DOPC    HB21339   3.597   5.067  12.902 -1.4526 -0.8688 -1.1079
  175DOPC    C221340   3.480   5.053  13.095  0.1157  0.0325  0.7015
  175DOPC    HS21341   3.433   4.955  13.074  0.3988 -0.1439  0.8875
  175DOPC   O2121342   3.384   5.139  13.156  0.3025 -0.0058  0.1233
  175DOPC   C2121343   3.293   5.093  13.232 -0.3459 -0.3002 -0.5460
  175DOPC   O2221344   3.284   4.976  13.271  0.2008 -0.2551 -0.1846
  175DOPC   C2221345   3.202   5.204  13.274  0.1076  1.0922 -0.1524
  175DOPC   H2R21346   3.148   5.236  13.182  0.4100  1.0008 -0.3643
  175DOPC   H2S21347   3.269   5.286  13.308  1.5967 -1.3927  3.4095
  175DOPC    C321348   3.605   5.026  13.189  0.3188 -0.0168 -0.3247
  175DOPC    HX21349   3.661   5.121  13.202 -0.2096  0.0029  2.4457
  175DOPC    HY21350   3.681   4.958  13.144 -0.6205  0.0046 -2.0532
  175DOPC   O3121351   3.567   4.982  13.325 -0.5923  0.3413  0.5496
  175DOPC   C3121352   3.553   4.856  13.350  0.0787  0.1866  0.2440
  175DOPC   O3221353   3.590   4.768  13.276 -0.3731 -0.7993  0.6677
  175DOPC   C3221354   3.496   4.843  13.491  0.5112  0.1433 -1.1776
  175DOPC   H2X21355   3.545   4.922  13.551 -0.7670  0.4541 -0.4868
  175DOPC   H2Y21356   3.387   4.862  13.482  0.2802 -0.9286 -0.8215
  175DOPC   C2321357   3.100   5.160  13.391 -0.1775  0.2010  0.8324
  175DOPC   H3R21358   3.036   5.073  13.366 -1.9202  2.3744 -3.0761
  175DOPC   H3S21359   3.029   5.245  13.393 -0.7634 -0.2795  0.8811
  175DOPC   C2421360   3.170   5.154  13.523 -0.2208  0.1936  0.2721
  175DOPC   H4R21361   3.229   5.247  13.542 -0.4332  0.9552 -2.4558
  175DOPC   H4S21362   3.235   5.064  13.519 -1.7911 -0.9307 -1.9562
  175DOPC   C2521363   3.066   5.155  13.638  0.9784  0.1813  0.1181
  175DOPC   H5R21364   2.996   5.073  13.612  0.8919  0.4499 -0.5216
  175DOPC   H5S21365   3.009   5.250  13.629  2.2785  0.7564 -4.8335
  175DOPC   C2621366   3.123   5.126  13.783  0.4051  0.0271 -0.2676
  175DOPC   H6R21367   3.213   5.190  13.796 -0.1709  1.6421 -3.3198
  175DOPC   H6S21368   3.148   5.018  13.797 -1.6701 -0.8684 -2.7921
  175DOPC   C2721369   3.013   5.146  13.885  0.5258 -0.1360  0.8827
  175DOPC   H7R21370   2.943   5.062  13.864 -0.3491  0.8642 -0.4490
  175DOPC   H7S21371   2.953   5.239  13.871  1.4117  0.1769 -1.2293
  175DOPC   C2821372   3.055   5.125  14.038  0.0744  0.2486  0.7533
  175DOPC   H8R21373   3.113   5.031  14.039  0.1174  0.2420 -0.5205
  175DOPC   H8S21374   2.956   5.120  14.088 -0.7871  2.5523 -0.5417
  175DOPC   C2921375   3.145   5.236  14.093 -0.6103 -0.5238  0.2080
  175DOPC   H9R21376   3.207   5.289  14.019  1.0266 -1.5329  0.8038
  175DOPC  C21021377   3.134   5.298  14.210  0.5064 -0.1580  0.0428
  175DOPC  H10R21378   3.213   5.370  14.234  1.2484 -0.6317 -0.9426
  175DOPC  C21121379   3.016   5.262  14.303 -0.1207 -0.2264 -0.3820
  175DOPC  H11R21380   3.006   5.152  14.312 -0.1212 -0.1708  0.3127
  175DOPC  H11S21381   2.921   5.296  14.256 -1.1496 -3.6191 -1.0342
  175DOPC  C21221382   3.037   5.310  14.450 -0.5110 -0.0759 -0.0536
  175DOPC  H12R21383   3.118   5.246  14.492 -0.4296  1.1903  1.8843
  175DOPC  H12S21384   2.948   5.286  14.513  0.3283 -2.8024  0.2382
  175DOPC  C21321385   3.077   5.454  14.470  0.2618 -0.0837 -0.6272
  175DOPC  H13R21386   3.005   5.511  14.408 -1.8746  0.0687  1.8135
  175DOPC  H13S21387   3.181   5.472  14.437  1.2909 -3.7570  0.1821
  175DOPC  C21421388   3.080   5.511  14.617  0.5876  0.3634 -0.5681
  175DOPC  H14R21389   2.984   5.485  14.666 -0.7759  1.0793 -2.6966
  175DOPC  H14S21390   3.077   5.622  14.614 -2.7346  0.3678 -0.2922
  175DOPC  C21521391   3.210   5.470  14.700 -0.2558 -0.6541 -0.0707
  175DOPC  H15R21392   3.289   5.440  14.627 -0.2052  0.3884 -0.4576
  175DOPC  H15S21393   3.186   5.373  14.748  0.2178 -0.7360  0.0085
  175DOPC  C21621394   3.258   5.571  14.806 -0.2822 -0.5261  1.3154
  175DOPC  H16R21395   3.163   5.595  14.858 -0.5897 -0.4441  0.7257
  175DOPC  H16S21396   3.299   5.660  14.755  0.4215 -0.2235  2.3866
  175DOPC  C21721397   3.355   5.508  14.908 -0.4476 -1.2413 -0.1258
  175DOPC  H17R21398   3.300   5.461  14.993  0.8945  0.9394  2.0613
  175DOPC  H17S21399   3.404   5.594  14.957  0.5727 -2.0660  0.3428
  175DOPC  C21821400   3.468   5.418  14.858  0.2692  0.0263  1.2998
  175DOPC  H18R21401   3.519   5.460  14.768 -0.1162 -0.0710  1.0341
  175DOPC  H18S21402   3.421   5.322  14.826 -1.3977  1.3686 -0.5419
  175DOPC  H18T21403   3.545   5.401  14.936  0.6535 -2.8194  0.4157
  175DOPC   C3321404   3.533   4.703  13.564  0.6230  0.9404  0.7644
  175DOPC   H3X21405   3.633   4.715  13.612 -0.2286  0.4449  2.7886
  175DOPC   H3Y21406   3.534   4.618  13.493  0.7948  2.2027 -0.8072
  175DOPC   C3421407   3.431   4.679  13.674  0.2188 -0.2819 -0.1294
  175DOPC   H4X21408   3.437   4.574  13.710 -1.0759 -0.4173 -0.2765
  175DOPC   H4Y21409   3.336   4.703  13.623  0.3059 -0.6715 -0.4857
  175DOPC   C3521410   3.455   4.774  13.790 -0.2072  0.7253 -0.4139
  175DOPC   H5X21411   3.471   4.878  13.756  0.5631  0.3491 -1.2698
  175DOPC   H5Y21412   3.548   4.732  13.834  0.2284  1.4885 -0.5864
  175DOPC   C3621413   3.339   4.767  13.893  0.3610  0.2266  0.3561
  175DOPC   H6X21414   3.248   4.802  13.841 -0.8398 -2.5212  0.4333
  175DOPC   H6Y21415   3.308   4.662  13.912  0.8411 -0.1809 -1.0052
  175DOPC   C3721416   3.366   4.849  14.024  0.0310 -0.6248 -0.3652
  175DOPC   H7X21417   3.468   4.827  14.062 -0.2507 -1.8164 -0.2519
  175DOPC   H7Y21418   3.356   4.958  14.004 -1.5416 -0.7502 -0.4491
  175DOPC   C3821419   3.266   4.806  14.135 -0.5213 -0.3645 -1.0906
  175DOPC   H8X21420   3.263   4.695  14.144  0.8659 -0.3173  0.6133
  175DOPC   H8Y21421   3.165   4.836  14.099 -0.3446  3.0197  0.8477
  175DOPC   C3921422   3.296   4.867  14.271  0.3281 -0.0410  0.1218
  175DOPC   H9X21423   3.391   4.921  14.288  0.6787 -0.4415 -0.5444
  175DOPC  C31021424   3.225   4.830  14.376  0.5938 -0.4597 -0.2676
  175DOPC  H10X21425   3.263   4.857  14.476  3.4024 -1.1145 -1.0861
  175DOPC  C31121426   3.107   4.744  14.391 -0.5162 -0.0285  0.3073
  175DOPC  H11X21427   3.094   4.713  14.497  2.5346  1.2141  1.1504
  175DOPC  H11Y21428   3.127   4.656  14.327 -1.5067 -0.2042  0.2149
  175DOPC  C31221429   2.974   4.803  14.351  0.1913  0.3129  0.2281
  175DOPC  H12X21430   2.983   4.825  14.243  0.8131 -1.3297 -0.0824
  175DOPC  H12Y21431   2.969   4.900  14.405 -0.7731  0.5588 -0.3032
  175DOPC  C31321432   2.859   4.709  14.386  0.2773  0.5707 -0.0706
  175DOPC  H13X21433   2.771   4.755  14.338  1.6673  3.4374 -0.0473
  175DOPC  H13Y21434   2.886   4.610  14.343 -3.1716 -1.0272  1.0649
  175DOPC  C31421435   2.831   4.698  14.536 -0.4633 -0.1715 -0.1314
  175DOPC  H14X21436   2.928   4.684  14.588 -1.4842 -1.0069  1.6077
  175DOPC  H14Y21437   2.797   4.800  14.566  1.5631 -0.3190  3.0941
  175DOPC  C31521438   2.732   4.586  14.579 -0.2536 -0.6872 -0.5250
  175DOPC  H15X21439   2.757   4.491  14.527  0.7892 -0.1447 -1.0541
  175DOPC  H15Y21440   2.631   4.621  14.549 -0.7658 -0.5678  1.2243
  175DOPC  C31621441   2.723   4.562  14.733 -0.0067 -0.1443 -0.3607
  175DOPC  H16X21442   2.688   4.458  14.749 -0.7586 -0.0991 -1.5911
  175DOPC  H16Y21443   2.827   4.566  14.773  0.4133 -2.4394 -1.0825
  175DOPC  C31721444   2.636   4.668  14.805 -1.3232  0.2293  0.0596
  175DOPC  H17X21445   2.698   4.759  14.818 -0.9850  0.1834 -1.1246
  175DOPC  H17Y21446   2.540   4.685  14.753 -1.8079 -0.5640  0.6715
  175DOPC  C31821447   2.602   4.628  14.951  0.5997  0.1501 -0.6015
  175DOPC  H18X21448   2.686   4.580  15.006 -2.5400 -1.4111  3.3214
  175DOPC  H18Y21449   2.568   4.710  15.018 -0.0890  0.4764 -1.3334
  175DOPC  H18Z21450   2.509   4.568  14.955 -0.7206  2.1360 -0.1505
  176DOPC     N21451   3.950   1.079  12.150 -0.5141  0.0657  0.0208
  176DOPC   C1221452   4.028   1.108  12.280 -0.4411  0.0299 -0.1854
  176DOPC  H12A21453   3.960   1.108  12.364 -0.5811 -2.0058 -0.2530
  176DOPC  H12B21454   4.068   1.208  12.275 -0.0660 -0.1925 -2.2735
  176DOPC   C1321455   3.899   0.940  12.143  0.5805 -0.1389  0.4800
  176DOPC  H13A21456   3.969   0.858  12.140 -2.0638 -2.5668  0.6456
  176DOPC  H13B21457   3.839   0.925  12.231 -0.3324  0.3332 -0.0503
  176DOPC  H13C21458   3.843   0.925  12.051  0.0648  1.5845  0.4925
  176DOPC   C1421459   4.032   1.093  12.028 -0.3494 -0.2736  0.4841
  176DOPC  H14A21460   3.973   1.094  11.938 -0.5483  1.0628  0.6144
  176DOPC  H14B21461   4.083   1.186  12.007  0.2829 -1.3571 -3.6123
  176DOPC  H14C21462   4.102   1.014  12.004 -1.8829 -1.3557 -0.6649
  176DOPC   C1521463   3.830   1.173  12.142 -0.7150 -0.2371 -0.0053
  176DOPC  H15A21464   3.775   1.161  12.050 -1.7771  1.3341  0.3861
  176DOPC  H15B21465   3.858   1.276  12.157 -0.8372 -0.4440  1.8897
  176DOPC  H15C21466   3.762   1.162  12.226 -1.1844  0.7650 -0.2353
  176DOPC   C1121467   4.149   1.017  12.327 -0.0489 -0.5697  0.1139
  176DOPC  H11A21468   4.225   1.024  12.247 -1.4128 -1.9467 -1.3738
  176DOPC  H11B21469   4.190   1.057  12.422  0.6755 -0.2543 -0.3280
  176DOPC     P21470   4.090   0.793  12.471  0.0177 -0.1884 -0.4054
  176DOPC   O1321471   4.191   0.832  12.569 -0.0897  0.4107 -0.5753
  176DOPC   O1421472   4.080   0.644  12.433 -0.6590 -0.8070  0.6163
  176DOPC   O1221473   4.112   0.880  12.347 -0.1484  0.2798  0.4240
  176DOPC   O1121474   3.949   0.849  12.538 -0.6635  0.3663  0.2635
  176DOPC    C121475   3.923   0.778  12.664 -0.4962  0.2112 -0.7650
  176DOPC    HA21476   3.984   0.818  12.748 -0.0106  0.6320 -1.2987
  176DOPC    HB21477   3.937   0.668  12.658  1.0677  0.3469 -0.0027
  176DOPC    C221478   3.775   0.793  12.706  0.6771 -0.5372  0.6454
  176DOPC    HS21479   3.717   0.763  12.616 -1.6288  0.7801  1.6166
  176DOPC   O2121480   3.753   0.932  12.725  1.1885 -0.0564 -0.5255
  176DOPC   C2121481   3.629   0.974  12.732  0.3836  0.6486 -0.4966
  176DOPC   O2221482   3.529   0.913  12.697 -0.3928 -0.0221  0.4433
  176DOPC   C2221483   3.633   1.107  12.814  0.6444 -0.0834 -0.2602
  176DOPC   H2R21484   3.542   1.165  12.788  0.6182 -0.3049 -0.6693
  176DOPC   H2S21485   3.720   1.158  12.768  1.4394 -2.3375 -1.3699
  176DOPC    C321486   3.722   0.683  12.807  0.0462 -0.5335  0.5833
  176DOPC    HX21487   3.690   0.586  12.764 -0.8139 -0.6041  1.3626
  176DOPC    HY21488   3.620   0.709  12.842 -0.9029 -0.4689 -2.0423
  176DOPC   O3121489   3.802   0.681  12.931  0.1189  0.2785  0.2631
  176DOPC   C3121490   3.834   0.564  12.978 -0.0102  0.6417 -0.2334
  176DOPC   O3221491   3.799   0.457  12.935  0.2177  0.2937  0.2160
  176DOPC   C3221492   3.913   0.583  13.101 -0.0596  0.4768 -0.3786
  176DOPC   H2X21493   4.004   0.637  13.069 -0.5722  1.4740 -0.1946
  176DOPC   H2Y21494   3.863   0.637  13.184  1.3242  0.8867  0.1981
  176DOPC   C2321495   3.634   1.108  12.971 -0.0896  0.0116 -0.0185
  176DOPC   H3R21496   3.553   1.046  13.016 -0.3369  0.1757 -0.2394
  176DOPC   H3S21497   3.624   1.212  13.007  1.6415 -0.0489  0.7381
  176DOPC   C2421498   3.766   1.047  13.026  0.1882 -0.0100  0.2832
  176DOPC   H4R21499   3.843   1.108  12.975 -2.2202  1.8509 -1.4063
  176DOPC   H4S21500   3.787   0.939  13.022  2.3204  0.2562  2.3081
  176DOPC   C2521501   3.772   1.084  13.176 -0.2681  0.7040  0.4796
  176DOPC   H5R21502   3.694   1.028  13.232 -0.3019  1.4005  1.1417
  176DOPC   H5S21503   3.742   1.190  13.186  0.6864  1.1619 -1.2421
  176DOPC   C2621504   3.913   1.071  13.232 -0.2508 -0.6776  0.1409
  176DOPC   H6R21505   3.903   1.120  13.331 -3.0871 -0.6671 -0.0580
  176DOPC   H6S21506   3.981   1.124  13.162 -2.2605  0.2304 -1.2249
  176DOPC   C2721507   3.961   0.930  13.252 -0.9834  0.8467 -0.4434
  176DOPC   H7R21508   3.955   0.874  13.156  0.9068 -0.6626  0.2475
  176DOPC   H7S21509   3.896   0.876  13.324 -1.9796  1.8198 -0.5898
  176DOPC   C2821510   4.105   0.931  13.307  0.2528 -0.2679  0.2011
  176DOPC   H8R21511   4.154   1.008  13.244 -2.7739  2.5589  1.0164
  176DOPC   H8S21512   4.151   0.833  13.283  0.7543  0.1278 -0.5166
  176DOPC   C2921513   4.116   0.964  13.455 -1.0711 -0.4457  0.2301
  176DOPC   H9R21514   4.036   1.027  13.495 -1.1404 -0.9183  0.8459
  176DOPC  C21021515   4.218   0.926  13.539 -0.7136  0.0863 -0.9226
  176DOPC  H10R21516   4.203   0.967  13.640 -1.2956  0.1324 -1.0251
  176DOPC  C21121517   4.342   0.842  13.515 -0.2664  0.3791 -0.0603
  176DOPC  H11R21518   4.428   0.898  13.558 -2.2375  3.2639  0.3821
  176DOPC  H11S21519   4.370   0.841  13.407  1.4596  0.9850  0.3414
  176DOPC  C21221520   4.329   0.702  13.565  0.2539 -0.6528  0.2786
  176DOPC  H12R21521   4.417   0.637  13.543  1.8564  1.5846 -0.3748
  176DOPC  H12S21522   4.232   0.665  13.525 -0.4371  1.3340 -0.0033
  176DOPC  C21321523   4.324   0.706  13.719 -0.1979 -0.2249 -0.1333
  176DOPC  H13R21524   4.222   0.740  13.748 -0.4913 -1.4674  0.3310
  176DOPC  H13S21525   4.400   0.777  13.759 -1.8724  1.8545 -0.4578
  176DOPC  C21421526   4.345   0.565  13.793  0.3324 -0.1950  0.0269
  176DOPC  H14R21527   4.433   0.510  13.754  1.2813  0.4822  1.1705
  176DOPC  H14S21528   4.254   0.505  13.770 -2.2692  2.6444  2.0482
  176DOPC  C21521529   4.373   0.570  13.945 -0.2440 -0.1586  0.5633
  176DOPC  H15R21530   4.457   0.638  13.968 -1.0185  0.5535  1.4040
  176DOPC  H15S21531   4.423   0.477  13.977  0.7154 -0.2324 -1.0295
  176DOPC  C21621532   4.247   0.611  14.024  0.2768 -0.3963  0.2294
  176DOPC  H16R21533   4.160   0.551  13.990 -0.9659  1.3145  0.2770
  176DOPC  H16S21534   4.227   0.715  13.990  2.6766  0.1498  0.2945
  176DOPC  C21721535   4.260   0.611  14.177 -0.5014  0.6575  0.3081
  176DOPC  H17R21536   4.368   0.616  14.202  0.2385  0.4889 -2.4673
  176DOPC  H17S21537   4.216   0.514  14.208  1.2950 -0.1981  0.3394
  176DOPC  C21821538   4.196   0.723  14.261 -0.3454 -0.3338  1.4003
  176DOPC  H18R21539   4.222   0.820  14.215  1.5164 -0.2564  2.5114
  176DOPC  H18S21540   4.223   0.733  14.368 -0.1812  0.5029  1.2892
  176DOPC  H18T21541   4.086   0.708  14.264 -0.4332  0.0921  0.4981
  176DOPC   C3321542   3.967   0.443  13.152  0.0683 -0.1826 -0.0485
  176DOPC   H3X21543   4.033   0.394  13.077  1.1114 -1.3774  1.6037
  176DOPC   H3Y21544   3.884   0.378  13.185 -1.1102  1.3708  0.1707
  176DOPC   C3421545   4.071   0.471  13.265  0.2394  0.1274  0.3918
  176DOPC   H4X21546   4.018   0.520  13.349 -3.1948 -2.6504  0.0461
  176DOPC   H4Y21547   4.149   0.534  13.216 -0.1962 -0.7102 -1.4687
  176DOPC   C3521548   4.129   0.340  13.325 -0.0991  0.0662 -0.5404
  176DOPC   H5X21549   4.148   0.278  13.235 -0.5092  0.5452 -0.9592
  176DOPC   H5Y21550   4.062   0.295  13.401  0.2586  0.4102 -0.0090
  176DOPC   C3621551   4.269   0.359  13.396 -0.2548  0.4641  0.1948
  176DOPC   H6X21552   4.324   0.430  13.330  2.3918 -1.3417  0.2967
  176DOPC   H6Y21553   4.246   0.411  13.491 -0.0062 -0.8916  1.0202
  176DOPC   C3721554   4.354   0.231  13.415  0.8960 -0.4159 -0.5441
  176DOPC   H7X21555   4.301   0.173  13.494  0.8915 -1.4155 -1.2543
  176DOPC   H7Y21556   4.356   0.162  13.328 -0.6452 -0.0205 -0.9285
  176DOPC   C3821557   4.504   0.264  13.464  0.1942 -0.0391 -0.0568
  176DOPC   H8X21558   4.506   0.318  13.561  0.9785 -0.9889  0.4678
  176DOPC   H8Y21559   4.542   0.339  13.392 -1.7271  0.2205 -0.8801
  176DOPC   C3921560   4.592   0.142  13.469  0.2779  0.5308  0.2990
  176DOPC   H9X21561   4.604   0.096  13.370 -2.6368  1.3731 -0.5343
  176DOPC  C31021562   4.667   0.104  13.576  0.1790  0.6104 -0.2572
  176DOPC  H10X21563   4.736   0.019  13.563  2.0479  2.1255 -0.6379
  176DOPC  C31121564   4.684   0.164  13.710  0.1284  0.2013  0.0631
  176DOPC  H11X21565   4.671   0.274  13.698 -0.0918  0.4231  1.9868
  176DOPC  H11Y21566   4.791   0.153  13.738 -0.4031  0.1081  2.2252
  176DOPC  C31221567   4.592   0.110  13.824  0.5834 -0.0854  0.1342
  176DOPC  H12X21568   4.609   0.001  13.834 -1.3169 -0.3622  0.7789
  176DOPC  H12Y21569   4.485   0.116  13.795  0.8987  0.0634 -1.0482
  176DOPC  C31321570   4.620   0.184  13.955  0.3110 -0.2978 -0.3788
  176DOPC  H13X21571   4.727   0.197  13.981 -0.1256 -0.1158  1.4646
  176DOPC  H13Y21572   4.575   0.286  13.952 -0.1312 -0.4920 -0.5868
  176DOPC  C31421573   4.553   0.123  14.088 -0.1820 -0.1933  0.4840
  176DOPC  H14X21574   4.567   0.204  14.163  0.5954 -0.5961  0.7829
  176DOPC  H14Y21575   4.446   0.098  14.075 -0.4400 -0.0250  2.1385
  176DOPC  C31521576   4.619  -0.001  14.140  0.5557 -0.5159 -0.1483
  176DOPC  H15X21577   4.723   0.022  14.171  0.0615  0.0979  1.1255
  176DOPC  H15Y21578   4.619  -0.086  14.069  1.1843  1.3090 -2.4804
  176DOPC  C31621579   4.545  -0.061  14.262 -0.1346 -0.1122  0.7208
  176DOPC  H16X21580   4.517   0.019  14.334 -1.4490  0.9653 -0.9058
  176DOPC  H16Y21581   4.455  -0.103  14.212  0.7301 -0.2350 -0.7693
  176DOPC  C31721582   4.625  -0.173  14.326 -0.6031 -0.5463  0.1489
  176DOPC  H17X21583   4.643  -0.244  14.242  2.2347  1.0706 -0.7411
  176DOPC  H17Y21584   4.716  -0.117  14.355 -2.0133  1.6729  0.5824
  176DOPC  C31821585   4.583  -0.221  14.467  0.1604  0.1986 -0.2474
  176DOPC  H18X21586   4.479  -0.260  14.467  0.0252  0.5225 -1.0847
  176DOPC  H18Y21587   4.664  -0.289  14.498  0.4410  0.6698  0.0694
  176DOPC  H18Z21588   4.578  -0.131  14.533 -2.9329  0.3990 -0.5892
  177DOPC     N21589   5.017   3.809  12.852  0.2837 -0.4105  0.1539
  177DOPC   C1221590   5.029   3.960  12.863 -0.3592  0.0218  1.0253
  177DOPC  H12A21591   4.930   4.004  12.860 -0.0886  0.9589  3.4061
  177DOPC  H12B21592   5.076   3.998  12.774 -0.8363  1.8735  1.5156
  177DOPC   C1321593   5.144   3.740  12.871  0.6419 -0.1438  0.1830
  177DOPC  H13A21594   5.218   3.767  12.796 -0.3178  1.5537 -0.1978
  177DOPC  H13B21595   5.178   3.758  12.972  0.1459 -1.9908  0.7193
  177DOPC  H13C21596   5.119   3.636  12.851 -0.3525  0.1461 -0.1295
  177DOPC   C1421597   4.981   3.773  12.709 -0.1492 -0.3483 -0.4830
  177DOPC  H14A21598   4.895   3.828  12.674  0.5513  1.2050  0.1556
  177DOPC  H14B21599   5.061   3.807  12.645  1.3722 -2.6273  0.0800
  177DOPC  H14C21600   4.967   3.666  12.705 -0.4081 -0.3633  0.4869
  177DOPC   C1521601   4.911   3.752  12.947 -0.1915  0.3321 -0.0820
  177DOPC  H15A21602   4.895   3.647  12.929 -2.1510  0.1924  1.9764
  177DOPC  H15B21603   4.816   3.802  12.943 -0.3262 -0.0243 -2.4752
  177DOPC  H15C21604   4.944   3.759  13.050  0.1761 -0.3999 -0.1447
  177DOPC   C1121605   5.092   4.023  12.984  0.0945 -0.2885  0.5794
  177DOPC  H11A21606   5.090   4.134  12.977 -0.1729 -0.3545 -0.5950
  177DOPC  H11B21607   5.029   3.996  13.072 -1.4007  1.7780  0.2312
  177DOPC     P21608   5.312   3.999  13.134  0.3113 -0.3472 -0.4131
  177DOPC   O1321609   5.434   4.079  13.101  0.6170 -0.2017 -0.7844
  177DOPC   O1421610   5.318   3.862  13.193 -0.0234  0.0414  0.1829
  177DOPC   O1221611   5.227   3.988  12.999 -0.2957  0.0292  0.3172
  177DOPC   O1121612   5.216   4.088  13.217  0.5007  0.2435 -0.6153
  177DOPC    C121613   5.162   4.036  13.342  0.2044 -0.9046  0.1868
  177DOPC    HA21614   5.243   4.068  13.412  1.2735 -2.5125 -0.2666
  177DOPC    HB21615   5.131   3.930  13.346 -0.7934 -0.6952 -1.1457
  177DOPC    C221616   5.030   4.108  13.372 -0.3662  0.2190  0.3337
  177DOPC    HS21617   4.955   4.090  13.291 -2.9715 -0.3704  2.7231
  177DOPC   O2121618   5.051   4.250  13.398  0.4818 -0.2837  0.1097
  177DOPC   C2121619   4.960   4.334  13.363 -0.4291  0.7147 -0.4725
  177DOPC   O2221620   4.856   4.295  13.307  0.2376  0.2136  0.5376
  177DOPC   C2221621   4.993   4.471  13.416 -0.0486  0.3337  0.0945
  177DOPC   H2R21622   5.076   4.510  13.354 -1.3509  0.6831 -1.4987
  177DOPC   H2S21623   5.016   4.455  13.523  0.2550  0.0168 -0.0169
  177DOPC    C321624   4.962   4.041  13.501  0.8652  0.5620 -0.0526
  177DOPC    HX21625   4.948   3.938  13.462  2.0086 -0.3058  1.6770
  177DOPC    HY21626   4.871   4.101  13.525  1.5698  1.9349 -0.6524
  177DOPC   O3121627   5.060   4.026  13.609  0.0035 -0.3155  0.0339
  177DOPC   C3121628   5.070   4.130  13.696  0.1986 -0.6996 -0.0540
  177DOPC   O3221629   5.008   4.233  13.692 -0.2024  1.0378  0.3919
  177DOPC   C3221630   5.190   4.111  13.790  0.2571  0.2794 -0.0552
  177DOPC   H2X21631   5.287   4.102  13.737  0.5717 -1.2263  0.7100
  177DOPC   H2Y21632   5.207   4.207  13.844 -1.2987  0.3955  0.2751
  177DOPC   C2321633   4.877   4.564  13.395 -0.5444  0.4307 -0.3061
  177DOPC   H3R21634   4.782   4.514  13.424  0.2574 -1.2420 -0.4453
  177DOPC   H3S21635   4.870   4.589  13.287  0.7266 -0.1402 -0.5355
  177DOPC   C2421636   4.922   4.687  13.472  0.2379 -0.0592  0.2290
  177DOPC   H4R21637   5.027   4.720  13.458  0.2864  0.6666  2.0505
  177DOPC   H4S21638   4.929   4.673  13.582  3.5868 -0.5475  0.0707
  177DOPC   C2521639   4.814   4.797  13.451 -0.5848  0.5548  1.2138
  177DOPC   H5R21640   4.805   4.797  13.340  0.6590 -2.7523  0.9921
  177DOPC   H5S21641   4.856   4.895  13.484  1.0363  0.7471 -1.1258
  177DOPC   C2621642   4.679   4.775  13.517  0.3173  0.2244 -0.2216
  177DOPC   H6R21643   4.693   4.726  13.616  0.4528  1.4269  0.3683
  177DOPC   H6S21644   4.622   4.706  13.451 -1.3097 -0.1103  1.4488
  177DOPC   C2721645   4.601   4.902  13.535  0.8067 -0.3538  0.1672
  177DOPC   H7R21646   4.493   4.879  13.520  0.4472 -0.2768  2.3238
  177DOPC   H7S21647   4.626   4.977  13.457 -0.3608 -0.6981 -0.5729
  177DOPC   C2821648   4.614   4.964  13.674 -0.1721  0.3260 -0.3923
  177DOPC   H8R21649   4.722   4.981  13.696 -0.1290 -1.2237  0.8078
  177DOPC   H8S21650   4.577   4.893  13.752  1.7577  1.3927  1.6083
  177DOPC   C2921651   4.534   5.093  13.681 -0.1819 -0.0820 -0.0596
  177DOPC   H9R21652   4.465   5.102  13.595  1.2098  2.2989 -1.0234
  177DOPC  C21021653   4.532   5.177  13.787 -0.3292 -0.3620  0.2167
  177DOPC  H10R21654   4.495   5.279  13.775  1.0076 -0.0228 -1.3066
  177DOPC  C21121655   4.634   5.148  13.895 -0.2565  0.5486  0.2425
  177DOPC  H11R21656   4.684   5.242  13.928 -1.0843  0.4395  1.9134
  177DOPC  H11S21657   4.715   5.078  13.867  0.0379  1.0235 -0.1150
  177DOPC  C21221658   4.571   5.081  14.018 -0.0101 -0.7656 -0.1323
  177DOPC  H12R21659   4.537   4.982  13.981 -1.4993  0.1101 -1.2242
  177DOPC  H12S21660   4.479   5.135  14.051  0.5285  0.4434 -0.5462
  177DOPC  C21321661   4.663   5.068  14.141  0.4798 -0.5218  0.1278
  177DOPC  H13R21662   4.762   5.022  14.123 -0.3520 -2.3978  0.0384
  177DOPC  H13S21663   4.608   4.999  14.209  0.9317  0.4199  1.4792
  177DOPC  C21421664   4.681   5.209  14.212 -0.2497 -0.2812  0.1780
  177DOPC  H14R21665   4.582   5.254  14.233  0.9737  2.2757  0.8729
  177DOPC  H14S21666   4.738   5.274  14.144 -0.6347 -1.6678 -1.5420
  177DOPC  C21521667   4.759   5.191  14.341  0.1725  0.6251 -0.0237
  177DOPC  H15R21668   4.716   5.112  14.406 -1.2790 -0.5724 -2.2962
  177DOPC  H15S21669   4.734   5.285  14.397 -3.1667 -0.6815  0.9443
  177DOPC  C21621670   4.916   5.172  14.318  0.1511 -0.2367 -0.2752
  177DOPC  H16R21671   4.934   5.251  14.242  2.3997  0.4195  0.8379
  177DOPC  H16S21672   4.926   5.064  14.293  0.4629 -0.9683  2.6248
  177DOPC  C21721673   5.002   5.197  14.443 -0.4037 -0.1125  0.5095
  177DOPC  H17R21674   4.984   5.305  14.464  0.4206 -0.0789  1.0803
  177DOPC  H17S21675   5.110   5.188  14.420 -0.5656 -1.1694  0.1072
  177DOPC  C21821676   4.972   5.117  14.566 -0.8851  0.4635  0.9801
  177DOPC  H18R21677   4.870   5.140  14.602 -1.0405  2.0622 -0.3750
  177DOPC  H18S21678   5.040   5.141  14.651 -0.1357 -0.0094  0.5212
  177DOPC  H18T21679   4.978   5.007  14.558  0.6290  0.5971 -0.0940
  177DOPC   C3321680   5.184   3.995  13.887  0.8453  0.0842  0.7314
  177DOPC   H3X21681   5.284   3.998  13.934  0.4374 -1.9493  1.8629
  177DOPC   H3Y21682   5.187   3.893  13.843  3.5576  0.2214  0.4272
  177DOPC   C3421683   5.080   4.026  13.992 -0.2622 -0.1652 -0.2934
  177DOPC   H4X21684   4.982   4.010  13.942 -1.7747  0.6996  2.2309
  177DOPC   H4Y21685   5.087   4.133  14.020 -1.0623 -0.1074 -0.2805
  177DOPC   C3521686   5.088   3.934  14.118  0.8172 -0.3252 -0.2428
  177DOPC   H5X21687   5.197   3.930  14.140  0.6789 -0.0389  0.5154
  177DOPC   H5Y21688   5.057   3.830  14.093  0.4114 -0.2178 -0.2031
  177DOPC   C3621689   5.008   3.980  14.240  0.5230  0.1270 -0.6770
  177DOPC   H6X21690   4.994   4.090  14.235  2.1247  0.3982  0.1465
  177DOPC   H6Y21691   4.907   3.934  14.240  0.2099  0.7908 -0.9622
  177DOPC   C3721692   5.077   3.945  14.370 -0.5997  0.1146 -0.2331
  177DOPC   H7X21693   5.093   3.835  14.363 -1.9281 -0.0732 -0.4900
  177DOPC   H7Y21694   5.176   3.997  14.374 -0.3268 -0.0652 -2.9298
  177DOPC   C3821695   4.999   3.966  14.498  0.6497  0.2595  0.4575
  177DOPC   H8X21696   5.059   3.933  14.586 -1.1638 -1.0463  1.2649
  177DOPC   H8Y21697   4.906   3.905  14.494  1.2542 -0.7502  1.2204
  177DOPC   C3921698   4.953   4.105  14.505  0.2427 -0.3770  0.1504
  177DOPC   H9X21699   4.962   4.172  14.418  1.6529  1.5801  1.7083
  177DOPC  C31021700   4.883   4.154  14.618 -0.3535 -0.0632  0.5492
  177DOPC  H10X21701   4.866   4.262  14.629 -3.5880 -0.6208  2.1737
  177DOPC  C31121702   4.841   4.078  14.743  0.7221 -0.9917 -0.2899
  177DOPC  H11X21703   4.893   4.121  14.831  0.6397  0.9011 -1.1210
  177DOPC  H11Y21704   4.878   3.974  14.728  0.8139 -0.8161 -1.3757
  177DOPC  C31221705   4.695   4.058  14.777 -0.1296  0.1885  0.5568
  177DOPC  H12X21706   4.638   4.009  14.695 -1.1177 -0.5603  1.6443
  177DOPC  H12Y21707   4.646   4.157  14.791 -1.0159 -0.0038 -0.9493
  177DOPC  C31321708   4.681   3.987  14.912 -0.5644  0.6490  0.8194
  177DOPC  H13X21709   4.736   3.891  14.903  1.0192  1.6267 -0.3462
  177DOPC  H13Y21710   4.734   4.050  14.986  0.1439  0.5158  0.4274
  177DOPC  C31421711   4.536   3.965  14.958  0.4158 -0.4014  0.0436
  177DOPC  H14X21712   4.480   4.058  14.933  3.3104  0.9575 -2.1486
  177DOPC  H14Y21713   4.491   3.877  14.909  1.3960 -0.1150 -1.4534
  177DOPC  C31521714   4.523   3.938  15.113  0.2872  0.6221  0.5061
  177DOPC  H15X21715   4.597   4.003  15.164  0.0834  0.0414  1.5640
  177DOPC  H15Y21716   4.548   3.834  15.141  1.6895  1.2170  1.5739
  177DOPC  C31621717   4.385   3.981  15.178 -0.4577 -0.3778  0.0345
  177DOPC  H16X21718   4.356   4.085  15.151 -3.3620 -0.6994  1.5440
  177DOPC  H16Y21719   4.316   3.915  15.121 -2.1413  0.9724  0.4483
  177DOPC  C31721720   4.367   3.943  15.322  0.9236 -0.0883 -0.0436
  177DOPC  H17X21721   4.401   3.840  15.346 -0.9808 -0.3051  2.0008
  177DOPC  H17Y21722   4.425   4.016  15.382  0.6711  1.2925 -1.4089
  177DOPC  C31821723   4.221   3.933  15.367  0.3268 -0.2831 -0.5264
  177DOPC  H18X21724   4.154   3.894  15.288  0.9168 -3.1210  0.2565
  177DOPC  H18Y21725   4.207   3.871  15.458 -0.3566  2.4761  1.3796
  177DOPC  H18Z21726   4.187   4.034  15.399  0.8310  0.0429 -1.0177
  178DOPC     N21727   2.946   4.279  12.777  0.6080 -0.2722 -0.0596
  178DOPC   C1221728   3.020   4.351  12.888 -0.2770  0.0513 -0.1086
  178DOPC  H12A21729   3.100   4.286  12.921  1.0153 -0.6635 -4.0756
  178DOPC  H12B21730   2.959   4.362  12.975 -1.7878 -2.1876 -0.7811
  178DOPC   C1321731   2.882   4.149  12.816  0.4859 -0.0681  0.1279
  178DOPC  H13A21732   2.943   4.078  12.870  0.4061 -0.1598  0.0969
  178DOPC  H13B21733   2.804   4.173  12.887  1.5546 -0.4027  1.4673
  178DOPC  H13C21734   2.848   4.104  12.724 -1.2783  1.2554  0.0855
  178DOPC   C1421735   3.038   4.255  12.656 -0.3316  0.1323 -0.4123
  178DOPC  H14A21736   2.996   4.224  12.562 -0.9579  3.2833 -1.2909
  178DOPC  H14B21737   3.097   4.344  12.638  0.3620  0.3506  2.3736
  178DOPC  H14C21738   3.115   4.188  12.693  0.4883  1.2807  0.0456
  178DOPC   C1521739   2.829   4.361  12.733  0.3971 -0.4452 -0.1736
  178DOPC  H15A21740   2.803   4.326  12.634  0.0597  1.9712 -0.9881
  178DOPC  H15B21741   2.863   4.463  12.739  3.5009 -1.0407 -3.8181
  178DOPC  H15C21742   2.738   4.358  12.792  0.6929 -0.2624  0.3051
  178DOPC   C1121743   3.094   4.481  12.855  0.0345  0.5334  0.1189
  178DOPC  H11A21744   3.153   4.514  12.943 -1.5880 -0.3043  1.5864
  178DOPC  H11B21745   3.169   4.460  12.777 -0.8906 -1.1227 -0.3772
  178DOPC     P21746   2.942   4.684  12.930 -0.0449  0.1683 -0.2436
  178DOPC   O1321747   2.796   4.652  12.928 -0.1517  0.0427 -0.6891
  178DOPC   O1421748   2.969   4.826  12.900 -0.2766 -0.0967  0.3969
  178DOPC   O1221749   3.002   4.589  12.821  0.1598 -0.4221  0.2181
  178DOPC   O1121750   3.002   4.636  13.073  0.4904  0.2930 -0.3984
  178DOPC    C121751   3.119   4.701  13.129  0.0692 -0.3168 -0.3931
  178DOPC    HA21752   3.122   4.802  13.084 -1.3219 -0.1534 -0.1549
  178DOPC    HB21753   3.202   4.644  13.082 -0.0505  0.2389 -1.3098
  178DOPC    C221754   3.128   4.689  13.280  0.1479 -0.4969 -0.4302
  178DOPC    HS21755   3.223   4.736  13.315 -1.1638  1.6822  0.4260
  178DOPC   O2121756   3.130   4.558  13.331 -0.1228  0.3562 -0.3567
  178DOPC   C2121757   3.253   4.488  13.327  0.6928  0.0818  0.1830
  178DOPC   O2221758   3.342   4.519  13.252 -0.3189  0.2036  0.7288
  178DOPC   C2221759   3.262   4.376  13.419 -0.6560 -0.3880  0.0784
  178DOPC   H2R21760   3.372   4.370  13.433 -0.2571  0.5032 -2.2997
  178DOPC   H2S21761   3.229   4.283  13.369  1.4063 -0.2218 -1.7411
  178DOPC    C321762   3.012   4.773  13.334 -0.0400 -0.2949 -0.2349
  178DOPC    HX21763   2.916   4.728  13.299 -1.0923  2.5589 -1.3112
  178DOPC    HY21764   3.003   4.873  13.287 -3.1247  0.2046  1.1822
  178DOPC   O3121765   3.017   4.774  13.477 -0.5348  0.2240 -0.2619
  178DOPC   C3121766   2.927   4.707  13.553 -0.4520 -0.8072 -0.4724
  178DOPC   O3221767   2.837   4.638  13.508 -0.2901  0.1032 -0.1587
  178DOPC   C3221768   2.949   4.730  13.702 -0.0557  0.5700  0.8725
  178DOPC   H2X21769   3.052   4.705  13.737 -0.4054 -0.0364  1.4918
  178DOPC   H2Y21770   2.931   4.840  13.698 -1.4471  0.3276 -2.3904
  178DOPC   C2321771   3.192   4.404  13.559 -0.2082 -0.3461  0.1350
  178DOPC   H3R21772   3.084   4.425  13.546 -0.1082  0.5977  0.7126
  178DOPC   H3S21773   3.244   4.488  13.610 -0.3205 -0.2436  0.0807
  178DOPC   C2421774   3.217   4.286  13.664  0.1755  0.0996 -0.3086
  178DOPC   H4R21775   3.148   4.203  13.637  3.1808 -2.7767  0.0771
  178DOPC   H4S21776   3.184   4.330  13.761  0.3620 -0.2528 -0.0821
  178DOPC   C2521777   3.365   4.242  13.683 -0.5379 -0.0072  0.5653
  178DOPC   H5R21778   3.439   4.311  13.729  0.4364  0.4686 -1.5712
  178DOPC   H5S21779   3.399   4.211  13.581  0.1295 -3.9521  1.8168
  178DOPC   C2621780   3.378   4.110  13.772 -0.1604 -0.3175  0.3462
  178DOPC   H6R21781   3.478   4.069  13.749  0.0478 -0.6320  1.6972
  178DOPC   H6S21782   3.308   4.034  13.733 -0.0722 -0.2875  0.1328
  178DOPC   C2721783   3.361   4.133  13.922  0.1753  0.2104 -0.2239
  178DOPC   H7R21784   3.259   4.170  13.943 -0.5499 -0.4542 -2.3179
  178DOPC   H7S21785   3.437   4.207  13.957  0.0177  0.1949  0.1451
  178DOPC   C2821786   3.372   4.001  14.000 -0.2784 -0.1541 -0.8220
  178DOPC   H8R21787   3.327   4.015  14.101 -0.0222 -0.2866 -0.6886
  178DOPC   H8S21788   3.479   3.975  14.019 -0.4345  0.8454  1.6871
  178DOPC   C2921789   3.304   3.884  13.928  0.1411 -0.4185 -0.1902
  178DOPC   H9R21790   3.366   3.839  13.850 -0.0153 -2.2256  0.6857
  178DOPC  C21021791   3.190   3.825  13.959  0.6290  1.0250  0.0840
  178DOPC  H10R21792   3.167   3.734  13.902  0.5692  0.9289  0.2604
  178DOPC  C21121793   3.086   3.872  14.061 -0.4554 -0.2292  0.7559
  178DOPC  H11R21794   3.128   3.930  14.146 -1.3255  1.4811  0.0756
  178DOPC  H11S21795   3.017   3.796  14.104 -1.1058 -0.2983 -0.3633
  178DOPC  C21221796   2.995   3.980  13.993 -0.6359  0.1632  0.2322
  178DOPC  H12R21797   2.946   3.925  13.909  1.2006 -0.2139 -0.6572
  178DOPC  H12S21798   3.047   4.066  13.946 -1.7000  0.4652 -0.4246
  178DOPC  C21321799   2.892   4.044  14.084  0.2821 -0.2118 -0.0341
  178DOPC  H13R21800   2.938   4.086  14.176 -1.8278 -0.8524  1.4076
  178DOPC  H13S21801   2.817   3.968  14.117  0.6145 -0.4322  0.2286
  178DOPC  C21421802   2.817   4.160  14.017  0.6834 -0.4530 -0.4399
  178DOPC  H14R21803   2.730   4.118  13.960 -1.0885 -0.5551  2.1751
  178DOPC  H14S21804   2.893   4.207  13.951 -1.1841 -0.4878 -2.7927
  178DOPC  C21521805   2.759   4.260  14.123 -0.2649 -0.0369 -0.5456
  178DOPC  H15R21806   2.837   4.338  14.132  0.3926 -0.6735 -0.6778
  178DOPC  H15S21807   2.741   4.206  14.218 -2.9853  1.8956  0.1622
  178DOPC  C21621808   2.624   4.318  14.089  0.5378 -0.6525 -0.0390
  178DOPC  H16R21809   2.553   4.234  14.069 -0.7364 -0.2290  2.3702
  178DOPC  H16S21810   2.631   4.369  13.991  0.6770  1.7965  1.1736
  178DOPC  C21721811   2.571   4.405  14.202  0.2736  0.1724 -0.6500
  178DOPC  H17R21812   2.643   4.482  14.238 -0.8683  2.2413 -2.5659
  178DOPC  H17S21813   2.545   4.344  14.291 -2.5096  1.2724 -0.6119
  178DOPC  C21821814   2.444   4.478  14.175  0.3480  0.4940  0.1760
  178DOPC  H18R21815   2.379   4.399  14.131  1.2830 -0.4648  0.4814
  178DOPC  H18S21816   2.455   4.557  14.098  2.2072 -0.6320 -0.7689
  178DOPC  H18T21817   2.394   4.521  14.265  0.1140 -0.0982  0.3380
  178DOPC   C3321818   2.850   4.660  13.793 -0.5849  0.1287 -0.3248
  178DOPC   H3X21819   2.819   4.565  13.745  2.5111 -0.7354 -0.8230
  178DOPC   H3Y21820   2.759   4.723  13.805 -0.6013 -0.0299  0.4122
  178DOPC   C3421821   2.912   4.633  13.934 -0.2389 -0.1486 -0.7056
  178DOPC   H4X21822   2.826   4.611  14.001 -0.5035  0.4853 -0.8267
  178DOPC   H4Y21823   2.968   4.718  13.978 -0.1055 -0.1764 -0.8220
  178DOPC   C3521824   3.002   4.507  13.952 -0.2399 -0.1504 -0.6795
  178DOPC   H5X21825   3.098   4.522  13.899 -0.4078  1.7752 -0.5061
  178DOPC   H5Y21826   2.951   4.415  13.917 -2.2330  0.2359  0.9716
  178DOPC   C3621827   3.030   4.497  14.100 -0.4701  1.0276 -0.2578
  178DOPC   H6X21828   3.092   4.582  14.136  2.0678 -0.9474  0.3459
  178DOPC   H6Y21829   2.935   4.506  14.157  1.8310  1.6114  3.8722
  178DOPC   C3721830   3.104   4.376  14.137 -0.0905  0.7130 -0.3298
  178DOPC   H7X21831   3.062   4.280  14.099 -0.6865  1.2828 -1.1321
  178DOPC   H7Y21832   3.205   4.374  14.093  1.1524 -3.5343  2.1411
  178DOPC   C3821833   3.117   4.361  14.293  0.1800  0.1211  0.7900
  178DOPC   H8X21834   3.183   4.443  14.329  2.2413 -1.2800  0.3739
  178DOPC   H8Y21835   3.177   4.268  14.296  1.1051  0.3981 -3.5694
  178DOPC   C3921836   2.992   4.342  14.375 -0.5035  0.3039  0.9081
  178DOPC   H9X21837   2.933   4.431  14.402 -0.3459  1.3147 -1.7699
  178DOPC  C31021838   2.958   4.220  14.427  0.1884 -0.5497 -0.4059
  178DOPC  H10X21839   2.870   4.228  14.493  1.0994  3.2079  0.5550
  178DOPC  C31121840   3.043   4.090  14.435 -0.0419 -0.7584  0.5686
  178DOPC  H11X21841   3.151   4.114  14.433  0.4701 -2.6701  2.0402
  178DOPC  H11Y21842   3.046   4.028  14.343 -2.0645 -1.1052  0.6677
  178DOPC  C31221843   3.018   4.004  14.560 -0.2458 -0.6717  0.4264
  178DOPC  H12X21844   3.052   4.053  14.654 -0.2775  2.2404 -0.9579
  178DOPC  H12Y21845   3.074   3.908  14.551  0.9494 -0.0486  1.0112
  178DOPC  C31321846   2.872   3.968  14.579  0.5685 -0.4294  0.0155
  178DOPC  H13X21847   2.856   3.916  14.676  0.5243  1.2254  0.9396
  178DOPC  H13Y21848   2.813   4.063  14.586 -2.2504 -1.9850 -0.9897
  178DOPC  C31421849   2.810   3.875  14.472  0.3081  0.0501 -0.0819
  178DOPC  H14X21850   2.703   3.858  14.496  0.1299  2.3877  1.0310
  178DOPC  H14Y21851   2.808   3.926  14.374 -4.3674 -0.9942 -0.7352
  178DOPC  C31521852   2.884   3.740  14.463 -0.1079  0.4111  0.2385
  178DOPC  H15X21853   2.916   3.709  14.565  2.9441  0.2999 -0.6484
  178DOPC  H15Y21854   2.977   3.748  14.402  1.2582 -2.7113  1.6208
  178DOPC  C31621855   2.798   3.632  14.404  1.0667 -0.2460 -0.4488
  178DOPC  H16X21856   2.698   3.625  14.453  0.6665 -0.8513 -1.3280
  178DOPC  H16Y21857   2.767   3.681  14.310 -2.3931  1.6114  1.4582
  178DOPC  C31721858   2.863   3.497  14.392 -0.1424 -0.3318 -0.1815
  178DOPC  H17X21859   2.939   3.503  14.312 -2.3091  1.2063 -2.2774
  178DOPC  H17Y21860   2.902   3.472  14.493 -2.5413 -1.0195  0.6554
  178DOPC  C31821861   2.762   3.383  14.352 -0.4013 -0.9528 -0.3199
  178DOPC  H18X21862   2.830   3.296  14.357 -0.5797 -1.1953 -1.6720
  178DOPC  H18Y21863   2.682   3.364  14.428 -0.4910 -1.4070 -0.5255
  178DOPC  H18Z21864   2.720   3.392  14.250  0.0791 -1.5832 -0.5785
  179DOPC     N21865   6.927   3.773  13.467  0.5587 -0.0334  0.2624
  179DOPC   C1221866   6.785   3.730  13.433 -0.7052 -0.6132  0.1253
  179DOPC  H12A21867   6.792   3.628  13.400 -2.5897 -0.4254 -0.9895
  179DOPC  H12B21868   6.737   3.786  13.354 -1.5276 -0.6421  0.5931
  179DOPC   C1321869   6.927   3.914  13.507  0.7465  0.5887 -0.5696
  179DOPC  H13A21870   7.019   3.950  13.549  0.1858 -0.5878  1.8895
  179DOPC  H13B21871   6.889   3.973  13.425 -0.8041  1.2710  0.5911
  179DOPC  H13C21872   6.856   3.927  13.588  1.2867 -0.7169  0.1610
  179DOPC   C1421873   7.022   3.765  13.350 -0.0767  0.1574 -0.3441
  179DOPC  H14A21874   6.986   3.831  13.273  0.3347 -1.4466 -1.9697
  179DOPC  H14B21875   7.118   3.807  13.375  0.1297 -0.4811 -0.0222
  179DOPC  H14C21876   7.035   3.665  13.311 -0.7670 -0.1298  0.1493
  179DOPC   C1521877   6.981   3.677  13.566  0.2861 -0.2095 -0.3375
  179DOPC  H15A21878   6.903   3.664  13.639  0.5259  1.1178  0.1872
  179DOPC  H15B21879   7.071   3.710  13.617 -0.9050 -0.3831  2.0175
  179DOPC  H15C21880   6.998   3.583  13.516  1.6431  0.9702 -2.2103
  179DOPC   C1121881   6.693   3.732  13.552  0.4933 -0.1780 -0.0763
  179DOPC  H11A21882   6.720   3.661  13.632  2.0472  1.3586  0.8302
  179DOPC  H11B21883   6.690   3.838  13.587  0.3026 -0.2308  0.0704
  179DOPC     P21884   6.429   3.759  13.554 -0.3605  0.2167  0.1737
  179DOPC   O1321885   6.313   3.678  13.504 -0.1366 -0.2448  0.1717
  179DOPC   O1421886   6.430   3.906  13.527  0.2300 -0.3549 -0.3488
  179DOPC   O1221887   6.559   3.691  13.502 -0.4915  0.0824  0.0249
  179DOPC   O1121888   6.444   3.734  13.709  0.3540  0.4983 -0.3217
  179DOPC    C121889   6.393   3.613  13.766  0.3639  0.0086  0.5414
  179DOPC    HA21890   6.444   3.601  13.864  0.6888 -0.7606  0.2861
  179DOPC    HB21891   6.416   3.516  13.718  0.4857 -0.4044  1.4082
  179DOPC    C221892   6.240   3.621  13.800  0.2849  0.0087  0.2605
  179DOPC    HS21893   6.184   3.612  13.705 -0.8306  0.6228  0.8418
  179DOPC   O2121894   6.215   3.750  13.872  0.0065  0.3880  0.0115
  179DOPC   C2121895   6.092   3.797  13.866 -0.0688  0.4004  0.0957
  179DOPC   O2221896   5.998   3.743  13.803 -0.2203 -0.0894 -0.3679
  179DOPC   C2221897   6.085   3.928  13.921  0.6392 -0.0466 -0.3154
  179DOPC   H2R21898   6.001   3.971  13.863 -0.0616 -1.9921 -0.8290
  179DOPC   H2S21899   6.174   3.992  13.902 -0.4074  1.1723 -1.2910
  179DOPC    C321900   6.206   3.492  13.883 -0.1933  0.4191 -0.0949
  179DOPC    HX21901   6.271   3.494  13.974  1.4414 -0.2065 -1.1976
  179DOPC    HY21902   6.251   3.410  13.823 -0.3525 -0.3208  0.7710
  179DOPC   O3121903   6.068   3.478  13.912 -0.0040  0.2706  0.1010
  179DOPC   C3121904   6.030   3.350  13.931  0.6650 -0.5876 -0.5438
  179DOPC   O3221905   6.093   3.248  13.903 -0.0346 -0.0784 -0.4738
  179DOPC   C3221906   5.879   3.353  13.971 -0.2870  0.0118  0.4707
  179DOPC   H2X21907   5.837   3.453  13.947 -0.3452 -0.6247 -2.4927
  179DOPC   H2Y21908   5.826   3.275  13.913 -2.0449  0.3961  1.4821
  179DOPC   C2321909   6.050   3.915  14.070 -0.5421  0.0238 -0.5171
  179DOPC   H3R21910   5.985   3.831  14.103  1.8749 -1.2538  1.3014
  179DOPC   H3S21911   5.993   4.004  14.107 -1.7257 -0.8167 -0.2540
  179DOPC   C2421912   6.175   3.915  14.160  0.3247  0.1425 -0.7387
  179DOPC   H4R21913   6.246   3.992  14.124 -0.8467  2.1206  0.9554
  179DOPC   H4S21914   6.229   3.819  14.144  2.2856  0.3946  3.0690
  179DOPC   C2521915   6.141   3.929  14.312  0.2839 -0.2854  0.5570
  179DOPC   H5R21916   6.220   3.884  14.375  0.7140 -1.3556 -0.7021
  179DOPC   H5S21917   6.050   3.873  14.340  0.7556 -0.8509  0.9755
  179DOPC   C2621918   6.120   4.073  14.347  0.1994 -0.2183 -0.2400
  179DOPC   H6R21919   6.036   4.107  14.282 -1.1038 -0.7860  1.1015
  179DOPC   H6S21920   6.214   4.132  14.351 -0.7903  1.3586  0.6149
  179DOPC   C2721921   6.057   4.105  14.484 -0.9365  0.4247  0.3323
  179DOPC   H7R21922   6.110   4.054  14.567 -1.0278 -0.6440 -0.2429
  179DOPC   H7S21923   5.955   4.063  14.469 -0.6394 -0.3607  0.5037
  179DOPC   C2821924   6.057   4.252  14.514  0.2476  0.5383  0.5409
  179DOPC   H8R21925   6.004   4.304  14.431 -2.7706 -0.6874  1.5644
  179DOPC   H8S21926   6.161   4.289  14.501  0.2205 -0.2945 -3.4684
  179DOPC   C2921927   5.979   4.284  14.635 -0.9600 -0.2497  0.0671
  179DOPC   H9R21928   5.886   4.228  14.652 -0.1673 -1.9000 -0.7887
  179DOPC  C21021929   6.016   4.372  14.725 -0.1400  0.4431 -0.0243
  179DOPC  H10R21930   5.962   4.379  14.821  1.2337 -1.9750  1.0247
  179DOPC  C21121931   6.147   4.445  14.737  0.0911  0.4647 -0.8090
  179DOPC  H11R21932   6.166   4.521  14.659 -0.1315  1.1719 -0.1920
  179DOPC  H11S21933   6.236   4.381  14.751 -1.0077 -1.1231 -0.7647
  179DOPC  C21221934   6.142   4.538  14.858  0.5668  0.1809  0.5868
  179DOPC  H12R21935   6.055   4.607  14.865 -1.6230 -2.2422 -0.8900
  179DOPC  H12S21936   6.227   4.609  14.855  0.4312  0.4799  2.6826
  179DOPC  C21321937   6.159   4.461  14.987  0.3248 -0.6413 -0.7772
  179DOPC  H13R21938   6.083   4.381  15.005 -1.3223  1.0142 -0.0335
  179DOPC  H13S21939   6.150   4.525  15.077 -0.1110 -2.4223  0.5094
  179DOPC  C21421940   6.304   4.408  15.009 -0.2764  0.5795  0.3693
  179DOPC  H14R21941   6.374   4.487  14.976  0.4970 -0.7990 -1.4880
  179DOPC  H14S21942   6.319   4.314  14.952 -2.0894  0.7271 -0.4317
  179DOPC  C21521943   6.347   4.373  15.152  0.2531  0.3287  0.7023
  179DOPC  H15R21944   6.318   4.273  15.189  0.5864 -0.0679 -0.0915
  179DOPC  H15S21945   6.312   4.449  15.225 -1.5415 -0.6923  0.9563
  179DOPC  C21621946   6.500   4.375  15.143  0.5173  0.0324  0.2285
  179DOPC  H16R21947   6.530   4.457  15.074 -2.1113  2.0975  1.3845
  179DOPC  H16S21948   6.520   4.273  15.105  1.8869  0.3563  0.0293
  179DOPC  C21721949   6.564   4.387  15.280 -0.2458  0.4732 -0.5396
  179DOPC  H17R21950   6.672   4.364  15.266 -0.1440  0.0692  0.8009
  179DOPC  H17S21951   6.525   4.314  15.354  2.3458 -0.4708  0.0200
  179DOPC  C21821952   6.576   4.534  15.328 -0.3435 -0.3481 -0.2895
  179DOPC  H18R21953   6.472   4.573  15.339 -0.6292 -0.8702 -1.0266
  179DOPC  H18S21954   6.640   4.591  15.258 -0.9714 -0.0566 -0.6416
  179DOPC  H18T21955   6.612   4.547  15.432 -1.8152 -0.5808  0.2784
  179DOPC   C3321956   5.858   3.320  14.120  0.3241  0.1283  0.8752
  179DOPC   H3X21957   5.912   3.230  14.155 -0.3922 -0.4366  0.5680
  179DOPC   H3Y21958   5.750   3.317  14.148  0.1897  2.5618  0.8699
  179DOPC   C3421959   5.908   3.435  14.214 -0.5804 -0.6763  0.8778
  179DOPC   H4X21960   5.846   3.444  14.306 -0.5147  0.1430  0.8440
  179DOPC   H4Y21961   5.906   3.532  14.161  1.5342 -0.2673  1.4486
  179DOPC   C3521962   6.049   3.411  14.271  0.0472  0.7618  0.3913
  179DOPC   H5X21963   6.115   3.370  14.191  0.2545  0.4440  0.7195
  179DOPC   H5Y21964   6.047   3.338  14.355 -0.7760  0.3847  0.0575
  179DOPC   C3621965   6.108   3.543  14.322 -0.4071 -0.3008 -0.2872
  179DOPC   H6X21966   6.084   3.630  14.257  0.9077  0.6361  0.4500
  179DOPC   H6Y21967   6.068   3.559  14.424 -0.3907 -1.6140 -0.0524
  179DOPC   C3721968   6.260   3.523  14.338  0.3699 -0.8089 -1.0042
  179DOPC   H7X21969   6.278   3.440  14.410  2.0873  0.1322 -0.2819
  179DOPC   H7Y21970   6.315   3.497  14.245  1.5290 -1.0403 -0.2869
  179DOPC   C3821971   6.336   3.644  14.391  0.2689 -0.0061 -0.1280
  179DOPC   H8X21972   6.272   3.684  14.472  1.5801  1.9749  0.0273
  179DOPC   H8Y21973   6.329   3.712  14.303  1.5890  0.2557 -0.0606
  179DOPC   C3921974   6.479   3.626  14.427  0.7094 -0.7796 -0.0592
  179DOPC   H9X21975   6.549   3.621  14.342  1.2831  0.0341  0.3505
  179DOPC  C31021976   6.527   3.622  14.550 -0.1501  0.5798  0.0660
  179DOPC  H10X21977   6.635   3.613  14.564  0.4859  2.2560 -2.8750
  179DOPC  C31121978   6.474   3.652  14.691  0.2750  0.6271  0.6220
  179DOPC  H11X21979   6.364   3.637  14.690 -0.4651  4.6376 -1.1013
  179DOPC  H11Y21980   6.489   3.760  14.713 -0.5634  0.9226 -0.1756
  179DOPC  C31221981   6.536   3.566  14.804 -0.4215  0.5255  0.3280
  179DOPC  H12X21982   6.543   3.462  14.767 -0.8329  0.4348  0.4972
  179DOPC  H12Y21983   6.472   3.575  14.895  1.0673  1.9455  1.2945
  179DOPC  C31321984   6.674   3.627  14.848 -0.2370  0.2488 -0.1699
  179DOPC  H13X21985   6.740   3.637  14.759  0.7006 -0.8193  0.3840
  179DOPC  H13Y21986   6.652   3.723  14.900 -0.4594  0.1287 -0.0415
  179DOPC  C31421987   6.740   3.551  14.958  0.0514 -0.2427 -0.5311
  179DOPC  H14X21988   6.717   3.449  14.922 -2.3480 -0.2234  0.7275
  179DOPC  H14Y21989   6.850   3.564  14.967  0.0272 -0.6824  0.6463
  179DOPC  C31521990   6.661   3.565  15.085 -0.6052  0.6618  0.0570
  179DOPC  H15X21991   6.559   3.532  15.057  0.4324 -0.2719 -2.9382
  179DOPC  H15Y21992   6.664   3.673  15.110 -1.1320  1.0309 -1.3917
  179DOPC  C31621993   6.733   3.473  15.183 -0.4547  0.2661 -0.0936
  179DOPC  H16X21994   6.740   3.371  15.139 -0.3517  0.2369 -0.0092
  179DOPC  H16Y21995   6.828   3.522  15.210 -0.0221  0.0787 -1.2139
  179DOPC  C31721996   6.661   3.461  15.321  0.1577 -0.4027  0.5052
  179DOPC  H17X21997   6.647   3.563  15.363 -1.6636  0.0402 -1.0253
  179DOPC  H17Y21998   6.560   3.421  15.300  1.0619 -2.8412  0.4454
  179DOPC  C31821999   6.726   3.376  15.433 -0.7467  0.1111  0.2134
  179DOPC  H18X22000   6.651   3.347  15.509 -2.5240  0.3039 -1.3889
  179DOPC  H18Y22001   6.768   3.282  15.393 -0.7179 -0.5583  1.7539
  179DOPC  H18Z22002   6.813   3.434  15.472 -0.8442  0.9142 -0.7261
  180DOPC     N22003   7.011   2.378  12.892 -0.3788  0.2753 -0.4106
  180DOPC   C1222004   6.913   2.284  12.949  0.3453  0.4613  0.7471
  180DOPC  H12A22005   6.961   2.189  12.966 -0.4382  0.0715  0.8022
  180DOPC  H12B22006   6.828   2.264  12.886  2.4656  0.9129 -2.4616
  180DOPC   C1322007   6.970   2.522  12.885 -0.3715 -0.0309 -0.1466
  180DOPC  H13A22008   6.898   2.525  12.806 -0.3484  0.8332 -0.1416
  180DOPC  H13B22009   6.902   2.548  12.965 -1.8718 -0.0713 -1.3695
  180DOPC  H13C22010   7.045   2.599  12.887 -0.6938  0.2768  0.9657
  180DOPC   C1422011   7.049   2.338  12.749  0.3198 -0.3248  0.4867
  180DOPC  H14A22012   7.143   2.386  12.727 -0.6411  1.3794 -0.1832
  180DOPC  H14B22013   7.064   2.234  12.726  1.5292  0.1420 -1.0026
  180DOPC  H14C22014   6.970   2.372  12.684 -1.6270 -2.4055  1.6266
  180DOPC   C1522015   7.140   2.362  12.972 -0.4170 -0.4691  0.0594
  180DOPC  H15A22016   7.224   2.394  12.913 -0.1894 -0.9753  0.0997
  180DOPC  H15B22017   7.161   2.264  13.014  2.3569  1.0012  2.5247
  180DOPC  H15C22018   7.121   2.424  13.059 -1.2876 -0.5206 -0.0849
  180DOPC   C1122019   6.856   2.328  13.085  0.1019  0.1761 -0.3818
  180DOPC  H11A22020   6.797   2.249  13.136 -0.0154 -0.2290 -1.1336
  180DOPC  H11B22021   6.945   2.347  13.149  0.3849 -0.6145 -0.5310
  180DOPC     P22022   6.633   2.426  12.992 -0.1853 -0.1904 -0.3075
  180DOPC   O1322023   6.649   2.320  12.887  0.1595  0.2081  0.2983
  180DOPC   O1422024   6.570   2.556  12.960 -0.0206  0.6282  0.2929
  180DOPC   O1222025   6.771   2.446  13.073  0.0609 -0.2547  0.4043
  180DOPC   O1122026   6.550   2.356  13.101  0.1486  0.6467 -0.2580
  180DOPC    C122027   6.527   2.422  13.223  0.6302 -0.4193  0.2541
  180DOPC    HA22028   6.418   2.428  13.244  0.8908  1.0653  1.3681
  180DOPC    HB22029   6.558   2.528  13.227 -2.4173  0.7883 -2.9714
  180DOPC    C222030   6.574   2.347  13.349 -0.6217  0.7662  0.5173
  180DOPC    HS22031   6.682   2.331  13.330 -0.7931  0.2167 -0.0452
  180DOPC   O2122032   6.509   2.223  13.360 -0.3574  0.3535  0.1356
  180DOPC   C2122033   6.581   2.108  13.380  0.4927 -0.3304  0.1081
  180DOPC   O2222034   6.701   2.109  13.403 -0.2001  0.2608 -0.2408
  180DOPC   C2222035   6.494   1.983  13.376 -0.0247  0.0645 -0.2520
  180DOPC   H2R22036   6.560   1.894  13.383 -0.2418  0.0013  1.2811
  180DOPC   H2S22037   6.434   1.981  13.282  2.1688  0.7079 -1.7246
  180DOPC    C322038   6.545   2.436  13.479  0.1660  0.1544 -0.8675
  180DOPC    HX22039   6.434   2.446  13.473 -0.0679 -0.7633  1.0077
  180DOPC    HY22040   6.597   2.533  13.467  0.1322  0.3720  0.5279
  180DOPC   O3122041   6.576   2.357  13.604 -0.7758  0.1818  0.2502
  180DOPC   C3122042   6.707   2.353  13.625 -0.2070  0.0304 -0.3381
  180DOPC   O3222043   6.791   2.406  13.556 -0.2405 -0.2437 -0.4899
  180DOPC   C3222044   6.742   2.252  13.738  1.2275 -0.1578 -0.3042
  180DOPC   H2X22045   6.664   2.268  13.816 -0.6660 -0.0184 -2.1499
  180DOPC   H2Y22046   6.737   2.146  13.705 -0.9583 -0.7770  1.6894
  180DOPC   C2322047   6.383   1.970  13.492  0.3579 -0.2031  0.6252
  180DOPC   H3R22048   6.317   1.883  13.475 -0.9928  0.3876  2.4452
  180DOPC   H3S22049   6.322   2.063  13.484  0.9186  0.1481  0.3605
  180DOPC   C2422050   6.448   1.954  13.630 -0.0127 -0.4681 -0.6668
  180DOPC   H4R22051   6.491   2.054  13.653 -0.7249 -0.4395  0.5942
  180DOPC   H4S22052   6.539   1.890  13.619  0.5414  0.3300 -0.8630
  180DOPC   C2522053   6.359   1.905  13.745 -0.5587 -0.5471 -0.5582
  180DOPC   H5R22054   6.327   1.799  13.737 -0.3496 -0.5897 -0.8425
  180DOPC   H5S22055   6.263   1.960  13.732 -0.8221 -0.6603  0.7273
  180DOPC   C2622056   6.416   1.941  13.884 -0.6744 -0.3152 -0.2929
  180DOPC   H6R22057   6.467   2.039  13.878  1.0311 -1.1803 -0.3679
  180DOPC   H6S22058   6.497   1.868  13.901 -0.7196 -0.3233 -0.1156
  180DOPC   C2722059   6.317   1.928  14.000  0.2531 -0.1869  0.6873
  180DOPC   H7R22060   6.254   1.838  13.981  0.3086  0.1168 -1.1147
  180DOPC   H7S22061   6.242   2.009  13.987  2.0099  1.7797  2.1076
  180DOPC   C2822062   6.381   1.956  14.134 -0.2025  0.3545 -0.3670
  180DOPC   H8R22063   6.295   1.961  14.205  0.0886 -3.8321  0.5559
  180DOPC   H8S22064   6.441   2.049  14.127 -1.2051  1.0729  0.1843
  180DOPC   C2922065   6.466   1.848  14.188 -0.1659  0.8704  0.1723
  180DOPC   H9R22066   6.520   1.794  14.109 -0.4089  1.4010 -0.3560
  180DOPC  C21022067   6.492   1.813  14.318 -0.0254 -0.3784  0.2253
  180DOPC  H10R22068   6.576   1.746  14.340 -0.2954 -0.4464  1.0652
  180DOPC  C21122069   6.419   1.874  14.437 -0.7492 -0.2546 -0.7506
  180DOPC  H11R22070   6.365   1.798  14.498 -0.9253 -2.3089 -3.2787
  180DOPC  H11S22071   6.338   1.945  14.411 -2.4475 -2.3281 -1.4091
  180DOPC  C21222072   6.516   1.952  14.533 -0.6499  0.0374 -0.2695
  180DOPC  H12R22073   6.460   2.019  14.601 -2.8674 -0.4064 -1.5545
  180DOPC  H12S22074   6.596   2.000  14.473  1.4619 -0.6840  1.8511
  180DOPC  C21322075   6.601   1.864  14.636 -0.2456  0.5915 -0.6180
  180DOPC  H13R22076   6.655   1.778  14.591  0.8539  1.7050 -1.4684
  180DOPC  H13S22077   6.530   1.815  14.706  1.5042  1.3824  1.8586
  180DOPC  C21422078   6.680   1.950  14.732 -0.8509  0.4786 -0.4658
  180DOPC  H14R22079   6.604   2.012  14.784 -1.3097  0.1396 -0.7214
  180DOPC  H14S22080   6.751   2.007  14.668  0.3331 -2.4542 -1.9639
  180DOPC  C21522081   6.761   1.880  14.847  0.1111 -0.2650 -0.0115
  180DOPC  H15R22082   6.839   1.820  14.795  2.3928  2.9713 -0.5674
  180DOPC  H15S22083   6.692   1.814  14.904 -2.3380  0.2902 -2.1208
  180DOPC  C21622084   6.824   1.984  14.943  0.2416  0.4522 -0.2260
  180DOPC  H16R22085   6.742   2.056  14.962 -0.7903 -1.0049  1.0240
  180DOPC  H16S22086   6.909   2.032  14.890 -1.2165  2.6788 -0.6716
  180DOPC  C21722087   6.870   1.930  15.081 -0.1159  0.3920 -0.0492
  180DOPC  H17R22088   6.937   1.843  15.069 -0.7781 -0.5450  2.2836
  180DOPC  H17S22089   6.790   1.878  15.140 -0.8571 -0.4131 -1.7078
  180DOPC  C21822090   6.939   2.039  15.166 -0.6291 -0.3950 -0.0797
  180DOPC  H18R22091   6.853   2.103  15.196 -2.9525 -1.4130 -3.8398
  180DOPC  H18S22092   7.017   2.100  15.117  0.6627 -1.3450  0.7323
  180DOPC  H18T22093   6.981   1.985  15.254 -0.3776  0.9189  0.6267
  180DOPC   C3322094   6.880   2.280  13.804  0.2326 -0.5156 -0.1302
  180DOPC   H3X22095   6.889   2.378  13.855 -0.5757 -0.2896 -0.4093
  180DOPC   H3Y22096   6.961   2.282  13.728 -0.4322 -1.2712 -0.8764
  180DOPC   C3422097   6.930   2.174  13.910  0.2038 -0.0613  0.3147
  180DOPC   H4X22098   7.034   2.184  13.947  0.3181 -1.3340  0.3890
  180DOPC   H4Y22099   6.937   2.082  13.848  3.0454 -0.1724  0.6691
  180DOPC   C3522100   6.846   2.152  14.036 -0.2049  0.0782 -0.0099
  180DOPC   H5X22101   6.878   2.052  14.072  1.3381 -0.2970 -2.2381
  180DOPC   H5Y22102   6.737   2.139  14.016 -0.3261 -1.4635  1.3912
  180DOPC   C3622103   6.871   2.256  14.147  1.1272 -0.3519 -0.3711
  180DOPC   H6X22104   6.972   2.300  14.134  1.7066 -1.6770 -0.5662
  180DOPC   H6Y22105   6.799   2.340  14.137  1.9204  0.3361 -0.4157
  180DOPC   C3722106   6.860   2.200  14.295 -0.2344  0.2627  0.0223
  180DOPC   H7X22107   6.863   2.274  14.377  2.2574 -0.8641  1.0551
  180DOPC   H7Y22108   6.757   2.158  14.289  0.5236 -1.7095 -0.0928
  180DOPC   C3822109   6.963   2.094  14.323 -0.0609 -0.1282 -0.3509
  180DOPC   H8X22110   7.063   2.135  14.297  0.9976 -1.4632  1.4124
  180DOPC   H8Y22111   6.952   2.006  14.256  1.3866 -0.2018 -0.5378
  180DOPC   C3922112   6.952   2.043  14.460  0.6831  0.1872 -0.1462
  180DOPC   H9X22113   6.910   2.109  14.538  1.2064  0.7912 -0.3640
  180DOPC  C31022114   7.002   1.919  14.493  0.5601 -0.4244  0.7254
  180DOPC  H10X22115   6.977   1.873  14.590 -1.2568 -1.5548 -0.2152
  180DOPC  C31122116   7.082   1.825  14.399  0.1698  0.4427 -0.6801
  180DOPC  H11X22117   7.181   1.795  14.439 -0.6037 -1.1956  0.1201
  180DOPC  H11Y22118   7.101   1.867  14.298  1.8066  2.3886  0.3835
  180DOPC  C31222119   7.000   1.700  14.367  1.0620 -0.3822  0.9897
  180DOPC  H12X22120   6.949   1.660  14.457 -0.8976 -2.4472 -0.9006
  180DOPC  H12Y22121   7.066   1.623  14.322  1.9327 -0.2165  1.9219
  180DOPC  C31322122   6.888   1.722  14.263  0.2210  0.1663 -0.9564
  180DOPC  H13X22123   6.821   1.635  14.279  0.2382  0.2783 -0.2226
  180DOPC  H13Y22124   6.829   1.816  14.275 -1.4385 -0.8294 -1.0855
  180DOPC  C31422125   6.933   1.706  14.116  0.1192 -0.4909  0.5968
  180DOPC  H14X22126   6.999   1.794  14.106  1.2370 -1.0973  2.2243
  180DOPC  H14Y22127   7.008   1.626  14.104 -0.1797 -0.3680 -3.2650
  180DOPC  C31522128   6.823   1.697  14.011  0.5342  0.7353 -0.4181
  180DOPC  H15X22129   6.744   1.767  14.045  1.6606  1.3115  1.1161
  180DOPC  H15Y22130   6.778   1.595  14.012  0.1055  0.9240  0.2430
  180DOPC  C31622131   6.884   1.734  13.874  0.1930 -0.3497 -0.0159
  180DOPC  H16X22132   6.929   1.833  13.894 -0.5381  0.1860 -0.9137
  180DOPC  H16Y22133   6.964   1.669  13.832  0.0630 -0.0082 -0.8183
  180DOPC  C31722134   6.776   1.751  13.764  0.0422  1.0847  0.0255
  180DOPC  H17X22135   6.754   1.646  13.735  0.4690  0.0579  3.0514
  180DOPC  H17Y22136   6.681   1.782  13.813 -0.0157 -1.3085  1.5899
  180DOPC  C31822137   6.831   1.824  13.640 -0.4298 -0.0621  0.0495
  180DOPC  H18X22138   6.925   1.773  13.608  0.7660  2.4855 -0.7279
  180DOPC  H18Y22139   6.762   1.818  13.553  1.8713 -0.4792 -1.8377
  180DOPC  H18Z22140   6.854   1.927  13.674 -0.5986 -0.8614  2.8108
  181DOPC     N22141   1.265   2.252  12.811  0.2778 -0.7916  0.0339
  181DOPC   C1222142   1.137   2.328  12.774  0.1253 -0.2432 -0.2195
  181DOPC  H12A22143   1.087   2.363  12.863 -1.6962  2.4072 -2.1219
  181DOPC  H12B22144   1.064   2.266  12.724 -0.7921  1.8708 -1.6452
  181DOPC   C1322145   1.327   2.198  12.683 -0.1311 -1.1950 -0.5330
  181DOPC  H13A22146   1.360   2.278  12.619 -1.2952  0.0381  0.3432
  181DOPC  H13B22147   1.409   2.133  12.708  0.4242  0.2240  1.6043
  181DOPC  H13C22148   1.246   2.142  12.639 -1.5891  1.0309 -0.8832
  181DOPC   C1422149   1.232   2.147  12.903 -0.1998 -0.2564  0.1173
  181DOPC  H14A22150   1.180   2.065  12.857 -2.3402  0.9079  0.3641
  181DOPC  H14B22151   1.316   2.108  12.959 -1.8248 -2.8483  0.9371
  181DOPC  H14C22152   1.161   2.189  12.972  0.4767  0.1144  0.6073
  181DOPC   C1522153   1.354   2.347  12.875 -0.2961 -0.5703 -0.6359
  181DOPC  H15A22154   1.324   2.377  12.974 -2.3634 -0.3962 -1.2621
  181DOPC  H15B22155   1.358   2.435  12.813  2.0626  0.0251  0.2467
  181DOPC  H15C22156   1.453   2.304  12.885 -0.7698 -1.5005  0.2737
  181DOPC   C1122157   1.143   2.445  12.681 -0.0890 -0.5037  0.0274
  181DOPC  H11A22158   1.194   2.421  12.585  2.6733  0.2309  1.2273
  181DOPC  H11B22159   1.037   2.472  12.660 -0.2241  0.8630  2.1314
  181DOPC     P22160   1.157   2.678  12.803 -0.8362 -0.1469 -0.1969
  181DOPC   O1322161   1.127   2.784  12.709 -0.2449  0.0488  0.0859
  181DOPC   O1422162   1.245   2.718  12.915  1.2857  0.6489 -0.0488
  181DOPC   O1222163   1.222   2.556  12.727  0.0605  0.5327  0.2531
  181DOPC   O1122164   1.022   2.628  12.855 -0.0581 -0.0615  0.2277
  181DOPC    C122165   0.900   2.697  12.879  0.0873 -0.4796  0.6044
  181DOPC    HA22166   0.816   2.625  12.869 -0.3505 -0.0267  0.9309
  181DOPC    HB22167   0.881   2.778  12.806  1.5779 -0.2795  0.4089
  181DOPC    C222168   0.893   2.773  13.019  0.0138 -0.0138 -0.2398
  181DOPC    HS22169   0.957   2.862  13.004 -1.6019  1.0960 -0.7279
  181DOPC   O2122170   0.939   2.677  13.118  0.6407 -0.3236  0.1734
  181DOPC   C2122171   0.989   2.740  13.225 -0.0555 -0.8444 -0.6179
  181DOPC   O2222172   1.044   2.851  13.222 -0.0655  0.4107  0.0292
  181DOPC   C2222173   0.946   2.667  13.351 -0.3502  0.0766 -0.0166
  181DOPC   H2R22174   1.012   2.579  13.355  0.0306  0.3687  0.2107
  181DOPC   H2S22175   0.838   2.642  13.348 -0.1399 -0.8248 -0.2620
  181DOPC    C322176   0.751   2.831  13.057  0.0892 -0.5724 -0.3319
  181DOPC    HX22177   0.689   2.740  13.072 -0.2055 -0.2148  0.6538
  181DOPC    HY22178   0.715   2.885  12.967 -0.4766 -0.6835 -0.1717
  181DOPC   O3122179   0.757   2.914  13.180 -0.4688  0.2290  0.2590
  181DOPC   C3122180   0.785   3.042  13.159 -0.1161  0.0157 -1.1259
  181DOPC   O3222181   0.820   3.091  13.053  0.4741 -0.2231 -0.4552
  181DOPC   C3222182   0.749   3.129  13.281 -0.6738 -0.0498 -0.1547
  181DOPC   H2X22183   0.727   3.231  13.245 -1.4782  0.0820  0.6477
  181DOPC   H2Y22184   0.654   3.101  13.332 -0.2536  0.8301  1.1785
  181DOPC   C2322185   0.964   2.761  13.477  0.5366  0.1697  0.0515
  181DOPC   H3R22186   0.863   2.801  13.500  0.7566  0.6776  0.1426
  181DOPC   H3S22187   1.028   2.851  13.466  0.2221  0.4560  0.4921
  181DOPC   C2422188   1.000   2.687  13.610 -0.9199  0.4854 -0.1031
  181DOPC   H4R22189   0.994   2.756  13.697  0.0082  2.3036 -1.4262
  181DOPC   H4S22190   1.104   2.651  13.599 -1.0814  0.0687 -0.2959
  181DOPC   C2522191   0.912   2.573  13.653  0.1042 -0.4413 -0.4945
  181DOPC   H5R22192   0.936   2.483  13.593  1.4189 -0.0621 -0.5607
  181DOPC   H5S22193   0.806   2.595  13.626  0.0951 -0.8414 -0.7803
  181DOPC   C2622194   0.930   2.546  13.803  0.5656  0.9876 -0.2620
  181DOPC   H6R22195   0.920   2.635  13.868 -2.4880  0.6832 -0.1853
  181DOPC   H6S22196   1.033   2.504  13.807  0.0422 -0.3799 -0.4478
  181DOPC   C2722197   0.825   2.444  13.860 -0.1096 -0.4064  0.1434
  181DOPC   H7R22198   0.822   2.353  13.797  1.2806  0.4389 -1.2119
  181DOPC   H7S22199   0.725   2.492  13.848  0.5027  0.7007 -0.6911
  181DOPC   C2822200   0.852   2.407  14.006 -0.1142 -0.0719 -0.0362
  181DOPC   H8R22201   0.756   2.355  14.027 -1.6888  2.0366 -1.5747
  181DOPC   H8S22202   0.853   2.501  14.066  1.2051  1.2003 -1.9317
  181DOPC   C2922203   0.976   2.327  14.021 -0.1117  0.2703 -0.4839
  181DOPC   H9R22204   1.067   2.389  14.012  1.3268 -1.7355 -0.4270
  181DOPC  C21022205   0.984   2.191  14.045 -0.4248 -0.5122 -0.3752
  181DOPC  H10R22206   1.086   2.149  14.054 -1.0962 -1.8595  1.6582
  181DOPC  C21122207   0.866   2.103  14.053  0.2351  0.0506 -0.2335
  181DOPC  H11R22208   0.810   2.127  13.961  1.0863 -2.3691 -1.4577
  181DOPC  H11S22209   0.795   2.138  14.131 -1.7442 -0.6978 -1.6334
  181DOPC  C21222210   0.880   1.947  14.051  0.0118  0.2434  0.1613
  181DOPC  H12R22211   0.960   1.928  14.126  0.1168  0.6229  0.1501
  181DOPC  H12S22212   0.926   1.918  13.954  1.8132 -0.1944  1.1001
  181DOPC  C21322213   0.758   1.874  14.096 -0.0291 -0.1135 -0.3331
  181DOPC  H13R22214   0.706   1.930  14.175 -0.2740 -2.8956  1.6340
  181DOPC  H13S22215   0.778   1.777  14.147 -1.2502 -0.4975 -0.5551
  181DOPC  C21422216   0.665   1.854  13.976 -0.5299  0.8056  0.6860
  181DOPC  H14R22217   0.689   1.762  13.918 -1.7345  2.2668 -2.3534
  181DOPC  H14S22218   0.688   1.935  13.904 -0.3792 -0.3217 -0.5839
  181DOPC  C21522219   0.519   1.853  14.023 -0.1406  1.0685 -0.0504
  181DOPC  H15R22220   0.458   1.824  13.935  0.6565  2.1929 -1.0147
  181DOPC  H15S22221   0.484   1.953  14.058  0.2133  1.4978 -0.9142
  181DOPC  C21622222   0.481   1.762  14.144  0.3726  0.0946 -0.2212
  181DOPC  H16R22223   0.533   1.793  14.238 -0.9660 -1.8061  1.2377
  181DOPC  H16S22224   0.503   1.658  14.112  1.3778  0.3969 -0.5605
  181DOPC  C21722225   0.333   1.788  14.181 -0.0071 -0.4941  0.3637
  181DOPC  H17R22226   0.269   1.771  14.091 -0.8343  1.2658  0.5767
  181DOPC  H17S22227   0.330   1.893  14.216  1.2442 -0.3155 -0.0013
  181DOPC  C21822228   0.282   1.700  14.297  0.2982  0.3834  0.1873
  181DOPC  H18R22229   0.350   1.691  14.385  1.3895  0.8862 -0.5844
  181DOPC  H18S22230   0.264   1.596  14.260  2.6129 -0.0217  0.0337
  181DOPC  H18T22231   0.196   1.755  14.341 -1.0722 -1.6849  0.2391
  181DOPC   C3322232   0.867   3.140  13.386 -0.1324  1.2927  0.5694
  181DOPC   H3X22233   0.905   3.244  13.384  0.2044  1.1965  1.4891
  181DOPC   H3Y22234   0.942   3.064  13.355 -1.8440  0.0541 -0.8221
  181DOPC   C3422235   0.824   3.108  13.528 -0.1690 -0.1868 -0.1544
  181DOPC   H4X22236   0.919   3.118  13.585 -0.1747  2.2316 -0.4489
  181DOPC   H4Y22237   0.781   3.006  13.531 -1.1911  0.2391  0.0790
  181DOPC   C3522238   0.743   3.221  13.588  0.0437 -0.4393  0.4097
  181DOPC   H5X22239   0.638   3.206  13.555  0.5522  0.6261 -1.9878
  181DOPC   H5Y22240   0.780   3.316  13.542  1.3103 -1.1680 -0.1554
  181DOPC   C3622241   0.763   3.243  13.740  0.1618 -0.2535  0.5213
  181DOPC   H6X22242   0.864   3.286  13.754  0.5925 -1.3853  1.0333
  181DOPC   H6Y22243   0.678   3.308  13.771  0.2635 -0.1119  0.5014
  181DOPC   C3722244   0.745   3.109  13.819  0.5680 -0.5944 -0.0385
  181DOPC   H7X22245   0.645   3.064  13.799 -1.0759  2.8775 -0.4153
  181DOPC   H7Y22246   0.828   3.037  13.804  0.0116 -1.1200 -0.6820
  181DOPC   C3822247   0.729   3.136  13.974 -0.2475  0.5144  1.4881
  181DOPC   H8X22248   0.665   3.060  14.024  0.8107 -1.2265  0.3019
  181DOPC   H8Y22249   0.676   3.233  13.982 -0.5270  0.7112 -1.5932
  181DOPC   C3922250   0.865   3.148  14.040 -0.1764  0.5229  0.5012
  181DOPC   H9X22251   0.920   3.055  14.019 -1.1372  0.0527  0.0284
  181DOPC  C31022252   0.918   3.258  14.089  0.3352 -0.3328  0.6696
  181DOPC  H10X22253   1.015   3.250  14.140  0.2118  0.2580  1.0051
  181DOPC  C31122254   0.859   3.400  14.089  0.0487  0.4758 -0.2694
  181DOPC  H11X22255   0.828   3.436  14.190  0.7213 -0.7526  0.3924
  181DOPC  H11Y22256   0.778   3.415  14.015 -1.8737 -0.5683  1.5123
  181DOPC  C31222257   0.969   3.502  14.031  0.1178 -0.2958 -0.5988
  181DOPC  H12X22258   1.054   3.501  14.103 -0.4758 -0.2145  0.1159
  181DOPC  H12Y22259   0.933   3.607  14.040 -1.2989 -0.5282 -2.8720
  181DOPC  C31322260   1.022   3.471  13.887  0.2428 -0.0346 -0.6874
  181DOPC  H13X22261   1.030   3.362  13.865  0.4612  0.6344 -4.6283
  181DOPC  H13Y22262   0.943   3.515  13.822 -1.4002  0.3922  1.4919
  181DOPC  C31422263   1.149   3.561  13.853  0.5023 -0.6021 -0.1698
  181DOPC  H14X22264   1.108   3.663  13.863  0.0635 -0.7717 -0.2310
  181DOPC  H14Y22265   1.232   3.531  13.922  0.5420  1.2733  0.6648
  181DOPC  C31522266   1.174   3.547  13.707 -0.3931 -0.0146 -0.0216
  181DOPC  H15X22267   1.277   3.582  13.686  0.5848 -2.2008  0.8887
  181DOPC  H15Y22268   1.095   3.601  13.650 -0.5001 -1.8843 -1.7412
  181DOPC  C31622269   1.161   3.416  13.639 -0.6059  0.1260 -0.3237
  181DOPC  H16X22270   1.224   3.339  13.690 -1.8522 -1.0536 -0.5072
  181DOPC  H16Y22271   1.056   3.380  13.632 -0.4372 -0.1706 -1.6912
  181DOPC  C31722272   1.226   3.408  13.498 -0.6742 -0.1980  0.1013
  181DOPC  H17X22273   1.333   3.436  13.484 -0.9790 -0.0019 -2.2097
  181DOPC  H17Y22274   1.227   3.302  13.467  1.0058 -0.3789  0.6912
  181DOPC  C31822275   1.152   3.498  13.398 -0.3001 -0.4418  0.6926
  181DOPC  H18X22276   1.159   3.604  13.429 -1.3643  0.4338 -1.8561
  181DOPC  H18Y22277   1.205   3.493  13.300  0.7461 -0.1451  1.2282
  181DOPC  H18Z22278   1.046   3.468  13.389 -0.4896  0.6651 -1.2714
  182DOPC     N22279   2.949   0.997  12.434 -0.0378 -0.1428  0.1862
  182DOPC   C1222280   2.961   0.886  12.537 -0.7825  0.1206 -0.0363
  182DOPC  H12A22281   3.053   0.899  12.591 -0.8945 -0.3946  0.2750
  182DOPC  H12B22282   2.986   0.799  12.478 -0.1778  0.2687 -0.0087
  182DOPC   C1322283   2.839   0.963  12.332  0.2290 -0.2978 -0.0108
  182DOPC  H13A22284   2.856   0.886  12.259 -0.8734 -0.6515  0.0922
  182DOPC  H13B22285   2.749   0.940  12.388  2.2074 -1.1604  3.0389
  182DOPC  H13C22286   2.812   1.044  12.266 -0.1724 -0.1488  0.3243
  182DOPC   C1422287   3.083   1.016  12.370 -0.1463  0.3743 -0.0166
  182DOPC  H14A22288   3.074   1.066  12.275  1.0984  1.7647  0.5741
  182DOPC  H14B22289   3.154   1.061  12.437  0.1594  0.3346 -0.3106
  182DOPC  H14C22290   3.124   0.919  12.348 -0.1992 -0.0958  1.8058
  182DOPC   C1522291   2.909   1.133  12.496 -0.1571  0.5035 -0.5670
  182DOPC  H15A22292   2.827   1.112  12.564  0.0358  0.1258 -0.4477
  182DOPC  H15B22293   2.862   1.207  12.432  0.7770  1.7297  0.1281
  182DOPC  H15C22294   2.993   1.169  12.554  0.2104 -0.9664 -0.1539
  182DOPC   C1122295   2.829   0.864  12.618 -0.2220 -0.1466 -0.1179
  182DOPC  H11A22296   2.852   0.797  12.703  0.1933 -2.5406 -2.0109
  182DOPC  H11B22297   2.784   0.958  12.659  1.2516 -0.1416  1.6437
  182DOPC     P22298   2.610   0.740  12.564  0.3054  0.2727 -0.1334
  182DOPC   O1322299   2.555   0.671  12.445 -0.4308 -0.2536 -0.1754
  182DOPC   O1422300   2.535   0.853  12.625  0.5031 -0.5506 -0.0785
  182DOPC   O1222301   2.747   0.791  12.525  0.1735  0.1475 -0.4724
  182DOPC   O1122302   2.628   0.626  12.676 -0.0675  0.3166  0.0437
  182DOPC    C122303   2.729   0.524  12.680 -0.0205 -0.0082 -0.2702
  182DOPC    HA22304   2.794   0.540  12.769  1.2288 -0.2287 -1.1083
  182DOPC    HB22305   2.795   0.525  12.589 -0.9059 -2.6623 -1.0245
  182DOPC    C222306   2.664   0.384  12.687  0.2344  0.1494  0.7400
  182DOPC    HS22307   2.591   0.379  12.603 -1.3732  1.8202  1.9844
  182DOPC   O2122308   2.601   0.375  12.811  0.6755 -0.0450  0.2711
  182DOPC   C2122309   2.497   0.307  12.827 -0.5354  0.1363  0.0049
  182DOPC   O2222310   2.433   0.249  12.740  0.4221  0.6114 -0.6369
  182DOPC   C2222311   2.456   0.323  12.975 -0.3631  0.2002  0.4618
  182DOPC   H2R22312   2.350   0.293  12.988 -0.1109 -1.9157 -1.5653
  182DOPC   H2S22313   2.466   0.429  13.005 -1.5325  0.5789 -0.4028
  182DOPC    C322314   2.764   0.269  12.669  0.6012 -0.0215 -0.0541
  182DOPC    HX22315   2.823   0.295  12.578  1.4495 -0.2110  0.4307
  182DOPC    HY22316   2.703   0.180  12.643 -0.7908  1.1784 -1.0845
  182DOPC   O3122317   2.849   0.256  12.786  0.8920  0.4327 -0.3643
  182DOPC   C3122318   2.817   0.149  12.869 -0.5632  0.5511 -0.3343
  182DOPC   O3222319   2.721   0.078  12.850  0.2279  0.0565  0.3897
  182DOPC   C3222320   2.916   0.137  12.985 -0.8755 -0.0224 -0.0736
  182DOPC   H2X22321   2.900   0.048  13.049 -2.7151 -0.6838 -1.3794
  182DOPC   H2Y22322   3.013   0.134  12.932 -0.9003  1.7795 -0.2953
  182DOPC   C2322323   2.529   0.230  13.077  0.3016  0.0191 -0.6651
  182DOPC   H3R22324   2.639   0.245  13.070  0.9942 -2.4449  2.5802
  182DOPC   H3S22325   2.503   0.127  13.046 -1.1222 -0.3965  1.6937
  182DOPC   C2422326   2.472   0.246  13.224 -0.0009 -0.4554  0.8422
  182DOPC   H4R22327   2.362   0.228  13.220 -0.9579  4.1081  1.0548
  182DOPC   H4S22328   2.474   0.353  13.254  0.9175 -0.7578  1.8900
  182DOPC   C2522329   2.541   0.157  13.331 -0.1886 -0.8405  0.0951
  182DOPC   H5R22330   2.647   0.188  13.333 -0.4296  0.0084  1.9468
  182DOPC   H5S22331   2.543   0.055  13.285 -1.8155 -0.0937 -1.7810
  182DOPC   C2622332   2.484   0.162  13.471 -0.4757 -0.4597  0.1184
  182DOPC   H6R22333   2.386   0.111  13.470  0.0009 -1.4627 -2.5303
  182DOPC   H6S22334   2.476   0.269  13.500  0.8647 -0.4732  0.6141
  182DOPC   C2722335   2.571   0.086  13.577 -0.3152  0.1686 -0.1363
  182DOPC   H7R22336   2.573  -0.019  13.541  1.1551  0.3459 -0.6314
  182DOPC   H7S22337   2.514   0.094  13.672  0.7151  2.6962  0.3550
  182DOPC   C2822338   2.716   0.132  13.598 -0.0890 -0.6369  0.7241
  182DOPC   H8R22339   2.704   0.242  13.601 -1.4659 -0.7360 -0.0606
  182DOPC   H8S22340   2.782   0.110  13.512  1.4528  0.4348  1.5746
  182DOPC   C2922341   2.769   0.096  13.733  0.3507  0.2640 -0.8861
  182DOPC   H9R22342   2.699   0.107  13.817  2.3288  0.7635  0.7960
  182DOPC  C21022343   2.894   0.056  13.771  0.7157  0.2369  0.0452
  182DOPC  H10R22344   2.922   0.037  13.876  0.2753  0.5468  0.2197
  182DOPC  C21122345   3.004   0.029  13.675  0.0272 -0.0407 -0.0610
  182DOPC  H11R22346   3.102   0.063  13.715  0.3444 -0.2229 -0.6636
  182DOPC  H11S22347   2.983   0.090  13.584 -1.6835 -0.6851 -0.1328
  182DOPC  C21222348   3.015  -0.109  13.617  0.1968  0.8342 -0.4997
  182DOPC  H12R22349   2.914  -0.144  13.587 -0.0667  0.0524  1.2018
  182DOPC  H12S22350   3.057  -0.172  13.698 -1.3686 -0.7252 -0.8344
  182DOPC  C21322351   3.101  -0.131  13.490  0.1822 -0.6162 -0.5912
  182DOPC  H13R22352   3.085  -0.051  13.415  0.1428  1.0742  1.1126
  182DOPC  H13S22353   3.070  -0.226  13.442 -3.2763 -1.1585  2.3207
  182DOPC  C21422354   3.252  -0.145  13.521 -0.3832 -0.1289 -0.3605
  182DOPC  H14R22355   3.277  -0.241  13.572  1.9404  0.2970 -0.5814
  182DOPC  H14S22356   3.284  -0.067  13.594  1.2811 -1.9450  0.9755
  182DOPC  C21522357   3.337  -0.147  13.398  0.6443 -0.1332  0.3445
  182DOPC  H15R22358   3.299  -0.063  13.335 -1.6078 -0.1652  1.5717
  182DOPC  H15S22359   3.310  -0.240  13.342 -0.8353  1.0517 -1.0481
  182DOPC  C21622360   3.478  -0.130  13.437 -0.2135 -0.1753 -0.4169
  182DOPC  H16R22361   3.498  -0.071  13.529 -0.8297  1.4091 -1.2537
  182DOPC  H16S22362   3.528  -0.078  13.352  0.2056 -0.4892 -0.3669
  182DOPC  C21722363   3.564  -0.264  13.465 -0.0379  0.1635 -0.5500
  182DOPC  H17R22364   3.543  -0.345  13.391  1.0035 -0.2614 -0.3952
  182DOPC  H17S22365   3.544  -0.299  13.569  1.6707  0.3397 -0.1378
  182DOPC  C21822366   3.716  -0.243  13.446  0.3095  0.0569  0.3872
  182DOPC  H18R22367   3.764  -0.339  13.417  1.8150  0.6127  0.9497
  182DOPC  H18S22368   3.765  -0.207  13.539 -0.5932  1.6197  0.2968
  182DOPC  H18T22369   3.728  -0.172  13.361 -1.0739  0.4788  0.5073
  182DOPC   C3322370   2.934   0.263  13.072  0.3012  0.0465  0.3807
  182DOPC   H3X22371   2.831   0.285  13.110 -1.5882 -2.7324 -2.5903
  182DOPC   H3Y22372   2.975   0.351  13.017 -1.3990  0.7661  0.1914
  182DOPC   C3422373   3.031   0.249  13.198  0.1698 -0.3128  0.2012
  182DOPC   H4X22374   2.998   0.167  13.265 -1.3750 -0.3377 -0.5491
  182DOPC   H4Y22375   3.034   0.342  13.257  1.6109 -1.9662  2.9626
  182DOPC   C3522376   3.172   0.213  13.158  0.0888 -0.1610 -0.1811
  182DOPC   H5X22377   3.195   0.289  13.080 -1.0955  0.3056 -0.1042
  182DOPC   H5Y22378   3.190   0.117  13.104 -2.7653 -0.5867 -0.5391
  182DOPC   C3622379   3.271   0.235  13.273 -1.0989 -0.2319 -0.7535
  182DOPC   H6X22380   3.263   0.340  13.309  2.2705 -0.1755  0.1354
  182DOPC   H6Y22381   3.246   0.172  13.361 -0.0005 -0.0870 -0.3276
  182DOPC   C3722382   3.419   0.194  13.230  0.6628  0.6574  0.1899
  182DOPC   H7X22383   3.413   0.084  13.211 -0.7045  0.6543  0.5154
  182DOPC   H7Y22384   3.450   0.249  13.140  1.3439 -1.5363 -0.9967
  182DOPC   C3822385   3.519   0.205  13.345 -0.1784  0.2981  0.3459
  182DOPC   H8X22386   3.487   0.127  13.417 -0.6754 -2.3190 -2.5586
  182DOPC   H8Y22387   3.497   0.300  13.399 -1.6350  0.6146 -0.7652
  182DOPC   C3922388   3.667   0.196  13.303  0.0619 -0.2167 -0.3279
  182DOPC   H9X22389   3.691   0.195  13.196 -0.6355 -0.2923 -0.4825
  182DOPC  C31022390   3.764   0.211  13.395 -0.7969 -0.4946 -0.6420
  182DOPC  H10X22391   3.866   0.194  13.356 -0.5901 -0.4591 -0.1260
  182DOPC  C31122392   3.757   0.232  13.546  0.0987  0.0335 -0.6930
  182DOPC  H11X22393   3.654   0.227  13.587  0.2369 -1.9153 -0.5306
  182DOPC  H11Y22394   3.784   0.336  13.575 -0.5066 -0.7420  3.1045
  182DOPC  C31222395   3.852   0.141  13.627  0.0726 -0.6481  0.5510
  182DOPC  H12X22396   3.956   0.153  13.588  0.0746  1.4860  1.0702
  182DOPC  H12Y22397   3.829   0.034  13.608  0.6274 -0.5807 -0.6108
  182DOPC  C31322398   3.845   0.172  13.778  0.0052 -0.1174 -0.3083
  182DOPC  H13X22399   3.841   0.280  13.805 -0.5699 -0.4267  0.9127
  182DOPC  H13Y22400   3.756   0.132  13.831  1.9126 -1.4616  2.1202
  182DOPC  C31422401   3.965   0.123  13.851 -0.3952 -0.2921  0.0413
  182DOPC  H14X22402   3.940   0.104  13.957  0.2381  2.5997  0.7985
  182DOPC  H14Y22403   4.007   0.030  13.806 -0.5731  0.0868 -0.9380
  182DOPC  C31522404   4.082   0.224  13.865 -0.1505  0.9358 -1.0526
  182DOPC  H15X22405   4.044   0.325  13.894  0.8447  1.3745 -1.2300
  182DOPC  H15Y22406   4.131   0.233  13.766  0.8337  2.4181 -0.4674
  182DOPC  C31622407   4.184   0.189  13.973 -0.7523 -0.3255 -0.4224
  182DOPC  H16X22408   4.215   0.082  13.969 -1.4728 -0.5064 -3.0177
  182DOPC  H16Y22409   4.268   0.260  13.954 -2.9325  2.8694  0.9764
  182DOPC  C31722410   4.140   0.234  14.107  0.2367  0.1577 -0.3871
  182DOPC  H17X22411   4.112   0.341  14.096 -0.2381  0.0275 -0.4467
  182DOPC  H17Y22412   4.053   0.175  14.142  1.1092  0.3600  2.4257
  182DOPC  C31822413   4.250   0.227  14.218 -0.1515 -0.6044 -0.5781
  182DOPC  H18X22414   4.329   0.303  14.199  0.6339 -1.8131 -2.4432
  182DOPC  H18Y22415   4.207   0.232  14.321 -0.0004  0.5675 -0.5521
  182DOPC  H18Z22416   4.288   0.123  14.217 -1.0382 -0.9592 -2.7844
  183DOPC     N22417   6.430   4.466  13.257  0.2580 -0.6618  0.1260
  183DOPC   C1222418   6.371   4.484  13.400 -0.3070  0.7233 -0.3386
  183DOPC  H12A22419   6.416   4.566  13.454 -1.6561  0.9138  0.5336
  183DOPC  H12B22420   6.376   4.399  13.466  2.0143  1.2203  0.2404
  183DOPC   C1322421   6.370   4.360  13.173 -0.4593 -0.1385 -0.0331
  183DOPC  H13A22422   6.427   4.350  13.082  1.6194  1.2910  1.0428
  183DOPC  H13B22423   6.368   4.268  13.229  2.6003  0.3435  1.0402
  183DOPC  H13C22424   6.265   4.380  13.158 -0.8174 -1.6472  0.2970
  183DOPC   C1422425   6.574   4.430  13.271  0.4103  0.1375 -0.2892
  183DOPC  H14A22426   6.626   4.496  13.339  0.6608  1.1543 -1.4369
  183DOPC  H14B22427   6.583   4.329  13.307  1.2919 -0.0430 -0.9903
  183DOPC  H14C22428   6.622   4.422  13.175 -1.5785 -0.2786 -1.3075
  183DOPC   C1522429   6.429   4.599  13.187 -0.1079 -0.1245 -0.2909
  183DOPC  H15A22430   6.334   4.644  13.158  1.0983  2.0385 -1.1507
  183DOPC  H15B22431   6.479   4.581  13.094 -1.4189 -1.6162 -0.7461
  183DOPC  H15C22432   6.474   4.677  13.247  1.3598 -0.1368 -1.3230
  183DOPC   C1122433   6.223   4.523  13.390  0.3495 -0.1346 -0.0085
  183DOPC  H11A22434   6.194   4.544  13.495  2.4668 -0.1938  0.6437
  183DOPC  H11B22435   6.205   4.621  13.340 -1.7119 -0.2933  0.3226
  183DOPC     P22436   6.047   4.319  13.411  0.4567 -0.0200 -0.1560
  183DOPC   O1322437   6.077   4.178  13.371  0.3765 -0.0946  0.2474
  183DOPC   O1422438   5.909   4.369  13.398 -0.1016  0.6831 -0.0074
  183DOPC   O1222439   6.145   4.414  13.333 -0.2856 -0.7428 -0.5266
  183DOPC   O1122440   6.081   4.347  13.563  0.0159  0.0152 -0.0599
  183DOPC    C122441   6.070   4.238  13.658  0.5201 -0.3012 -0.2777
  183DOPC    HA22442   6.162   4.176  13.670  1.0855  0.2277 -1.6655
  183DOPC    HB22443   5.993   4.165  13.627 -0.3761 -0.1576  1.4881
  183DOPC    C222444   6.030   4.296  13.793 -0.6440  0.4295 -0.7136
  183DOPC    HS22445   6.045   4.214  13.866 -0.6683  0.5631 -0.5587
  183DOPC   O2122446   5.900   4.351  13.800  0.6710 -0.6727  0.0998
  183DOPC   C2122447   5.806   4.256  13.814 -0.5727  0.5453  0.3541
  183DOPC   O2222448   5.831   4.134  13.815 -0.6675  0.3192 -0.2441
  183DOPC   C2222449   5.665   4.321  13.821 -0.4003 -0.2292 -0.2470
  183DOPC   H2R22450   5.640   4.380  13.730 -1.3649  1.9557  1.3215
  183DOPC   H2S22451   5.682   4.400  13.897  2.6184 -0.6288 -0.3851
  183DOPC    C322452   6.135   4.406  13.831 -0.5039 -0.3748  0.0654
  183DOPC    HX22453   6.124   4.494  13.764 -1.3741  0.8225  1.7295
  183DOPC    HY22454   6.234   4.361  13.806  0.4642  1.5970  0.1082
  183DOPC   O3122455   6.118   4.456  13.969  0.1881  0.0820  0.1122
  183DOPC   C3122456   6.211   4.417  14.054  0.0689  0.2314 -0.5317
  183DOPC   O3222457   6.307   4.347  14.036  0.1834  0.4943 -0.0148
  183DOPC   C3222458   6.171   4.477  14.197  0.3848  0.2232  0.1814
  183DOPC   H2X22459   6.126   4.577  14.184  1.0669  0.7845  1.8632
  183DOPC   H2Y22460   6.089   4.412  14.235 -0.4225 -0.3019 -2.2908
  183DOPC   C2322461   5.557   4.218  13.856  0.2498  0.8554 -0.0132
  183DOPC   H3R22462   5.566   4.145  13.773  1.6822  1.9324 -0.8546
  183DOPC   H3S22463   5.453   4.257  13.845  0.3567  0.8874 -1.0421
  183DOPC   C2422464   5.569   4.164  13.997 -0.6932 -0.0370 -0.5487
  183DOPC   H4R22465   5.675   4.134  14.016 -1.0365 -0.2540  1.2797
  183DOPC   H4S22466   5.521   4.064  14.006 -0.0449 -0.3567 -0.5098
  183DOPC   C2522467   5.526   4.264  14.107 -0.5304 -0.2290 -0.4899
  183DOPC   H5R22468   5.420   4.294  14.096 -0.3695  0.1845 -0.9645
  183DOPC   H5S22469   5.595   4.350  14.091  0.1912 -0.5997  0.5180
  183DOPC   C2622470   5.555   4.209  14.244  0.8808  0.2300  0.1288
  183DOPC   H6R22471   5.655   4.167  14.267  0.6318 -1.2178 -1.2620
  183DOPC   H6S22472   5.493   4.118  14.260  1.7377 -0.9585 -2.7200
  183DOPC   C2722473   5.525   4.311  14.352 -0.3542  0.7792  0.5378
  183DOPC   H7R22474   5.419   4.344  14.342 -0.5468  0.0010 -0.0778
  183DOPC   H7S22475   5.601   4.390  14.331  1.2469 -0.9091 -0.3491
  183DOPC   C2822476   5.562   4.258  14.484  0.2599  0.5185 -0.8664
  183DOPC   H8R22477   5.580   4.344  14.552 -0.2207 -0.1760  0.1689
  183DOPC   H8S22478   5.667   4.222  14.478  0.8618  1.8143  0.9599
  183DOPC   C2922479   5.481   4.152  14.553  0.4139 -0.4970 -0.6227
  183DOPC   H9R22480   5.517   4.050  14.535 -0.6783 -1.0628  0.2708
  183DOPC  C21022481   5.366   4.176  14.627  0.4930  0.3959 -0.2217
  183DOPC  H10R22482   5.307   4.094  14.670 -0.4096  0.5704 -1.0916
  183DOPC  C21122483   5.295   4.307  14.636 -0.0290 -0.4263 -0.0139
  183DOPC  H11R22484   5.187   4.287  14.619 -0.2606  0.2324  0.6081
  183DOPC  H11S22485   5.323   4.367  14.547 -0.1367 -0.9282 -0.3886
  183DOPC  C21222486   5.319   4.398  14.759  0.1506 -1.0604 -0.7549
  183DOPC  H12R22487   5.417   4.446  14.779  0.5723 -1.7593 -1.1172
  183DOPC  H12S22488   5.308   4.334  14.849  0.1315 -0.2813 -0.1939
  183DOPC  C21322489   5.216   4.513  14.768  0.0073  0.4274  0.2996
  183DOPC  H13R22490   5.120   4.460  14.747 -0.8160  1.8451  0.3577
  183DOPC  H13S22491   5.239   4.589  14.691  0.6103 -0.3227 -0.2837
  183DOPC  C21422492   5.207   4.577  14.905 -0.5885  0.3787 -0.1898
  183DOPC  H14R22493   5.163   4.679  14.904 -0.6797  0.3484  0.3483
  183DOPC  H14S22494   5.310   4.603  14.938 -0.6836 -3.0130  3.6213
  183DOPC  C21522495   5.151   4.484  15.018 -0.5186  0.9447 -0.5849
  183DOPC  H15R22496   5.215   4.393  15.022  0.7364  1.7450 -1.4760
  183DOPC  H15S22497   5.045   4.458  14.999 -0.4394  0.8182 -0.8528
  183DOPC  C21622498   5.168   4.546  15.159  0.1112 -0.0633  0.3306
  183DOPC  H16R22499   5.112   4.641  15.164  1.2576  0.6680 -0.2910
  183DOPC  H16S22500   5.273   4.578  15.178 -0.1985  2.7510 -2.0193
  183DOPC  C21722501   5.113   4.460  15.271  0.0954  0.3549  0.7279
  183DOPC  H17R22502   5.019   4.413  15.234  1.6206 -0.8140 -1.8540
  183DOPC  H17S22503   5.091   4.514  15.366 -2.0945  1.9375 -0.5807
  183DOPC  C21822504   5.210   4.346  15.320  0.8242 -0.5093  0.3098
  183DOPC  H18R22505   5.282   4.382  15.397 -1.1779  1.2215  1.4957
  183DOPC  H18S22506   5.259   4.296  15.235  0.6102  0.4096 -0.3679
  183DOPC  H18T22507   5.149   4.265  15.365  1.5884 -1.2025  0.0986
  183DOPC   C3322508   6.296   4.478  14.288 -0.4542 -0.1554  0.6146
  183DOPC   H3X22509   6.347   4.380  14.298  0.0366 -0.2145 -1.7866
  183DOPC   H3Y22510   6.260   4.514  14.387  2.2074  0.8361  1.3136
  183DOPC   C3422511   6.396   4.585  14.252 -0.0597 -1.0359  0.2268
  183DOPC   H4X22512   6.344   4.674  14.209  0.9888 -1.1958 -1.4305
  183DOPC   H4Y22513   6.462   4.542  14.175 -2.3482 -1.4727 -1.6004
  183DOPC   C3522514   6.495   4.650  14.348  0.4272  1.1020  0.0575
  183DOPC   H5X22515   6.561   4.571  14.390 -0.0569  1.0379  0.7240
  183DOPC   H5Y22516   6.433   4.698  14.426 -0.0626  0.4780  0.0571
  183DOPC   C3622517   6.585   4.761  14.288  0.7683  0.3527  0.7640
  183DOPC   H6X22518   6.644   4.726  14.201  1.5995 -0.2071  1.5369
  183DOPC   H6Y22519   6.523   4.833  14.230  2.2458  0.3643 -0.8993
  183DOPC   C3722520   6.676   4.844  14.372 -0.3989 -0.2759  0.6152
  183DOPC   H7X22521   6.691   4.943  14.325 -2.4686 -0.3198 -0.2230
  183DOPC   H7Y22522   6.617   4.862  14.464  2.8854 -0.6057  2.9856
  183DOPC   C3822523   6.808   4.776  14.423 -1.0074  0.6771  0.1380
  183DOPC   H8X22524   6.790   4.667  14.420 -0.4129  0.5991 -0.9011
  183DOPC   H8Y22525   6.831   4.816  14.524  1.6903  0.5164 -0.3490
  183DOPC   C3922526   6.918   4.806  14.324 -0.3921  0.4468  0.3897
  183DOPC   H9X22527   6.891   4.809  14.217  0.6473 -0.7578  0.0806
  183DOPC  C31022528   7.036   4.854  14.345  0.5238 -0.1258 -0.1183
  183DOPC  H10X22529   7.096   4.897  14.264  0.3810  1.1784  0.4354
  183DOPC  C31122530   7.094   4.889  14.485  0.0578 -0.1131  1.1617
  183DOPC  H11X22531   7.184   4.825  14.502 -0.3316 -0.7971  0.7108
  183DOPC  H11Y22532   7.025   4.872  14.570 -1.5191  1.2672  0.2148
  183DOPC  C31222533   7.145   5.036  14.489  0.4347 -0.1395 -0.2876
  183DOPC  H12X22534   7.058   5.105  14.480  1.1174  0.6973 -0.7429
  183DOPC  H12Y22535   7.212   5.060  14.403  3.1111  1.6688  2.1289
  183DOPC  C31322536   7.223   5.073  14.616 -0.7128  0.1830 -1.0137
  183DOPC  H13X22537   7.187   5.012  14.701  1.6463  3.5787  2.7632
  183DOPC  H13Y22538   7.321   5.023  14.595 -0.6310  0.7019 -1.9177
  183DOPC  C31422539   7.222   5.214  14.655  0.7016  0.2715  0.6906
  183DOPC  H14X22540   7.282   5.264  14.576  0.7201  2.1260  1.8209
  183DOPC  H14Y22541   7.115   5.244  14.651 -0.0941 -2.2257 -4.4063
  183DOPC  C31522542   7.282   5.249  14.789 -0.1375  0.3597  0.5369
  183DOPC  H15X22543   7.392   5.252  14.782 -0.1115 -1.6856 -0.6652
  183DOPC  H15Y22544   7.253   5.177  14.869 -1.3553 -0.2788 -0.4353
  183DOPC  C31622545   7.234   5.385  14.835  0.3406  0.4677  0.1025
  183DOPC  H16X22546   7.276   5.464  14.769  1.8885  1.6089  2.3022
  183DOPC  H16Y22547   7.124   5.388  14.849  0.2344 -2.6928  0.6486
  183DOPC  C31722548   7.294   5.405  14.974  0.1359  0.4247 -0.8891
  183DOPC  H17X22549   7.246   5.327  15.039 -0.4402  0.6438 -1.0412
  183DOPC  H17Y22550   7.398   5.372  14.953  0.0435 -0.5944  0.1253
  183DOPC  C31822551   7.285   5.552  15.024 -0.3713 -0.8977  0.3829
  183DOPC  H18X22552   7.184   5.595  15.006 -1.3940 -2.4473  1.9622
  183DOPC  H18Y22553   7.316   5.569  15.130  2.1312 -2.0279 -0.0913
  183DOPC  H18Z22554   7.362   5.604  14.964 -0.8476  0.1990  0.7053
  184DOPC     N22555   5.912   0.112  12.441  0.1393 -0.1722 -0.7234
  184DOPC   C1222556   5.782   0.035  12.474 -0.0305  0.0253  0.4760
  184DOPC  H12A22557   5.719   0.020  12.387 -0.2248  1.5671  0.3244
  184DOPC  H12B22558   5.730   0.104  12.539 -0.4891  0.4820 -0.3665
  184DOPC   C1322559   5.989   0.023  12.353  0.0692  0.1358  0.3833
  184DOPC  H13A22560   6.029  -0.065  12.401  3.1349 -0.1638 -2.3933
  184DOPC  H13B22561   5.921  -0.004  12.273  1.6951 -3.0986 -0.0596
  184DOPC  H13C22562   6.067   0.087  12.315  0.2822  0.1082  0.7679
  184DOPC   C1422563   5.996   0.147  12.562 -0.0639  0.0876  0.8485
  184DOPC  H14A22564   5.948   0.212  12.634  1.1138 -1.4362  3.1056
  184DOPC  H14B22565   6.020   0.051  12.604 -1.8853 -1.9851 -2.3805
  184DOPC  H14C22566   6.090   0.192  12.532 -0.2731  0.4807  0.7701
  184DOPC   C1522567   5.879   0.238  12.371  0.2323  0.5228  0.4497
  184DOPC  H15A22568   5.814   0.292  12.438 -3.1542 -1.7639 -0.7260
  184DOPC  H15B22569   5.814   0.219  12.287  0.5935  0.9586  0.0641
  184DOPC  H15C22570   5.967   0.294  12.343 -0.0123 -0.2087 -2.0324
  184DOPC   C1122571   5.798  -0.105  12.544 -0.0907 -0.0926 -0.7137
  184DOPC  H11A22572   5.705  -0.165  12.533 -2.2808  2.9638 -0.4313
  184DOPC  H11B22573   5.875  -0.166  12.492  0.7936 -1.2458  1.7676
  184DOPC     P22574   5.723  -0.044  12.768  0.4132  0.2314 -0.3225
  184DOPC   O1322575   5.612  -0.149  12.753  0.2506  0.2329 -0.7275
  184DOPC   O1422576   5.680   0.099  12.741  0.3359 -0.4908 -0.0375
  184DOPC   O1222577   5.844  -0.091  12.677  0.0794  0.1180  0.2534
  184DOPC   O1122578   5.777  -0.056  12.913 -0.1958  0.3647 -0.0908
  184DOPC    C122579   5.897   0.014  12.955 -0.1175 -0.1253  0.8405
  184DOPC    HA22580   5.914   0.101  12.888 -4.3599  0.2778  0.0132
  184DOPC    HB22581   5.984  -0.053  12.939  0.0949  0.2615  0.3464
  184DOPC    C222582   5.891   0.062  13.105 -0.0362 -0.3578 -0.3783
  184DOPC    HS22583   5.985   0.108  13.139  0.5430 -2.2471  0.7418
  184DOPC   O2122584   5.859  -0.059  13.181 -0.2297 -0.1757  0.4806
  184DOPC   C2122585   5.972  -0.125  13.209  0.7475 -0.2021  0.3716
  184DOPC   O2222586   6.083  -0.091  13.175 -0.7258 -0.3956 -0.0240
  184DOPC   C2222587   5.944  -0.260  13.279 -0.1604  0.5525  0.3299
  184DOPC   H2R22588   5.983  -0.339  13.210  1.8630 -0.6710  2.7165
  184DOPC   H2S22589   5.834  -0.276  13.286  0.0668 -0.8855  1.1554
  184DOPC    C322590   5.778   0.164  13.129  0.3426 -0.1486  0.4455
  184DOPC    HX22591   5.684   0.117  13.093  0.1108  1.0841 -0.6418
  184DOPC    HY22592   5.800   0.249  13.062  0.3581 -1.6514 -1.5550
  184DOPC   O3122593   5.767   0.199  13.264  0.0497 -0.2862  0.0463
  184DOPC   C3122594   5.679   0.295  13.290  0.1155 -0.2004 -0.3497
  184DOPC   O3222595   5.618   0.370  13.217  0.5038 -0.4512  0.2992
  184DOPC   C3222596   5.669   0.305  13.443 -0.1350 -0.6006  0.3626
  184DOPC   H2X22597   5.747   0.372  13.486 -1.5419  1.0324  0.4745
  184DOPC   H2Y22598   5.576   0.356  13.475  0.8812  1.2899  0.4652
  184DOPC   C2322599   6.004  -0.280  13.420  0.2828  0.3968 -0.1133
  184DOPC   H3R22600   6.113  -0.273  13.400  0.2566  0.3228 -0.2823
  184DOPC   H3S22601   5.981  -0.378  13.467  4.0397 -0.4664  0.2664
  184DOPC   C2422602   5.956  -0.180  13.529  0.6667 -0.7499  0.3158
  184DOPC   H4R22603   5.845  -0.180  13.542  0.3900  2.7316 -0.8510
  184DOPC   H4S22604   5.985  -0.077  13.500  2.9184 -0.8410  1.9940
  184DOPC   C2522605   6.015  -0.205  13.668 -0.2595 -0.1494 -0.1605
  184DOPC   H5R22606   6.116  -0.161  13.658 -1.1795  2.3161  0.6640
  184DOPC   H5S22607   6.016  -0.315  13.677 -1.1388 -0.2250 -0.8654
  184DOPC   C2622608   5.929  -0.155  13.793 -0.0585 -0.4648  0.7194
  184DOPC   H6R22609   5.828  -0.201  13.798  0.6042 -1.9196  4.5439
  184DOPC   H6S22610   5.922  -0.044  13.784 -1.4347 -0.7078 -2.5778
  184DOPC   C2722611   6.000  -0.162  13.927 -0.2966  0.1860 -0.6244
  184DOPC   H7R22612   6.106  -0.135  13.910 -0.4324  0.1821 -1.5121
  184DOPC   H7S22613   5.987  -0.269  13.955  1.2805  0.3004  0.6727
  184DOPC   C2822614   5.919  -0.085  14.036  0.2126 -0.7694 -0.3614
  184DOPC   H8R22615   5.884   0.009  13.989 -0.6508 -1.8738 -2.0303
  184DOPC   H8S22616   5.979  -0.069  14.128 -1.5372 -0.2145  0.7131
  184DOPC   C2922617   5.789  -0.150  14.079 -0.0988  0.0626 -0.0681
  184DOPC   H9R22618   5.763  -0.223  14.001  0.8034  0.0773 -0.3979
  184DOPC  C21022619   5.742  -0.162  14.199  0.0318  0.3048  0.3479
  184DOPC  H10R22620   5.662  -0.235  14.216 -1.4439  2.0817  1.5069
  184DOPC  C21122621   5.784  -0.103  14.331 -0.2593  0.1918 -0.4633
  184DOPC  H11R22622   5.885  -0.057  14.324 -0.1368  0.0167  0.0818
  184DOPC  H11S22623   5.789  -0.190  14.400 -0.1332  0.2685 -0.3731
  184DOPC  C21222624   5.665  -0.009  14.382  0.5689 -0.0015 -0.0006
  184DOPC  H12R22625   5.570  -0.067  14.392 -0.0711  1.2144  1.3123
  184DOPC  H12S22626   5.662   0.073  14.307 -1.0738  1.6445  1.7552
  184DOPC  C21322627   5.706   0.064  14.510  0.2379 -0.1314  0.8888
  184DOPC  H13R22628   5.743   0.166  14.486 -1.4361  0.8043  2.1034
  184DOPC  H13S22629   5.787   0.008  14.561  0.6139 -3.0144 -2.4353
  184DOPC  C21422630   5.588   0.091  14.600  0.0378  0.9047  0.5477
  184DOPC  H14R22631   5.526  -0.000  14.618  1.7102 -0.3812  0.0119
  184DOPC  H14S22632   5.526   0.171  14.554 -1.7535 -0.2161  0.9234
  184DOPC  C21522633   5.626   0.131  14.735 -0.0241 -0.7539 -0.2770
  184DOPC  H15R22634   5.685   0.054  14.789  0.2739 -1.3473 -1.4191
  184DOPC  H15S22635   5.537   0.157  14.796  1.4303 -1.3460  2.2577
  184DOPC  C21622636   5.698   0.268  14.726  0.1171  0.2037  0.4617
  184DOPC  H16R22637   5.630   0.330  14.665  0.4300 -0.4651 -0.6026
  184DOPC  H16S22638   5.794   0.256  14.672  0.0654 -2.2340  0.7633
  184DOPC  C21722639   5.731   0.357  14.853  0.3745  0.0807  0.1827
  184DOPC  H17R22640   5.786   0.442  14.808  2.4025 -1.2207  0.0588
  184DOPC  H17S22641   5.797   0.294  14.917 -0.1377 -0.0476  0.5950
  184DOPC  C21822642   5.605   0.395  14.933  0.0070 -0.4559 -0.1702
  184DOPC  H18R22643   5.550   0.311  14.981 -0.2765  0.7709  1.7708
  184DOPC  H18S22644   5.532   0.426  14.856 -0.5207 -0.9191  0.1406
  184DOPC  H18T22645   5.634   0.475  15.005  0.7256 -0.2788 -0.6507
  184DOPC   C3322646   5.684   0.175  13.523  0.0421 -0.3174  0.6175
  184DOPC   H3X22647   5.774   0.125  13.481  1.7226  0.1443  3.4165
  184DOPC   H3Y22648   5.606   0.099  13.504 -0.4689  0.4254 -0.3262
  184DOPC   C3422649   5.707   0.197  13.678 -0.1787 -0.6723 -0.1343
  184DOPC   H4X22650   5.788   0.268  13.708 -0.6243 -0.7311  1.2703
  184DOPC   H4Y22651   5.727   0.092  13.708 -1.2638 -0.4464  1.4796
  184DOPC   C3522652   5.586   0.247  13.757  0.6760 -0.0595  0.2507
  184DOPC   H5X22653   5.499   0.186  13.727 -1.1395  1.4759  2.0667
  184DOPC   H5Y22654   5.558   0.348  13.721 -1.7104 -0.5077  0.6940
  184DOPC   C3622655   5.608   0.243  13.909  0.6494 -0.1292  0.8055
  184DOPC   H6X22656   5.607   0.138  13.946  2.2265  0.5602  3.0268
  184DOPC   H6Y22657   5.700   0.290  13.948  0.1034 -0.1110  2.1383
  184DOPC   C3722658   5.500   0.319  13.982  0.6987  0.0021 -0.9680
  184DOPC   H7X22659   5.488   0.425  13.950 -1.8846 -0.0293 -0.2638
  184DOPC   H7Y22660   5.402   0.277  13.952 -0.5265  0.4322  2.0596
  184DOPC   C3822661   5.533   0.325  14.134  0.3890  0.3908  0.4275
  184DOPC   H8X22662   5.622   0.391  14.139 -0.4548  1.6074 -0.1226
  184DOPC   H8Y22663   5.571   0.223  14.159 -0.9386 -0.2719 -0.1051
  184DOPC   C3922664   5.426   0.380  14.220  0.4522 -0.0093  0.4928
  184DOPC   H9X22665   5.367   0.304  14.273  0.1714  0.3171  0.6460
  184DOPC  C31022666   5.405   0.511  14.255 -0.6817  0.1126  0.2439
  184DOPC  H10X22667   5.340   0.539  14.338  1.9895  1.1415  2.1245
  184DOPC  C31122668   5.484   0.635  14.212  0.5521 -0.2979  0.3303
  184DOPC  H11X22669   5.415   0.717  14.181 -0.4263 -1.3928 -0.4863
  184DOPC  H11Y22670   5.552   0.609  14.128  0.6274 -0.0384  0.3117
  184DOPC  C31222671   5.574   0.692  14.329 -0.1595 -0.6260  0.0928
  184DOPC  H12X22672   5.619   0.786  14.290 -2.9864  0.3697 -1.0493
  184DOPC  H12Y22673   5.658   0.621  14.342 -0.6825 -0.9375  2.0509
  184DOPC  C31322674   5.514   0.721  14.461 -0.1291  0.0743 -0.3016
  184DOPC  H13X22675   5.409   0.758  14.458  0.3160  1.3347 -3.1087
  184DOPC  H13Y22676   5.509   0.628  14.522 -0.8443  0.1280 -0.2716
  184DOPC  C31422677   5.609   0.806  14.551  0.0257  1.0832  0.6543
  184DOPC  H14X22678   5.711   0.800  14.508 -0.2707 -0.9335  0.1450
  184DOPC  H14Y22679   5.571   0.910  14.556 -1.3496  0.8778 -2.9421
  184DOPC  C31522680   5.617   0.746  14.690  1.3639 -0.0323 -0.1825
  184DOPC  H15X22681   5.645   0.639  14.682 -0.8076 -0.7188  0.6275
  184DOPC  H15Y22682   5.516   0.761  14.734  1.0369 -2.0135 -0.1397
  184DOPC  C31622683   5.722   0.800  14.780  0.0040 -0.4949  0.2449
  184DOPC  H16X22684   5.818   0.771  14.732 -0.6091 -1.6252 -0.3324
  184DOPC  H16Y22685   5.717   0.911  14.792 -0.9702 -0.4244 -0.6595
  184DOPC  C31722686   5.704   0.742  14.918  0.1469  0.4831 -0.7883
  184DOPC  H17X22687   5.625   0.665  14.903 -1.2868  0.8194  3.4590
  184DOPC  H17Y22688   5.798   0.692  14.949  0.6287  0.4045 -2.3135
  184DOPC  C31822689   5.666   0.832  15.036 -0.1033 -0.4324 -0.4288
  184DOPC  H18X22690   5.759   0.880  15.074 -1.3257  0.5084  1.4965
  184DOPC  H18Y22691   5.590   0.908  15.009 -1.2581 -2.1320 -2.2625
  184DOPC  H18Z22692   5.630   0.770  15.120 -2.4458  0.0313 -1.0159
  185DOPC     N22693   6.283   4.700  12.622 -0.2043 -0.4949 -1.0337
  185DOPC   C1222694   6.198   4.664  12.747  0.4684 -0.6785 -0.0478
  185DOPC  H12A22695   6.267   4.660  12.830 -0.7938  0.5999  1.1182
  185DOPC  H12B22696   6.149   4.570  12.728 -0.1189 -0.0373 -2.0007
  185DOPC   C1322697   6.188   4.738  12.511  0.0590 -0.4303  0.6914
  185DOPC  H13A22698   6.245   4.762  12.423 -0.7815 -0.6858  0.0703
  185DOPC  H13B22699   6.121   4.657  12.488 -3.3563  2.6319 -1.2325
  185DOPC  H13C22700   6.131   4.823  12.546  0.6586  0.2486  0.0589
  185DOPC   C1422701   6.355   4.579  12.582 -0.6732  0.1425  0.2114
  185DOPC  H14A22702   6.419   4.605  12.499  0.5946 -1.6205  0.5752
  185DOPC  H14B22703   6.419   4.541  12.660 -0.2847 -0.6088 -0.4559
  185DOPC  H14C22704   6.283   4.501  12.561 -1.4309  0.6792  0.7661
  185DOPC   C1522705   6.381   4.812  12.634  0.4335  0.0273 -0.0361
  185DOPC  H15A22706   6.464   4.774  12.693  0.0014  1.7102  1.7811
  185DOPC  H15B22707   6.342   4.898  12.687  0.3871 -0.2080  0.3202
  185DOPC  H15C22708   6.413   4.838  12.534 -0.1013 -0.3209 -0.2993
  185DOPC   C1122709   6.074   4.751  12.797 -0.3542 -0.0696 -0.6638
  185DOPC  H11A22710   5.999   4.763  12.715 -0.6820  0.3872 -0.3009
  185DOPC  H11B22711   6.021   4.695  12.877 -1.1256  2.3538  0.6131
  185DOPC     P22712   6.215   4.888  12.968  0.0395  0.2637  0.1443
  185DOPC   O1322713   6.353   4.905  12.915 -0.2830 -0.3279 -0.4654
  185DOPC   O1422714   6.207   4.770  13.059  0.3233  0.0730  0.7610
  185DOPC   O1222715   6.110   4.877  12.846 -0.0306 -0.3585  0.7583
  185DOPC   O1122716   6.166   5.014  13.036  0.7159 -0.4269 -0.6458
  185DOPC    C122717   6.033   5.045  13.085  0.7832 -0.5358 -0.3042
  185DOPC    HA22718   5.959   4.976  13.039  0.1891  0.0678 -0.2641
  185DOPC    HB22719   6.003   5.148  13.056  0.4126 -1.3737 -3.2342
  185DOPC    C222720   6.019   5.044  13.243  0.3625 -0.4370 -0.8989
  185DOPC    HS22721   5.923   5.096  13.263 -0.6349 -2.8310  1.0137
  185DOPC   O2122722   6.136   5.104  13.304  0.1152 -0.1578  0.0921
  185DOPC   C2122723   6.122   5.240  13.294 -0.2229 -0.5169  0.6966
  185DOPC   O2222724   6.027   5.297  13.250  0.2809 -0.3609 -0.2627
  185DOPC   C2222725   6.248   5.303  13.360  0.2244 -0.1699  0.1507
  185DOPC   H2R22726   6.285   5.391  13.303 -1.3482  0.5995  0.2682
  185DOPC   H2S22727   6.335   5.236  13.376  0.4371  0.0049 -0.2582
  185DOPC    C322728   6.009   4.899  13.296  0.0333 -0.0752  0.0481
  185DOPC    HX22729   6.115   4.865  13.291  0.2545  0.6843 -0.5265
  185DOPC    HY22730   5.953   4.836  13.224  0.3124 -1.1199  0.7231
  185DOPC   O3122731   5.952   4.896  13.424 -0.0952 -0.0006 -0.1607
  185DOPC   C3122732   6.017   4.855  13.527 -0.6856 -0.0132 -0.3627
  185DOPC   O3222733   6.129   4.806  13.523  0.0653  0.4829  0.0923
  185DOPC   C3222734   5.931   4.875  13.645  0.6350 -0.4543  0.3104
  185DOPC   H2X22735   5.927   4.984  13.666  2.5592 -0.3906  0.4795
  185DOPC   H2Y22736   5.837   4.820  13.622 -0.2446  0.8108  0.7831
  185DOPC   C2322737   6.214   5.353  13.501 -0.7649  0.0851 -0.5974
  185DOPC   H3R22738   6.105   5.372  13.511 -0.7581 -0.5170  0.7674
  185DOPC   H3S22739   6.277   5.441  13.525  0.7629 -1.2621  0.4842
  185DOPC   C2422740   6.239   5.238  13.609  0.0630  0.2675  0.4394
  185DOPC   H4R22741   6.344   5.252  13.643 -0.7157  0.5784  2.9020
  185DOPC   H4S22742   6.228   5.139  13.562 -2.3473  0.6762  0.0015
  185DOPC   C2522743   6.152   5.253  13.732 -0.2115  0.3097  0.0478
  185DOPC   H5R22744   6.056   5.210  13.699 -0.7679  2.6185 -1.6416
  185DOPC   H5S22745   6.139   5.361  13.757 -1.1821 -0.1250  1.4883
  185DOPC   C2622746   6.208   5.188  13.856  0.2591 -0.2837 -0.4185
  185DOPC   H6R22747   6.274   5.259  13.911  0.5192  0.4624 -1.6449
  185DOPC   H6S22748   6.267   5.099  13.827 -0.8736 -0.5271 -2.1016
  185DOPC   C2722749   6.100   5.146  13.958 -0.5979  0.2022  0.5067
  185DOPC   H7R22750   6.066   5.048  13.918  0.0215  0.5169 -0.8223
  185DOPC   H7S22751   6.022   5.225  13.954 -0.6654  0.0729 -1.0288
  185DOPC   C2822752   6.147   5.135  14.103  0.5283  0.0334 -0.8490
  185DOPC   H8R22753   6.053   5.133  14.162  0.8411  0.8062 -0.3217
  185DOPC   H8S22754   6.199   5.226  14.137  0.1085 -0.6171  1.7632
  185DOPC   C2922755   6.245   5.024  14.124  0.1551  0.8607  0.4153
  185DOPC   H9R22756   6.301   4.992  14.035  0.4668 -1.0854  1.2724
  185DOPC  C21022757   6.253   4.958  14.241  0.5874  0.2258 -0.4657
  185DOPC  H10R22758   6.327   4.878  14.254 -1.0220 -1.0196  1.7611
  185DOPC  C21122759   6.172   4.994  14.366 -0.6965  0.0060 -0.0350
  185DOPC  H11R22760   6.070   4.952  14.351 -0.1151 -2.1765  1.5162
  185DOPC  H11S22761   6.173   5.104  14.375  1.8186  0.1814 -1.5915
  185DOPC  C21222762   6.240   4.948  14.497  0.3877 -0.3138  0.6518
  185DOPC  H12R22763   6.343   4.989  14.490  0.0565  0.3128 -1.5681
  185DOPC  H12S22764   6.251   4.838  14.512 -0.2554 -0.3806  0.6811
  185DOPC  C21322765   6.171   5.008  14.618  0.8930  0.4905  0.7634
  185DOPC  H13R22766   6.080   4.944  14.624  2.1141 -1.2419  1.8753
  185DOPC  H13S22767   6.135   5.112  14.604  1.0441  0.2686 -1.6717
  185DOPC  C21422768   6.236   4.993  14.756 -0.9846 -0.3821 -0.7160
  185DOPC  H14R22769   6.303   5.081  14.768 -0.6532 -0.6803 -0.3473
  185DOPC  H14S22770   6.291   4.898  14.774 -1.0532 -0.2116  0.4936
  185DOPC  C21522771   6.129   5.011  14.867 -0.2567  0.2274 -0.2821
  185DOPC  H15R22772   6.056   4.927  14.858 -0.4954  0.0285  2.4434
  185DOPC  H15S22773   6.072   5.105  14.849 -2.7219 -1.3034 -1.0088
  185DOPC  C21622774   6.191   5.025  15.006 -0.0976 -0.1142  0.3021
  185DOPC  H16R22775   6.215   5.132  15.024 -0.8722  0.1760 -0.3256
  185DOPC  H16S22776   6.287   4.970  14.994 -0.2988  0.0270 -3.2118
  185DOPC  C21722777   6.107   4.970  15.120  0.2271 -0.4218 -0.2509
  185DOPC  H17R22778   6.068   4.871  15.091 -0.2267 -0.8418  1.6599
  185DOPC  H17S22779   6.020   5.033  15.148 -0.7562 -1.2564 -1.3508
  185DOPC  C21822780   6.188   4.930  15.251  0.0487 -0.9017  0.3009
  185DOPC  H18R22781   6.246   5.010  15.303 -0.3162 -0.1496 -0.4296
  185DOPC  H18S22782   6.271   4.867  15.213  1.1770  1.1261 -0.7559
  185DOPC  H18T22783   6.114   4.869  15.307 -2.2605 -0.5091 -2.1403
  185DOPC   C3322784   5.990   4.812  13.776 -0.2297  0.5542  0.7532
  185DOPC   H3X22785   6.091   4.850  13.804  0.7952 -1.1457 -0.4317
  185DOPC   H3Y22786   6.003   4.705  13.749 -0.5181  1.3701 -3.3164
  185DOPC   C3422787   5.901   4.825  13.897 -0.1206  0.2669 -0.5259
  185DOPC   H4X22788   5.804   4.776  13.873  0.2129 -0.1407 -1.0673
  185DOPC   H4Y22789   5.885   4.933  13.918 -0.2574  0.0956  0.2572
  185DOPC   C3522790   5.951   4.763  14.029  0.1505  0.1482  0.1275
  185DOPC   H5X22791   6.036   4.825  14.065 -0.3479  0.8292  0.1458
  185DOPC   H5Y22792   5.991   4.665  13.996 -1.3299 -1.0337  1.6801
  185DOPC   C3622793   5.844   4.758  14.145 -0.1161  0.5850 -0.1175
  185DOPC   H6X22794   5.824   4.865  14.168 -2.1768  0.3727 -0.7367
  185DOPC   H6Y22795   5.756   4.713  14.095 -0.5082 -0.3339  1.3222
  185DOPC   C3722796   5.874   4.683  14.272  0.3952  0.0170  0.0431
  185DOPC   H7X22797   5.854   4.575  14.256  1.3157  0.0170 -1.2341
  185DOPC   H7Y22798   5.982   4.697  14.297  0.0267 -0.8578  2.3461
  185DOPC   C3822799   5.784   4.717  14.390  0.0061 -0.3976 -0.4975
  185DOPC   H8X22800   5.683   4.673  14.371 -1.1072  1.3983  0.8987
  185DOPC   H8Y22801   5.784   4.827  14.403  1.1330 -0.2173 -1.7855
  185DOPC   C3922802   5.836   4.658  14.519  0.6856  0.6467 -0.0735
  185DOPC   H9X22803   5.896   4.567  14.505 -1.2991 -0.5430 -1.4451
  185DOPC  C31022804   5.827   4.717  14.639  0.0830  0.0118 -0.1421
  185DOPC  H10X22805   5.865   4.654  14.722 -1.8342 -3.3441 -1.6098
  185DOPC  C31122806   5.747   4.847  14.672  0.0642  0.0770  1.0701
  185DOPC  H11X22807   5.657   4.846  14.607  1.1800 -0.8412 -0.5220
  185DOPC  H11Y22808   5.808   4.936  14.643  0.9438 -0.5095  1.0910
  185DOPC  C31222809   5.697   4.860  14.817 -0.9858  0.1698 -0.4802
  185DOPC  H12X22810   5.652   4.955  14.851 -0.2870  0.0708  0.7856
  185DOPC  H12Y22811   5.784   4.845  14.885 -1.5850 -0.9232  0.0765
  185DOPC  C31322812   5.594   4.755  14.865  0.5797 -0.1342  0.0010
  185DOPC  H13X22813   5.499   4.802  14.897  0.6635 -0.3241  0.5530
  185DOPC  H13Y22814   5.575   4.682  14.784  0.8369  1.8812 -1.9688
  185DOPC  C31422815   5.624   4.677  14.994 -0.5998  0.0109  0.0430
  185DOPC  H14X22816   5.669   4.746  15.069  0.1375  0.2972 -0.6440
  185DOPC  H14Y22817   5.531   4.624  15.025  0.4405 -1.7035  0.3703
  185DOPC  C31522818   5.720   4.559  14.977 -0.1831  0.3468  0.3268
  185DOPC  H15X22819   5.822   4.598  14.955  0.3881 -0.0099  2.2087
  185DOPC  H15Y22820   5.687   4.490  14.896 -0.3847 -1.9648  2.2873
  185DOPC  C31622821   5.736   4.467  15.101 -0.1193 -0.4107  0.4572
  185DOPC  H16X22822   5.814   4.391  15.081 -1.0703 -1.0699 -0.8795
  185DOPC  H16Y22823   5.766   4.530  15.187 -2.1782  0.9188  0.2834
  185DOPC  C31722824   5.611   4.385  15.141  0.1142  0.1531 -0.3441
  185DOPC  H17X22825   5.634   4.341  15.240  0.6208  2.0668  0.4230
  185DOPC  H17Y22826   5.529   4.453  15.173  0.2058 -0.0719  0.3747
  185DOPC  C31822827   5.563   4.276  15.048 -0.1831 -0.2091  0.1145
  185DOPC  H18X22828   5.475   4.224  15.093 -0.0251 -0.2850  0.3382
  185DOPC  H18Y22829   5.524   4.315  14.952  0.6533 -1.5696 -0.8130
  185DOPC  H18Z22830   5.641   4.200  15.028 -0.1849 -0.0570 -0.4671
  186DOPC     N22831   0.608   2.751  12.466 -0.3222 -0.5524 -0.2126
  186DOPC   C1222832   0.466   2.798  12.446 -0.2697 -0.5014  0.0621
  186DOPC  H12A22833   0.405   2.710  12.431 -2.3145  1.0609 -1.2623
  186DOPC  H12B22834   0.461   2.847  12.351  1.4518  1.1585  0.7675
  186DOPC   C1322835   0.693   2.863  12.504 -0.5587  0.2479  0.5354
  186DOPC  H13A22836   0.794   2.826  12.508 -0.5302  0.2752  0.1643
  186DOPC  H13B22837   0.698   2.933  12.421  0.4042  0.3372  0.6595
  186DOPC  H13C22838   0.654   2.922  12.586 -2.2729  3.0856 -2.0716
  186DOPC   C1422839   0.648   2.678  12.344 -0.8969  0.0130 -0.1886
  186DOPC  H14A22840   0.753   2.661  12.328 -1.3897 -2.2816 -1.3516
  186DOPC  H14B22841   0.608   2.578  12.339 -0.0808 -0.2481 -2.3117
  186DOPC  H14C22842   0.626   2.733  12.254 -0.1095 -1.1110 -1.0985
  186DOPC   C1522843   0.612   2.647  12.577  0.0212 -0.3206 -0.5325
  186DOPC  H15A22844   0.714   2.618  12.594  0.0965 -1.5221 -2.7108
  186DOPC  H15B22845   0.561   2.556  12.549  1.0211 -1.8757  2.2580
  186DOPC  H15C22846   0.555   2.673  12.665 -0.4727  0.3329 -1.0341
  186DOPC   C1122847   0.397   2.880  12.557 -0.4700 -0.5637 -0.4375
  186DOPC  H11A22848   0.448   2.977  12.578 -1.8855  0.5307 -1.8656
  186DOPC  H11B22849   0.299   2.909  12.514  0.0933  0.4741 -1.0894
  186DOPC     P22850   0.347   2.886  12.814 -0.0166  0.3796  0.1275
  186DOPC   O1322851   0.238   2.985  12.794  0.3695 -0.1723 -0.0729
  186DOPC   O1422852   0.473   2.943  12.862 -0.5786 -0.4306  0.1957
  186DOPC   O1222853   0.381   2.803  12.677 -0.4290  0.0301 -0.7863
  186DOPC   O1122854   0.295   2.769  12.908 -0.4386  0.8367 -0.1133
  186DOPC    C122855   0.374   2.651  12.928  0.3861  0.0720 -0.2041
  186DOPC    HA22856   0.482   2.654  12.904  0.9644 -0.5576  2.0723
  186DOPC    HB22857   0.331   2.573  12.862 -1.9797  1.5150 -0.4824
  186DOPC    C222858   0.368   2.608  13.075 -0.3490 -0.2746 -0.0138
  186DOPC    HS22859   0.272   2.563  13.110 -1.2448  0.8677 -0.8913
  186DOPC   O2122860   0.401   2.727  13.161 -0.3904  0.6369  0.1144
  186DOPC   C2122861   0.346   2.728  13.282  0.0277  0.3747 -0.2862
  186DOPC   O2222862   0.279   2.637  13.328  0.2992  0.4655  0.2180
  186DOPC   C2222863   0.382   2.859  13.348  0.8806 -0.2666  0.2526
  186DOPC   H2R22864   0.309   2.870  13.431 -1.2561 -0.7894 -1.4632
  186DOPC   H2S22865   0.359   2.947  13.284  0.8327  0.0662  0.7191
  186DOPC    C322866   0.490   2.511  13.098  0.4245  0.3840  0.5792
  186DOPC    HX22867   0.583   2.552  13.054  0.6634 -2.4518 -1.8959
  186DOPC    HY22868   0.483   2.416  13.040  2.4421 -0.9132  2.3343
  186DOPC   O3122869   0.516   2.480  13.238 -0.0949 -0.2415  0.2194
  186DOPC   C3122870   0.477   2.366  13.287 -0.1924  0.1554  0.2665
  186DOPC   O3222871   0.419   2.278  13.222  0.0275 -0.6183  0.1991
  186DOPC   C3222872   0.500   2.370  13.439 -0.4270 -0.8937 -0.4215
  186DOPC   H2X22873   0.475   2.471  13.477 -0.1177 -0.5615 -1.0904
  186DOPC   H2Y22874   0.428   2.299  13.486 -0.7640 -0.4865 -0.3196
  186DOPC   C2322875   0.525   2.870  13.398  0.0516  0.4030  0.4211
  186DOPC   H3R22876   0.540   2.964  13.454 -2.0921 -0.8269  3.3220
  186DOPC   H3S22877   0.589   2.856  13.308  1.0380 -0.0556  1.1721
  186DOPC   C2422878   0.569   2.769  13.502  0.0292  0.2000  0.1937
  186DOPC   H4R22879   0.666   2.797  13.547  1.0364 -0.5433 -1.3942
  186DOPC   H4S22880   0.585   2.675  13.445  0.4628  0.8887 -0.8528
  186DOPC   C2522881   0.473   2.758  13.619 -0.1187  0.1545  0.0205
  186DOPC   H5R22882   0.384   2.696  13.592 -0.0752 -0.0270  0.2874
  186DOPC   H5S22883   0.450   2.860  13.654  1.4262  0.5060  0.0917
  186DOPC   C2622884   0.537   2.680  13.730 -0.9495  0.0616  0.5196
  186DOPC   H6R22885   0.632   2.730  13.761 -1.7125  1.4033  0.7657
  186DOPC   H6S22886   0.559   2.576  13.697 -0.5800 -0.4922  2.3564
  186DOPC   C2722887   0.452   2.671  13.854  0.3856  0.5564 -0.2076
  186DOPC   H7R22888   0.363   2.611  13.826 -0.4841  0.9370  1.5444
  186DOPC   H7S22889   0.406   2.772  13.866 -2.2120 -0.5352 -0.1353
  186DOPC   C2822890   0.511   2.630  13.994 -0.4596 -0.6852  0.4202
  186DOPC   H8R22891   0.581   2.545  13.976  0.0855 -0.0703 -0.4653
  186DOPC   H8S22892   0.434   2.603  14.069 -0.3183 -0.5994  0.5979
  186DOPC   C2922893   0.604   2.736  14.049 -0.2481 -0.0847 -0.0385
  186DOPC   H9R22894   0.667   2.792  13.978  0.6190 -2.1530 -0.9745
  186DOPC  C21022895   0.643   2.741  14.179 -0.3757 -0.0800  0.3881
  186DOPC  H10R22896   0.729   2.810  14.191  0.2256 -0.5234 -1.1090
  186DOPC  C21122897   0.591   2.653  14.291  0.0343 -0.1532 -0.7189
  186DOPC  H11R22898   0.523   2.574  14.255  0.3094 -0.7664  0.0613
  186DOPC  H11S22899   0.520   2.707  14.356  0.1222 -0.8482 -0.0324
  186DOPC  C21222900   0.702   2.587  14.373 -0.2179  0.2594  0.5339
  186DOPC  H12R22901   0.787   2.555  14.309  0.3662  1.0911  0.8769
  186DOPC  H12S22902   0.657   2.494  14.413  0.4618 -0.7471 -0.9417
  186DOPC  C21322903   0.743   2.685  14.484 -0.3502  0.5189  0.4235
  186DOPC  H13R22904   0.652   2.725  14.533 -1.0684 -0.2797 -0.2283
  186DOPC  H13S22905   0.791   2.774  14.438  1.0352 -0.6261 -0.4494
  186DOPC  C21422906   0.848   2.630  14.582 -0.0511  0.4628 -0.3208
  186DOPC  H14R22907   0.948   2.645  14.537 -0.2947 -0.4086 -1.1947
  186DOPC  H14S22908   0.838   2.519  14.571  1.3391  0.0957  1.6412
  186DOPC  C21522909   0.828   2.680  14.732  0.0353  0.7534 -0.0899
  186DOPC  H15R22910   0.891   2.615  14.797  0.5241  0.4744 -0.8318
  186DOPC  H15S22911   0.721   2.675  14.761  0.2933  2.2008  1.2190
  186DOPC  C21622912   0.874   2.827  14.744  0.2900  0.3420 -0.5319
  186DOPC  H16R22913   0.800   2.896  14.698 -0.7932  0.1964  0.9068
  186DOPC  H16S22914   0.975   2.848  14.703  1.2676  0.8649  1.9689
  186DOPC  C21722915   0.895   2.863  14.892 -0.0662 -0.1740 -0.1433
  186DOPC  H17R22916   0.949   2.774  14.929 -0.9745 -1.4024 -1.6562
  186DOPC  H17S22917   0.799   2.849  14.945  0.2710 -1.9840  0.0369
  186DOPC  C21822918   0.970   2.998  14.920  0.5286 -0.4054 -0.4575
  186DOPC  H18R22919   1.047   3.017  14.843 -0.6369 -0.3348 -1.6426
  186DOPC  H18S22920   1.012   2.989  15.023 -1.2455 -1.9141  0.1998
  186DOPC  H18T22921   0.906   3.089  14.922 -0.0677 -0.7798 -1.4993
  186DOPC   C3322922   0.653   2.338  13.484 -0.0418  1.2624  0.0050
  186DOPC   H3X22923   0.661   2.370  13.590  0.0339  0.0725  0.3730
  186DOPC   H3Y22924   0.724   2.400  13.425 -0.2052  0.1040 -1.4789
  186DOPC   C3422925   0.694   2.186  13.464 -0.5364 -0.0259 -0.3712
  186DOPC   H4X22926   0.804   2.177  13.478 -0.4787 -0.0504 -0.8370
  186DOPC   H4Y22927   0.667   2.157  13.360  1.5983 -2.0646 -0.4493
  186DOPC   C3522928   0.627   2.092  13.566 -0.1046 -0.3414  0.2723
  186DOPC   H5X22929   0.520   2.117  13.583  0.4324  1.0061  1.9060
  186DOPC   H5Y22930   0.676   2.105  13.665  1.1066 -0.3516 -0.3043
  186DOPC   C3622931   0.627   1.939  13.526 -0.5263  0.3212  0.2426
  186DOPC   H6X22932   0.581   1.877  13.606  2.6056 -2.9640 -0.2603
  186DOPC   H6Y22933   0.567   1.928  13.433 -1.1917  0.9291  0.5825
  186DOPC   C3722934   0.766   1.877  13.489  0.9178  0.2447 -0.0282
  186DOPC   H7X22935   0.739   1.772  13.462 -0.0578 -0.1911  2.3775
  186DOPC   H7Y22936   0.814   1.939  13.411  2.9968  1.9259  2.4015
  186DOPC   C3822937   0.856   1.868  13.616  0.1236  0.0527  0.5955
  186DOPC   H8X22938   0.807   1.800  13.688  0.1632 -1.2341 -0.5461
  186DOPC   H8Y22939   0.859   1.967  13.666 -2.3232  0.4059  0.1441
  186DOPC   C3922940   0.999   1.821  13.587  0.2576  0.9727 -0.0757
  186DOPC   H9X22941   1.057   1.881  13.515  1.2826  1.1453  0.8600
  186DOPC  C31022942   1.073   1.724  13.644 -0.1193  0.7254 -0.4299
  186DOPC  H10X22943   1.176   1.706  13.611 -0.0905 -2.1147  0.9163
  186DOPC  C31122944   1.051   1.640  13.771  0.8144 -0.8072  0.4575
  186DOPC  H11X22945   1.018   1.540  13.736  0.1484  0.4557 -2.8999
  186DOPC  H11Y22946   0.972   1.679  13.839  0.5115 -0.6599  0.0227
  186DOPC  C31222947   1.168   1.613  13.862  0.5720 -0.8959 -0.1722
  186DOPC  H12X22948   1.199   1.711  13.905  1.8407 -0.8017 -1.2526
  186DOPC  H12Y22949   1.244   1.589  13.785 -0.1219 -2.5051 -0.3887
  186DOPC  C31322950   1.148   1.508  13.971  0.3792  0.3175  0.3325
  186DOPC  H13X22951   1.059   1.548  14.025 -0.6590 -0.1214 -0.9874
  186DOPC  H13Y22952   1.131   1.408  13.927 -0.5109  1.0716 -1.1072
  186DOPC  C31422953   1.276   1.504  14.061  0.1348 -0.4123  0.1142
  186DOPC  H14X22954   1.358   1.453  14.006  0.2450  0.9896 -1.0691
  186DOPC  H14Y22955   1.324   1.603  14.073 -0.3527 -0.3763  2.2538
  186DOPC  C31522956   1.257   1.435  14.196  0.0451 -0.0626  0.1239
  186DOPC  H15X22957   1.168   1.473  14.250  0.3643 -1.5886  1.7873
  186DOPC  H15Y22958   1.343   1.441  14.266  0.6626  1.1945 -0.6776
  186DOPC  C31622959   1.213   1.283  14.172  0.1617  0.3015  0.8880
  186DOPC  H16X22960   1.109   1.291  14.133  0.5673  0.9818 -0.0830
  186DOPC  H16Y22961   1.273   1.248  14.086 -2.6675  0.7909 -1.4697
  186DOPC  C31722962   1.240   1.191  14.295  0.0022 -0.6623 -0.1506
  186DOPC  H17X22963   1.218   1.085  14.269 -2.9706  0.0277 -0.7342
  186DOPC  H17Y22964   1.350   1.203  14.312 -0.1700 -0.6194  1.0042
  186DOPC  C31822965   1.159   1.234  14.422  0.6741 -0.3164  0.8815
  186DOPC  H18X22966   1.179   1.164  14.505  2.4346  0.5708  1.2634
  186DOPC  H18Y22967   1.185   1.339  14.447  0.1656 -0.4614  2.0407
  186DOPC  H18Z22968   1.050   1.234  14.399  1.3236  3.1567 -3.9566
  187DOPC     N22969   6.811   0.130  12.367 -0.6821 -0.5675 -0.6811
  187DOPC   C1222970   6.836   0.186  12.504  0.2817 -0.0305 -0.2617
  187DOPC  H12A22971   6.770   0.271  12.512 -3.0379 -2.1231 -2.6780
  187DOPC  H12B22972   6.941   0.208  12.512 -0.1367  2.3754 -0.6689
  187DOPC   C1322973   6.933   0.046  12.334 -1.0219  0.4098  0.1357
  187DOPC  H13A22974   7.017   0.111  12.350  0.7035 -1.3378 -1.2820
  187DOPC  H13B22975   6.934  -0.037  12.403 -0.8978  2.1206  2.2925
  187DOPC  H13C22976   6.939   0.024  12.228  2.3095 -0.5517  0.4195
  187DOPC   C1422977   6.813   0.240  12.266  0.0674  0.1396 -0.0699
  187DOPC  H14A22978   6.911   0.274  12.237 -0.0852 -0.7361 -1.7223
  187DOPC  H14B22979   6.778   0.201  12.171  1.5067  1.6749 -1.2913
  187DOPC  H14C22980   6.747   0.322  12.290 -1.7840 -1.3493  0.1640
  187DOPC   C1522981   6.681   0.056  12.349  0.0092  0.4052  0.2350
  187DOPC  H15A22982   6.657  -0.022  12.421 -2.8489  2.9269  2.2962
  187DOPC  H15B22983   6.673   0.024  12.246 -1.6354 -1.6481  0.9121
  187DOPC  H15C22984   6.595   0.119  12.365 -0.9309 -1.1737  1.9631
  187DOPC   C1122985   6.811   0.086  12.625  0.1908  0.1232 -0.0741
  187DOPC  H11A22986   6.798   0.157  12.709  0.7992  1.6231 -1.2107
  187DOPC  H11B22987   6.726   0.016  12.607  0.5662 -0.1908 -0.6964
  187DOPC     P22988   7.065   0.058  12.694 -0.0545 -0.0645  0.0955
  187DOPC   O1322989   7.101   0.179  12.612  0.5448 -0.3761  0.0368
  187DOPC   O1422990   7.155  -0.061  12.697  0.6739  0.3653 -0.0216
  187DOPC   O1222991   6.924   0.004  12.650 -0.2241  0.4041 -0.1836
  187DOPC   O1122992   7.035   0.109  12.841 -0.3243 -0.3360  0.4831
  187DOPC    C122993   6.952   0.033  12.920 -0.2987  0.0404 -0.2297
  187DOPC    HA22994   7.003  -0.058  12.958  1.2971  0.6975 -0.6866
  187DOPC    HB22995   6.856   0.010  12.870  0.8554 -1.2923 -1.9661
  187DOPC    C222996   6.925   0.119  13.046  0.5405 -0.0441 -0.3047
  187DOPC    HS22997   6.887   0.219  13.015  1.3886  0.8352  1.3227
  187DOPC   O2122998   7.048   0.141  13.121  0.7022 -0.0788 -0.0136
  187DOPC   C2122999   7.043   0.241  13.208 -0.0774  0.5976  0.5805
  187DOPC   O2223000   6.946   0.316  13.225  0.2635 -0.4378 -0.2778
  187DOPC   C2223001   7.169   0.248  13.292  0.0597 -0.4714  0.2059
  187DOPC   H2R23002   7.159   0.331  13.365  1.0022 -0.3758  0.2380
  187DOPC   H2S23003   7.247   0.279  13.220  0.0447 -2.5837 -0.8087
  187DOPC    C323004   6.820   0.046  13.130  0.0639  0.2017  0.4778
  187DOPC    HX23005   6.767  -0.031  13.070 -0.2905  0.8509 -0.0545
  187DOPC    HY23006   6.742   0.121  13.156 -2.0077 -2.0546  1.2085
  187DOPC   O3123007   6.883   0.004  13.251  0.5812  0.3412 -0.0491
  187DOPC   C3123008   6.897  -0.126  13.255 -0.7253  0.4798 -0.3299
  187DOPC   O3223009   6.866  -0.204  13.166 -0.3629 -0.3242  0.6638
  187DOPC   C3223010   6.974  -0.168  13.380 -0.3021  0.2233  0.0088
  187DOPC   H2X23011   6.961  -0.277  13.400  1.5052  0.1377  0.8825
  187DOPC   H2Y23012   7.082  -0.145  13.371  0.0200 -1.4618 -1.0250
  187DOPC   C2323013   7.218   0.115  13.359 -0.5064 -0.0026  0.0059
  187DOPC   H3R23014   7.260   0.049  13.280 -2.1544  0.3459 -1.2082
  187DOPC   H3S23015   7.134   0.062  13.409 -1.9084 -0.6975 -2.8798
  187DOPC   C2423016   7.336   0.141  13.458  0.1263 -0.3600 -0.2087
  187DOPC   H4R23017   7.302   0.225  13.523 -1.3346  1.3279 -2.9603
  187DOPC   H4S23018   7.427   0.167  13.398 -1.2035  0.0254 -2.1393
  187DOPC   C2523019   7.370   0.028  13.544 -0.5194  0.2633 -0.2129
  187DOPC   H5R23020   7.421  -0.047  13.481 -2.1652 -0.0268 -1.2682
  187DOPC   H5S23021   7.276  -0.022  13.578  0.4566 -1.0105  0.7169
  187DOPC   C2623022   7.458   0.064  13.673  0.0044 -0.5889 -0.1634
  187DOPC   H6R23023   7.387   0.123  13.735 -0.3220 -0.2754 -0.8336
  187DOPC   H6S23024   7.542   0.123  13.631 -1.7955  3.1118  1.0052
  187DOPC   C2723025   7.515  -0.053  13.745  0.2241  0.7184 -0.2381
  187DOPC   H7R23026   7.551  -0.128  13.672 -0.4265 -0.6306  0.7935
  187DOPC   H7S23027   7.427  -0.101  13.794 -0.5833  0.9258 -1.4388
  187DOPC   C2823028   7.631  -0.022  13.839 -0.4284 -0.1219 -0.1661
  187DOPC   H8R23029   7.724  -0.001  13.781  1.9836 -1.0485  3.1149
  187DOPC   H8S23030   7.660  -0.117  13.888  0.8537  0.6572  0.6454
  187DOPC   C2923031   7.598   0.092  13.936  0.2763  0.2872 -0.0058
  187DOPC   H9R23032   7.522   0.157  13.892 -2.6117 -3.0260 -0.3129
  187DOPC  C21023033   7.629   0.103  14.068  0.9054 -0.8476 -0.4195
  187DOPC  H10R23034   7.600   0.183  14.138  0.2523 -2.0487  0.7338
  187DOPC  C21123035   7.723   0.008  14.139 -0.3712  0.4007  0.3329
  187DOPC  H11R23036   7.754  -0.071  14.068 -1.9733  0.3719 -0.3672
  187DOPC  H11S23037   7.667  -0.050  14.215 -1.5127 -1.7571 -1.9925
  187DOPC  C21223038   7.842   0.095  14.195 -0.5228 -0.0750 -0.2379
  187DOPC  H12R23039   7.888   0.162  14.119  2.2777  0.2686  1.6133
  187DOPC  H12S23040   7.919   0.020  14.221 -3.1769 -2.2226  2.0123
  187DOPC  C21323041   7.813   0.178  14.319 -0.7476  0.4935  0.2949
  187DOPC  H13R23042   7.720   0.235  14.299  0.0896  1.6517 -0.4224
  187DOPC  H13S23043   7.899   0.246  14.336  0.5778 -1.4072  1.6323
  187DOPC  C21423044   7.800   0.091  14.449  0.0491 -0.3415  0.1392
  187DOPC  H14R23045   7.901   0.050  14.471  0.1218  0.4937  1.5262
  187DOPC  H14S23046   7.740  -0.000  14.429 -1.6232  1.0771 -1.6818
  187DOPC  C21523047   7.752   0.174  14.566 -0.2934 -0.0107  0.6502
  187DOPC  H15R23048   7.737   0.111  14.656 -0.4916  0.2235  0.7811
  187DOPC  H15S23049   7.652   0.213  14.536 -0.4265 -1.3665 -0.7934
  187DOPC  C21623050   7.848   0.288  14.594  0.3561 -0.9698 -0.1879
  187DOPC  H16R23051   7.869   0.346  14.502 -1.1584  0.5429  0.3699
  187DOPC  H16S23052   7.946   0.250  14.632  1.1359 -0.0366 -1.1930
  187DOPC  C21723053   7.798   0.404  14.687 -0.0908 -0.4904  0.2364
  187DOPC  H17R23054   7.830   0.382  14.791  2.8074  0.7931 -0.2826
  187DOPC  H17S23055   7.687   0.399  14.684 -0.2130  1.6622 -0.6008
  187DOPC  C21823056   7.844   0.552  14.648  0.2986  0.0809  0.6601
  187DOPC  H18R23057   7.951   0.570  14.675  0.4104  1.1841 -0.4596
  187DOPC  H18S23058   7.787   0.617  14.718 -2.5161 -1.9014  0.3971
  187DOPC  H18T23059   7.824   0.588  14.545 -0.3577  0.9079  1.0670
  187DOPC   C3323060   6.920  -0.107  13.508 -0.2605 -0.4922 -0.3603
  187DOPC   H3X23061   6.819  -0.146  13.536 -1.8986  2.6492 -1.3952
  187DOPC   H3Y23062   6.902   0.002  13.501  4.5925  0.5845  0.2887
  187DOPC   C3423063   7.004  -0.131  13.632  0.1367  0.2177  0.1011
  187DOPC   H4X23064   7.102  -0.081  13.620 -0.4640  1.4246  0.0523
  187DOPC   H4Y23065   7.031  -0.238  13.642 -3.7987 -1.4802 -3.6937
  187DOPC   C3523066   6.932  -0.091  13.760  0.4042 -0.8744 -0.1614
  187DOPC   H5X23067   6.833  -0.142  13.762 -1.3812  2.2013 -1.7985
  187DOPC   H5Y23068   6.906   0.017  13.750  1.6803 -0.2449  2.4690
  187DOPC   C3623069   7.018  -0.106  13.891 -0.4688 -1.0881  0.0135
  187DOPC   H6X23070   6.959  -0.080  13.981 -1.3608  2.2508 -1.3947
  187DOPC   H6Y23071   7.056  -0.211  13.887  1.8485 -0.3094  0.0182
  187DOPC   C3723072   7.141  -0.016  13.894 -0.1766  0.2338  0.3193
  187DOPC   H7X23073   7.217  -0.048  13.820  0.6864 -0.1009  1.3170
  187DOPC   H7Y23074   7.103   0.083  13.862 -0.0665 -0.3773 -1.8358
  187DOPC   C3823075   7.209  -0.004  14.034  0.3441 -0.0732 -0.7010
  187DOPC   H8X23076   7.124   0.024  14.100 -0.1846 -2.2265 -0.3896
  187DOPC   H8Y23077   7.282   0.079  14.025  1.0693 -0.6808 -0.5505
  187DOPC   C3923078   7.270  -0.137  14.079  0.4798 -0.3252 -0.7829
  187DOPC   H9X23079   7.340  -0.179  14.005  0.6812  0.3278 -0.9612
  187DOPC  C31023080   7.244  -0.202  14.200  0.1852 -0.5150 -0.1071
  187DOPC  H10X23081   7.303  -0.289  14.232 -0.2878 -0.2107  1.6897
  187DOPC  C31123082   7.158  -0.139  14.317 -0.7631  0.0580  0.1459
  187DOPC  H11X23083   7.068  -0.202  14.331  0.5689 -1.4861  2.3339
  187DOPC  H11Y23084   7.138  -0.033  14.290  2.0438  0.4526 -0.6332
  187DOPC  C31223085   7.228  -0.134  14.451  0.5190  0.2237  0.0626
  187DOPC  H12X23086   7.281  -0.230  14.471  0.0228 -0.5249 -1.9458
  187DOPC  H12Y23087   7.146  -0.126  14.526 -0.7816  3.2128 -1.5017
  187DOPC  C31323088   7.321  -0.013  14.475  0.0492 -0.2328  0.9563
  187DOPC  H13X23089   7.399  -0.012  14.396 -1.5742  0.5493 -0.7370
  187DOPC  H13Y23090   7.259   0.080  14.470  1.0753  0.5817  2.5531
  187DOPC  C31423091   7.405  -0.011  14.604 -0.4113 -0.1683 -0.1727
  187DOPC  H14X23092   7.461  -0.106  14.610  1.7793  1.0908  0.2640
  187DOPC  H14Y23093   7.484   0.063  14.577  0.5903 -0.2710  2.2320
  187DOPC  C31523094   7.344   0.028  14.738 -0.0574  0.2402 -0.0581
  187DOPC  H15X23095   7.268  -0.051  14.762 -0.7240  0.7124 -0.5886
  187DOPC  H15Y23096   7.302   0.130  14.728  3.7437  1.7648 -2.1786
  187DOPC  C31623097   7.448   0.039  14.856 -0.1504 -1.0198 -0.2479
  187DOPC  H16X23098   7.393   0.034  14.953 -0.4366  2.7474 -0.0493
  187DOPC  H16Y23099   7.529  -0.034  14.837 -0.9291 -1.8795 -0.2829
  187DOPC  C31723100   7.508   0.190  14.852 -0.1790  0.6274 -0.3876
  187DOPC  H17X23101   7.531   0.216  14.746  2.0284  2.7610  0.5282
  187DOPC  H17Y23102   7.434   0.266  14.884 -1.3488 -0.4712 -0.3749
  187DOPC  C31823103   7.632   0.204  14.946  0.1132  0.2492  0.4686
  187DOPC  H18X23104   7.683   0.299  14.917 -0.8428  0.0737 -2.0916
  187DOPC  H18Y23105   7.587   0.209  15.047  0.4096 -0.6915  0.6536
  187DOPC  H18Z23106   7.697   0.115  14.934  0.4062  0.4715  0.4079
  188DOPC     N23107   1.474   0.529  12.375  0.3716  0.3040 -0.2440
  188DOPC   C1223108   1.592   0.551  12.464 -0.3168 -0.2447  0.3154
  188DOPC  H12A23109   1.577   0.555  12.571 -0.5556  1.7523  0.2514
  188DOPC  H12B23110   1.630   0.647  12.432  1.7357 -0.6859  1.2660
  188DOPC   C1323111   1.359   0.621  12.414  0.0867 -0.0090 -0.2489
  188DOPC  H13A23112   1.325   0.594  12.513  2.8802 -0.0695  0.7709
  188DOPC  H13B23113   1.386   0.725  12.399 -1.4663  0.3313 -0.8807
  188DOPC  H13C23114   1.266   0.605  12.362 -2.3431  3.8333  2.3614
  188DOPC   C1423115   1.433   0.387  12.389 -0.4469 -0.4442 -0.5919
  188DOPC  H14A23116   1.519   0.327  12.363  0.7978  1.0303 -0.0418
  188DOPC  H14B23117   1.399   0.369  12.490  1.4554 -0.5228  0.0734
  188DOPC  H14C23118   1.357   0.363  12.317 -0.6352 -0.7632 -0.2892
  188DOPC   C1523119   1.527   0.558  12.233  0.8000 -0.6737 -0.0249
  188DOPC  H15A23120   1.612   0.497  12.209  0.5792 -2.0482  2.3949
  188DOPC  H15B23121   1.564   0.659  12.221 -0.3656 -0.4154 -1.8583
  188DOPC  H15C23122   1.442   0.546  12.167  0.2335 -0.5621  0.6695
  188DOPC   C1123123   1.716   0.454  12.455 -0.1299 -0.2223  0.2843
  188DOPC  H11A23124   1.792   0.521  12.500 -0.0325  0.1481 -0.4054
  188DOPC  H11B23125   1.700   0.367  12.522 -1.4606  1.0708  1.7022
  188DOPC     P23126   1.784   0.274  12.278  0.5676  0.2476 -0.2371
  188DOPC   O1323127   1.903   0.274  12.192  0.1494 -0.0580 -0.2711
  188DOPC   O1423128   1.658   0.212  12.235  0.2727  0.0841 -0.0947
  188DOPC   O1223129   1.759   0.427  12.321 -0.1346  0.2132 -0.2727
  188DOPC   O1123130   1.819   0.201  12.411 -0.0186 -0.4399 -0.1249
  188DOPC    C123131   1.943   0.230  12.483 -0.2090 -0.4297 -0.1650
  188DOPC    HA23132   1.948   0.340  12.500  0.6816 -0.3039 -1.1321
  188DOPC    HB23133   2.032   0.202  12.424  1.7883 -0.0325  2.5122
  188DOPC    C223134   1.947   0.157  12.616 -0.8779 -0.8780  0.1272
  188DOPC    HS23135   1.923   0.051  12.590 -0.5403 -1.0853  0.6398
  188DOPC   O2123136   1.844   0.210  12.708  0.3856 -0.7025  0.4290
  188DOPC   C2123137   1.784   0.119  12.780  0.6461  0.3516 -0.7226
  188DOPC   O2223138   1.799  -0.001  12.777 -0.7485 -0.1030 -0.4668
  188DOPC   C2223139   1.670   0.187  12.857 -0.7729  0.6686 -0.5278
  188DOPC   H2R23140   1.574   0.174  12.803 -0.5149  0.3061 -0.9124
  188DOPC   H2S23141   1.676   0.298  12.855 -0.5473  0.6519 -1.1375
  188DOPC    C323142   2.086   0.174  12.685 -0.3980 -0.1964  0.2148
  188DOPC    HX23143   2.098   0.280  12.715  1.6086  0.3287 -2.2025
  188DOPC    HY23144   2.168   0.147  12.616 -0.5230 -2.0334  0.7318
  188DOPC   O3123145   2.096   0.097  12.809  0.4712 -0.1346  0.2253
  188DOPC   C3123146   2.121  -0.035  12.804 -0.2764 -0.4529  0.3198
  188DOPC   O3223147   2.120  -0.096  12.695  0.8776  0.4495 -0.1263
  188DOPC   C3223148   2.143  -0.105  12.940  0.0775  0.4782 -1.0600
  188DOPC   H2X23149   2.063  -0.172  12.978  0.2792  0.7933 -0.0233
  188DOPC   H2Y23150   2.241  -0.158  12.940  1.3205  2.4288  2.1260
  188DOPC   C2323151   1.654   0.136  13.001 -0.6775 -0.2170 -0.2969
  188DOPC   H3R23152   1.649   0.025  12.994 -1.5060 -0.1169 -1.8124
  188DOPC   H3S23153   1.548   0.158  13.028  0.1964  1.0221  2.4265
  188DOPC   C2423154   1.747   0.196  13.105  0.3121  0.0512  0.8832
  188DOPC   H4R23155   1.747   0.307  13.099  1.4678  0.0141 -0.5628
  188DOPC   H4S23156   1.847   0.156  13.078  0.0655  0.0680 -0.1260
  188DOPC   C2523157   1.719   0.141  13.245 -0.5014  0.2479 -0.0231
  188DOPC   H5R23158   1.743   0.033  13.255 -1.1460 -0.0517 -1.4178
  188DOPC   H5S23159   1.611   0.141  13.271 -0.1273  1.4928  1.7570
  188DOPC   C2623160   1.802   0.209  13.353  0.3377 -0.5635 -0.6703
  188DOPC   H6R23161   1.797   0.319  13.339 -0.1142 -0.4570  0.2224
  188DOPC   H6S23162   1.909   0.180  13.339  1.9335  4.0455  0.2827
  188DOPC   C2723163   1.738   0.187  13.497  0.1785 -0.5527 -0.1049
  188DOPC   H7R23164   1.761   0.082  13.523  1.0454 -0.7375 -1.5003
  188DOPC   H7S23165   1.628   0.170  13.485  0.1303 -1.2080  1.1383
  188DOPC   C2823166   1.767   0.307  13.591  0.4917 -0.4295  0.5095
  188DOPC   H8R23167   1.673   0.315  13.649 -0.7971 -1.0450 -1.3776
  188DOPC   H8S23168   1.784   0.400  13.534 -0.4854  0.9642  2.4053
  188DOPC   C2923169   1.879   0.274  13.678  0.2918  0.0069  0.2004
  188DOPC   H9R23170   1.979   0.260  13.633  0.1651  0.4322 -0.2204
  188DOPC  C21023171   1.873   0.256  13.812 -0.9735 -0.1451 -0.0137
  188DOPC  H10R23172   1.962   0.225  13.869 -0.6831 -0.0395 -0.4048
  188DOPC  C21123173   1.760   0.279  13.911  0.0077 -0.1738  0.3446
  188DOPC  H11R23174   1.678   0.343  13.871  0.5862 -0.4345 -1.3546
  188DOPC  H11S23175   1.806   0.323  14.001 -1.8143 -1.7114  2.1268
  188DOPC  C21223176   1.697   0.151  13.956 -0.0361  0.1142 -0.1880
  188DOPC  H12R23177   1.764   0.082  14.013 -2.1721 -0.3898  1.8943
  188DOPC  H12S23178   1.659   0.091  13.872  0.6079 -3.5042  1.8849
  188DOPC  C21323179   1.593   0.198  14.059  0.1960 -0.6711  0.9738
  188DOPC  H13R23180   1.533   0.280  14.015 -3.4039 -2.6460  1.8493
  188DOPC  H13S23181   1.637   0.247  14.148  1.9487 -0.6693  0.1499
  188DOPC  C21423182   1.497   0.093  14.104 -0.5844  0.0890  0.4517
  188DOPC  H14R23183   1.553  -0.000  14.129  0.0316 -0.2397 -1.9365
  188DOPC  H14S23184   1.438   0.057  14.017  0.8903 -0.5678 -0.3213
  188DOPC  C21523185   1.400   0.146  14.222  0.0880  0.3837  0.0712
  188DOPC  H15R23186   1.294   0.123  14.198 -0.2579  2.0371 -0.1445
  188DOPC  H15S23187   1.411   0.256  14.231 -0.2232  0.2895  2.0955
  188DOPC  C21623188   1.445   0.085  14.349 -1.2700  0.8615 -0.3694
  188DOPC  H16R23189   1.551   0.110  14.369 -0.7177  0.2005 -2.2181
  188DOPC  H16S23190   1.443  -0.026  14.334 -0.5171  0.6492  0.9798
  188DOPC  C21723191   1.366   0.120  14.472 -0.5086 -0.0783 -0.3508
  188DOPC  H17R23192   1.341   0.228  14.476 -1.1232 -0.0143 -3.2508
  188DOPC  H17S23193   1.433   0.085  14.553 -0.6945  0.4315  0.0266
  188DOPC  C21823194   1.236   0.033  14.477 -0.5379 -0.7088  0.7429
  188DOPC  H18R23195   1.264  -0.073  14.495  2.1963 -0.2939 -0.6369
  188DOPC  H18S23196   1.177   0.052  14.385  3.5334 -0.2481 -1.9920
  188DOPC  H18T23197   1.166   0.072  14.555  1.1798  0.4768  1.7545
  188DOPC   C3323198   2.162  -0.009  13.065 -0.3922 -0.0092  0.0406
  188DOPC   H3X23199   2.065   0.045  13.070  1.1815  3.1527 -0.9522
  188DOPC   H3Y23200   2.242   0.061  13.034 -1.0869  1.3769  1.2733
  188DOPC   C3423201   2.193  -0.089  13.194 -0.9307  0.4199  0.5541
  188DOPC   H4X23202   2.304  -0.087  13.199 -0.9040  0.1559  0.0722
  188DOPC   H4Y23203   2.157  -0.193  13.183 -1.7420  0.8809 -1.7269
  188DOPC   C3523204   2.145  -0.027  13.325 -0.2485  0.7125  0.0395
  188DOPC   H5X23205   2.035  -0.011  13.321 -0.2023  0.9055 -0.7137
  188DOPC   H5Y23206   2.195   0.072  13.318 -0.8076  1.0833  1.1379
  188DOPC   C3623207   2.197  -0.082  13.455 -0.0802  0.1536 -0.5763
  188DOPC   H6X23208   2.167  -0.184  13.486 -0.5878  0.2957 -0.5955
  188DOPC   H6Y23209   2.308  -0.084  13.448  0.1762  1.9383  1.7765
  188DOPC   C3723210   2.159   0.010  13.566  0.1734 -0.0541 -0.0677
  188DOPC   H7X23211   2.197   0.112  13.546  0.2323 -0.4453 -2.2836
  188DOPC   H7Y23212   2.049   0.024  13.570  0.1620 -0.1090 -0.1636
  188DOPC   C3823213   2.215  -0.038  13.699  0.5575 -0.5762 -0.1824
  188DOPC   H8X23214   2.326  -0.047  13.702  0.5104 -1.1286 -0.1013
  188DOPC   H8Y23215   2.170  -0.135  13.726 -0.5819  0.1318  0.5702
  188DOPC   C3923216   2.183   0.064  13.808 -0.1016 -0.8417 -0.2081
  188DOPC   H9X23217   2.198   0.171  13.786 -1.3055 -0.5757  0.1968
  188DOPC  C31023218   2.140   0.032  13.934  0.5286 -0.1920 -0.0252
  188DOPC  H10X23219   2.117   0.109  14.008 -0.1401  0.1896 -0.6150
  188DOPC  C31123220   2.129  -0.107  13.984 -0.3506 -0.0129 -0.4933
  188DOPC  H11X23221   2.196  -0.119  14.072 -1.3787  0.0182  0.3164
  188DOPC  H11Y23222   2.158  -0.185  13.911 -2.3197  0.2190 -1.6105
  188DOPC  C31223223   1.983  -0.138  14.037  0.6968  0.3196 -0.0844
  188DOPC  H12X23224   1.990  -0.248  14.040  1.8602  0.3725 -0.4574
  188DOPC  H12Y23225   1.908  -0.110  13.960  0.1931 -0.3998  0.1291
  188DOPC  C31323226   1.949  -0.069  14.170  0.4189  0.2141  0.0090
  188DOPC  H13X23227   1.991   0.032  14.154  0.7392 -0.3942 -4.1155
  188DOPC  H13Y23228   1.839  -0.062  14.179  0.6196  1.2116  2.2107
  188DOPC  C31423229   2.005  -0.138  14.299  0.2827 -0.5225 -0.3395
  188DOPC  H14X23230   2.106  -0.175  14.273  0.1730 -0.3231 -1.0757
  188DOPC  H14Y23231   2.006  -0.060  14.379  0.5073  1.3177 -2.0690
  188DOPC  C31523232   1.911  -0.251  14.351 -0.0674  0.4296 -0.1705
  188DOPC  H15X23233   1.888  -0.323  14.269  2.5190  0.5284 -1.0792
  188DOPC  H15Y23234   1.813  -0.210  14.382  0.1712  0.1593  0.9854
  188DOPC  C31623235   1.964  -0.329  14.471  0.0933 -0.1087  0.1586
  188DOPC  H16X23236   2.073  -0.349  14.475  0.1598  0.0613 -0.5828
  188DOPC  H16Y23237   1.928  -0.269  14.557 -1.7262  1.3495 -1.5217
  188DOPC  C31723238   1.894  -0.472  14.476  0.2072 -0.7575  0.3064
  188DOPC  H17X23239   1.791  -0.465  14.434  0.3315 -0.6837  0.0138
  188DOPC  H17Y23240   1.961  -0.536  14.414  2.2797  0.1916  1.5031
  188DOPC  C31823241   1.886  -0.531  14.620  0.2101 -0.0594  0.0099
  188DOPC  H18X23242   1.830  -0.627  14.619  0.9956 -0.5178 -0.4418
  188DOPC  H18Y23243   1.988  -0.547  14.661 -0.5221  1.8499  2.8874
  188DOPC  H18Z23244   1.830  -0.457  14.681 -2.2830  0.9797 -3.2240
  189DOPC     N23245   3.683   7.387  12.086  0.2085 -0.8680 -0.2257
  189DOPC   C1223246   3.669   7.289  12.196  0.2034  0.2232 -0.2004
  189DOPC  H12A23247   3.636   7.196  12.151  0.8332  0.8082 -1.9480
  189DOPC  H12B23248   3.601   7.320  12.275  0.6578 -0.4957  0.4861
  189DOPC   C1323249   3.706   7.529  12.137  0.3465  0.3572 -0.6706
  189DOPC  H13A23250   3.730   7.593  12.054 -0.5958  1.4965 -0.0999
  189DOPC  H13B23251   3.617   7.551  12.194  1.1663  2.3497 -0.0580
  189DOPC  H13C23252   3.791   7.556  12.200 -1.5695  2.6221  1.1368
  189DOPC   C1423253   3.562   7.390  11.995 -0.0812 -0.0969 -0.3566
  189DOPC  H14A23254   3.569   7.460  11.913  0.8876  0.7663  0.4229
  189DOPC  H14B23255   3.531   7.292  11.961  2.0841 -1.5531  1.5571
  189DOPC  H14C23256   3.486   7.424  12.064 -0.2163  0.5508 -0.8190
  189DOPC   C1523257   3.793   7.349  12.001  0.1979 -0.2848  0.2594
  189DOPC  H15A23258   3.804   7.412  11.914 -1.0918  0.5148  0.6653
  189DOPC  H15B23259   3.791   7.246  11.966  1.6366  0.3970 -2.0334
  189DOPC  H15C23260   3.882   7.366  12.060 -0.1402 -0.5060  0.8320
  189DOPC   C1123261   3.795   7.284  12.289  0.1485  0.0055 -0.5015
  189DOPC  H11A23262   3.803   7.187  12.344  5.0815  0.7888  0.6421
  189DOPC  H11B23263   3.893   7.270  12.238  2.4054  0.2051  3.4020
  189DOPC     P23264   3.728   7.372  12.523 -0.4819 -0.1910  0.1539
  189DOPC   O1323265   3.589   7.329  12.502  0.5500  0.1079 -0.9396
  189DOPC   O1423266   3.751   7.501  12.600 -0.1998  0.3191 -0.0101
  189DOPC   O1223267   3.802   7.385  12.384  0.1609 -0.2361 -0.2214
  189DOPC   O1123268   3.799   7.258  12.603  0.5431 -0.0467  0.4822
  189DOPC    C123269   3.942   7.268  12.630  0.0844 -0.2338 -0.1759
  189DOPC    HA23270   3.973   7.367  12.670 -1.4534 -0.4790  1.8127
  189DOPC    HB23271   4.002   7.244  12.541 -1.7349 -0.7590 -1.3179
  189DOPC    C223272   3.984   7.170  12.743 -0.6397  0.0949 -0.0816
  189DOPC    HS23273   3.996   7.071  12.693 -3.1286  0.9690 -2.6440
  189DOPC   O2123274   3.880   7.170  12.841 -0.4994 -1.1972 -0.2112
  189DOPC   C2123275   3.848   7.054  12.890  0.2499  0.0417  0.1042
  189DOPC   O2223276   3.913   6.955  12.870  0.5400 -0.0560  0.4371
  189DOPC   C2223277   3.728   7.065  12.985 -0.1293  0.3556 -0.5037
  189DOPC   H2R23278   3.640   7.013  12.939 -0.6918  0.9378 -0.1093
  189DOPC   H2S23279   3.704   7.174  12.990  1.2153  0.7356 -1.6977
  189DOPC    C323280   4.123   7.204  12.802  0.2556 -0.1155  0.1532
  189DOPC    HX23281   4.116   7.309  12.837 -0.1936  0.9598 -2.8744
  189DOPC    HY23282   4.204   7.201  12.726  0.0924  0.7285 -0.0553
  189DOPC   O3123283   4.146   7.117  12.913 -0.2884 -0.1042  0.0677
  189DOPC   C3123284   4.229   7.015  12.894  0.0593 -0.6937 -0.0203
  189DOPC   O3223285   4.301   6.994  12.798  0.2651 -0.3194  0.1454
  189DOPC   C3223286   4.217   6.930  13.015  0.3405  0.2669 -0.5290
  189DOPC   H2X23287   4.149   6.974  13.090  0.7211  0.2795 -0.1898
  189DOPC   H2Y23288   4.181   6.832  12.978  0.8682 -0.9234  1.9127
  189DOPC   C2323289   3.761   7.004  13.127  0.1991 -0.3577 -0.0899
  189DOPC   H3R23290   3.787   6.898  13.109  2.0280 -0.5640  3.0447
  189DOPC   H3S23291   3.669   6.995  13.188  0.2963 -1.3686 -0.0735
  189DOPC   C2423292   3.873   7.075  13.201  1.5886 -0.7913 -0.0732
  189DOPC   H4R23293   3.835   7.179  13.211 -0.9354 -1.5561 -1.0706
  189DOPC   H4S23294   3.968   7.099  13.148  2.3695  0.8253  1.9255
  189DOPC   C2523295   3.911   7.010  13.326 -0.0421 -0.3055 -0.4292
  189DOPC   H5R23296   3.921   6.905  13.292  0.1742  0.3143 -2.4236
  189DOPC   H5S23297   3.832   7.020  13.404 -0.0559 -1.3516 -0.2972
  189DOPC   C2623298   4.039   7.067  13.396  0.3958 -0.2433  0.3078
  189DOPC   H6R23299   4.013   7.174  13.408 -1.2726 -0.1948 -2.6055
  189DOPC   H6S23300   4.126   7.058  13.328 -0.4794 -0.1627 -0.8731
  189DOPC   C2723301   4.058   6.978  13.522 -0.1787  0.1992 -0.0491
  189DOPC   H7R23302   4.093   6.880  13.485  1.0662  1.3560 -2.1065
  189DOPC   H7S23303   3.960   6.969  13.573 -0.3822  4.0015  0.5486
  189DOPC   C2823304   4.155   7.028  13.626 -0.5468 -0.2361 -0.0701
  189DOPC   H8R23305   4.125   7.125  13.671 -1.5657  0.2163 -1.6453
  189DOPC   H8S23306   4.254   7.052  13.581 -0.2821 -2.5340 -0.8774
  189DOPC   C2923307   4.164   6.930  13.739 -0.6582  0.3080 -0.3884
  189DOPC   H9R23308   4.220   6.842  13.704 -0.5355 -0.4489  1.5530
  189DOPC  C21023309   4.116   6.927  13.863  0.5268 -0.3215  0.0758
  189DOPC  H10R23310   4.134   6.829  13.909 -0.2730 -1.9749 -2.8975
  189DOPC  C21123311   4.032   7.029  13.934 -0.3736  0.7359  0.2543
  189DOPC  H11R23312   3.971   7.072  13.852 -0.3389  0.8883  0.3093
  189DOPC  H11S23313   4.099   7.103  13.983  1.0745  2.3548 -3.7121
  189DOPC  C21223314   3.929   6.971  14.043  0.0571  0.1101  0.6043
  189DOPC  H12R23315   3.873   6.883  14.004  0.0749 -0.5094  1.9259
  189DOPC  H12S23316   3.861   7.054  14.071  1.2113  1.0910  0.5432
  189DOPC  C21323317   3.996   6.933  14.171  0.0824  0.5049 -0.6365
  189DOPC  H13R23318   4.057   7.020  14.203 -1.4888  1.2010  0.6113
  189DOPC  H13S23319   4.078   6.858  14.165 -0.2393 -0.2302  2.4299
  189DOPC  C21423320   3.907   6.887  14.290 -0.5053 -0.0392  0.9288
  189DOPC  H14R23321   3.878   6.782  14.267 -3.0954  0.9311 -0.7741
  189DOPC  H14S23322   3.814   6.949  14.294 -0.2293  0.4913 -0.3222
  189DOPC  C21523323   3.974   6.888  14.427  0.1602 -0.1093  0.1424
  189DOPC  H15R23324   3.996   6.994  14.452  0.2303 -0.5190  1.9552
  189DOPC  H15S23325   4.065   6.825  14.434  1.4419  1.8617  4.0374
  189DOPC  C21623326   3.880   6.846  14.538 -0.2770  0.2153 -0.0814
  189DOPC  H16R23327   3.851   6.739  14.531 -4.1394  0.9938  1.3366
  189DOPC  H16S23328   3.778   6.890  14.537 -0.8601 -1.0923 -0.5667
  189DOPC  C21723329   3.940   6.887  14.674  0.0082  0.5610  0.8674
  189DOPC  H17R23330   3.922   6.997  14.671 -3.1761  0.1759 -2.5215
  189DOPC  H17S23331   4.046   6.855  14.668 -0.1931 -0.0782  0.5160
  189DOPC  C21823332   3.883   6.820  14.800  0.5176  0.5009 -0.3163
  189DOPC  H18R23333   3.778   6.856  14.808 -0.4810 -2.2656 -0.0047
  189DOPC  H18S23334   3.937   6.847  14.893 -1.2155 -2.6204  1.7882
  189DOPC  H18T23335   3.880   6.709  14.794 -1.3761  0.5389 -0.6336
  189DOPC   C3323336   4.358   6.897  13.070 -0.2394  0.0378 -0.6816
  189DOPC   H3X23337   4.417   6.990  13.074 -1.4972  0.9081 -1.3854
  189DOPC   H3Y23338   4.410   6.822  13.006 -0.2059  0.0995 -0.7261
  189DOPC   C3423339   4.348   6.818  13.207 -0.4740 -0.3800  0.3702
  189DOPC   H4X23340   4.279   6.732  13.192  2.3433 -2.6977  0.0021
  189DOPC   H4Y23341   4.305   6.893  13.277  0.9893  2.2211 -1.3355
  189DOPC   C3523342   4.490   6.771  13.259  0.5307 -0.3674 -0.1121
  189DOPC   H5X23343   4.560   6.857  13.257 -0.6922  0.8095  2.6915
  189DOPC   H5Y23344   4.522   6.700  13.179 -1.8285  0.6833 -2.1451
  189DOPC   C3623345   4.491   6.710  13.399 -0.7337  0.4778 -0.3735
  189DOPC   H6X23346   4.592   6.698  13.443 -0.0260 -1.3087 -2.3057
  189DOPC   H6Y23347   4.441   6.766  13.480  0.4103 -1.8040  2.0456
  189DOPC   C3723348   4.428   6.567  13.398  0.1023 -0.3212  0.8833
  189DOPC   H7X23349   4.335   6.556  13.337  0.6991 -1.2503  0.1032
  189DOPC   H7Y23350   4.507   6.510  13.344  0.9719  2.1166 -0.5523
  189DOPC   C3823351   4.415   6.487  13.532 -0.3132  0.4289  0.0096
  189DOPC   H8X23352   4.322   6.520  13.581  0.5817  2.2923  0.5481
  189DOPC   H8Y23353   4.502   6.516  13.595 -0.1027 -0.2536  0.0498
  189DOPC   C3923354   4.424   6.334  13.516 -0.7171 -0.1172  0.5683
  189DOPC   H9X23355   4.514   6.293  13.467 -0.4393 -0.5155  1.4014
  189DOPC  C31023356   4.334   6.245  13.558 -0.9599  0.1563  0.1163
  189DOPC  H10X23357   4.343   6.138  13.538 -3.5575 -0.1097  0.0567
  189DOPC  C31123358   4.205   6.270  13.626  0.0481  0.2512 -0.0934
  189DOPC  H11X23359   4.137   6.183  13.618 -1.1537  1.2877 -1.5671
  189DOPC  H11Y23360   4.159   6.362  13.583  1.6933 -0.0633 -2.7771
  189DOPC  C31223361   4.214   6.304  13.776  0.2562 -0.0449  0.3821
  189DOPC  H12X23362   4.109   6.332  13.798  0.2238  0.1807 -0.0418
  189DOPC  H12Y23363   4.269   6.399  13.787  1.2090 -0.3219 -1.5616
  189DOPC  C31323364   4.244   6.188  13.871  0.4568 -0.4057  1.1532
  189DOPC  H13X23365   4.190   6.103  13.825  3.2567 -1.2018 -0.9021
  189DOPC  H13Y23366   4.354   6.171  13.875  0.6505  0.2645 -0.5965
  189DOPC  C31423367   4.199   6.206  14.025 -0.7359  0.7911 -0.2138
  189DOPC  H14X23368   4.090   6.227  14.015 -0.8729  0.8772  1.2429
  189DOPC  H14Y23369   4.214   6.107  14.072 -0.3201  1.5838  1.4005
  189DOPC  C31523370   4.270   6.305  14.118  0.3495  0.7014 -0.3010
  189DOPC  H15X23371   4.259   6.403  14.065  2.1123 -1.0031 -4.2470
  189DOPC  H15Y23372   4.381   6.299  14.118  0.3092 -0.2673  0.8453
  189DOPC  C31623373   4.200   6.306  14.257  0.4040 -0.3695  0.0898
  189DOPC  H16X23374   4.229   6.396  14.314 -0.5863 -0.7997  1.3293
  189DOPC  H16Y23375   4.092   6.317  14.234  0.7573  0.2608 -1.3717
  189DOPC  C31723376   4.218   6.189  14.346  1.1737  0.2782  0.3089
  189DOPC  H17X23377   4.188   6.100  14.287  2.9326 -0.3679  0.3464
  189DOPC  H17Y23378   4.319   6.183  14.391  0.9388  0.5147  0.8921
  189DOPC  C31823379   4.120   6.196  14.470 -0.1138 -0.2464 -0.1012
  189DOPC  H18X23380   4.131   6.112  14.541 -3.0878 -0.9529 -0.3448
  189DOPC  H18Y23381   4.137   6.293  14.521 -0.3203  1.2662 -2.7183
  189DOPC  H18Z23382   4.014   6.201  14.435  0.3564  0.5740 -1.5022
  190DOPC     N23383   3.325   5.793  12.901 -0.1247  0.2420 -0.5288
  190DOPC   C1223384   3.398   5.807  13.039  0.4088  0.8075  0.6070
  190DOPC  H12A23385   3.504   5.830  13.031  0.7652 -1.2029 -2.2149
  190DOPC  H12B23386   3.398   5.709  13.084  0.4658  0.3519 -0.3406
  190DOPC   C1323387   3.180   5.794  12.914  0.9784  0.0367 -0.0762
  190DOPC  H13A23388   3.123   5.807  12.823  0.0291  1.9129  0.7277
  190DOPC  H13B23389   3.161   5.694  12.950 -0.7308  0.4683  0.2847
  190DOPC  H13C23390   3.145   5.868  12.984 -0.1416  0.3211 -0.9070
  190DOPC   C1423391   3.371   5.671  12.836 -0.1850  0.5204  0.4397
  190DOPC  H14A23392   3.350   5.668  12.730  0.4782  0.4943  0.3100
  190DOPC  H14B23393   3.477   5.655  12.842 -0.0911 -0.1166 -2.0679
  190DOPC  H14C23394   3.317   5.585  12.873  0.6710 -0.5155 -0.6515
  190DOPC   C1523395   3.371   5.906  12.805  0.1913 -0.2423 -0.0313
  190DOPC  H15A23396   3.478   5.895  12.793  0.6543  2.3937  0.9210
  190DOPC  H15B23397   3.353   5.997  12.861  2.8360 -1.3576  2.9357
  190DOPC  H15C23398   3.319   5.906  12.711 -0.9767  3.7796  0.4402
  190DOPC   C1123399   3.337   5.914  13.135  0.1470 -0.2660 -0.1906
  190DOPC  H11A23400   3.242   5.879  13.179 -0.1315  0.7298  0.0275
  190DOPC  H11B23401   3.411   5.911  13.218 -0.2931 -0.6437  0.1880
  190DOPC     P23402   3.452   6.140  13.061 -0.3715 -0.1544  0.1908
  190DOPC   O1323403   3.463   6.189  12.921  0.1855  0.0994 -0.3374
  190DOPC   O1423404   3.570   6.072  13.118 -0.3668  0.0568  0.0598
  190DOPC   O1223405   3.325   6.050  13.078  0.4118  0.2046 -0.1918
  190DOPC   O1123406   3.415   6.258  13.155  0.1792 -0.3506  0.1151
  190DOPC    C123407   3.289   6.330  13.170 -0.5419  0.0786  0.6500
  190DOPC    HA23408   3.241   6.315  13.269 -2.7550 -2.6491 -0.6823
  190DOPC    HB23409   3.217   6.310  13.087  0.4091 -0.4658 -0.0618
  190DOPC    C223410   3.306   6.489  13.162  0.3698  0.3510 -0.2654
  190DOPC    HS23411   3.378   6.504  13.078  1.1839 -0.2017  0.3155
  190DOPC   O2123412   3.349   6.542  13.285 -0.3934 -0.2410 -0.8943
  190DOPC   C2123413   3.442   6.624  13.277  0.2919 -0.7209 -0.5548
  190DOPC   O2223414   3.492   6.678  13.175  0.8264  0.0895  0.8921
  190DOPC   C2223415   3.470   6.664  13.417  0.7793 -0.6430  0.0362
  190DOPC   H2R23416   3.536   6.586  13.461  1.2758 -1.4359 -1.9955
  190DOPC   H2S23417   3.384   6.674  13.487  1.2438  3.9584  0.2406
  190DOPC    C323418   3.178   6.568  13.118  0.0036 -0.1138  0.2884
  190DOPC    HX23419   3.161   6.525  13.017  2.0456 -1.1605  0.3317
  190DOPC    HY23420   3.196   6.677  13.103  0.3096  0.1741  2.3768
  190DOPC   O3123421   3.065   6.547  13.211  0.1132  0.4792  0.1253
  190DOPC   C3123422   3.070   6.637  13.310  0.5015 -0.2731 -0.0812
  190DOPC   O3223423   3.142   6.732  13.322  0.2870 -0.5827 -0.6832
  190DOPC   C3223424   2.969   6.590  13.413 -0.6403 -0.0337 -0.3929
  190DOPC   H2X23425   2.865   6.625  13.401  0.1286  1.6395 -2.6513
  190DOPC   H2Y23426   2.964   6.479  13.405 -1.2851  0.0522 -1.2847
  190DOPC   C2323427   3.537   6.800  13.432 -0.5198  0.8869 -0.0186
  190DOPC   H3R23428   3.474   6.878  13.384 -2.7072 -2.0490 -2.3585
  190DOPC   H3S23429   3.641   6.790  13.395  0.5761  0.8853  2.8375
  190DOPC   C2423430   3.527   6.842  13.583 -0.5187  0.3010  0.1826
  190DOPC   H4R23431   3.564   6.758  13.644 -2.1778  0.8239  2.0180
  190DOPC   H4S23432   3.421   6.863  13.608 -0.3448  0.6917  0.5928
  190DOPC   C2523433   3.621   6.963  13.616 -0.0796 -0.2092  0.0806
  190DOPC   H5R23434   3.593   7.052  13.556 -1.4386 -0.2372  0.6372
  190DOPC   H5S23435   3.727   6.935  13.599 -0.6919 -2.4555 -0.3495
  190DOPC   C2623436   3.606   7.012  13.757 -0.4056 -0.4039 -0.1992
  190DOPC   H6R23437   3.655   6.938  13.824  1.5211  0.0126 -1.0757
  190DOPC   H6S23438   3.497   7.006  13.778 -1.1327 -4.6566 -3.7074
  190DOPC   C2723439   3.662   7.152  13.784  0.2924  0.0867 -0.1736
  190DOPC   H7R23440   3.609   7.213  13.708  0.1218  0.8065  0.5050
  190DOPC   H7S23441   3.772   7.164  13.776  0.3799  0.2591  1.1132
  190DOPC   C2823442   3.624   7.203  13.928 -0.4542  0.0606  0.1797
  190DOPC   H8R23443   3.670   7.135  14.003 -0.0181 -0.1316 -0.2608
  190DOPC   H8S23444   3.513   7.204  13.938 -0.6831  0.5690 -1.9530
  190DOPC   C2923445   3.694   7.329  13.961  0.5319  1.3213  0.2896
  190DOPC   H9R23446   3.803   7.314  13.956  0.4025 -0.5622  1.7845
  190DOPC  C21023447   3.645   7.450  13.992  0.1108  0.0943  0.8722
  190DOPC  H10R23448   3.720   7.520  14.033  1.0401 -0.4329  0.1259
  190DOPC  C21123449   3.505   7.494  13.986  1.0006  0.6342 -0.2338
  190DOPC  H11R23450   3.441   7.411  13.951 -0.5248  2.4364 -1.9929
  190DOPC  H11S23451   3.497   7.568  13.903 -1.3235  0.2710 -0.3994
  190DOPC  C21223452   3.453   7.541  14.120 -0.4825 -0.0639  0.4892
  190DOPC  H12R23453   3.467   7.461  14.196 -1.7575  0.7393  1.6304
  190DOPC  H12S23454   3.344   7.564  14.122 -0.5995 -0.4794 -0.5403
  190DOPC  C21323455   3.511   7.669  14.183 -0.1923 -0.2264  0.7262
  190DOPC  H13R23456   3.611   7.677  14.135 -1.0081  0.2692 -0.9824
  190DOPC  H13S23457   3.520   7.663  14.294  2.7195 -1.4586  0.5171
  190DOPC  C21423458   3.430   7.791  14.150 -0.6396  0.0968 -1.2560
  190DOPC  H14R23459   3.453   7.878  14.215 -2.5064  0.0261 -0.4469
  190DOPC  H14S23460   3.323   7.766  14.168 -0.5940  1.1652  0.8126
  190DOPC  C21523461   3.439   7.840  14.002 -0.4768  0.0134 -0.5741
  190DOPC  H15R23462   3.390   7.765  13.936 -0.1209  0.2716 -1.1353
  190DOPC  H15S23463   3.546   7.836  13.972 -0.7404  1.0223 -1.7208
  190DOPC  C21623464   3.388   7.982  13.971 -0.4098 -0.2438 -0.5453
  190DOPC  H16R23465   3.427   8.059  14.041 -0.1130  0.3759 -1.3756
  190DOPC  H16S23466   3.278   7.979  13.990 -0.2850 -1.1671  0.0923
  190DOPC  C21723467   3.409   8.018  13.823  0.1759  0.5041 -0.5250
  190DOPC  H17R23468   3.516   8.021  13.793  0.2678 -2.2848 -0.7410
  190DOPC  H17S23469   3.365   8.120  13.811  1.0089  1.0827  0.9849
  190DOPC  C21823470   3.332   7.927  13.735 -0.4724 -0.0301  0.2019
  190DOPC  H18R23471   3.230   7.907  13.773 -2.6084  2.9285 -3.3103
  190DOPC  H18S23472   3.394   7.836  13.723 -0.8437 -0.3840  0.9014
  190DOPC  H18T23473   3.323   7.970  13.633 -0.8146  1.4014  0.8088
  190DOPC   C3323474   3.020   6.630  13.556 -0.0444 -0.5123 -0.2877
  190DOPC   H3X23475   3.032   6.740  13.555 -1.3130 -0.3606 -0.4536
  190DOPC   H3Y23476   3.120   6.584  13.569  1.0905  1.1145 -2.5745
  190DOPC   C3423477   2.915   6.579  13.653 -1.1298  0.0326  0.1951
  190DOPC   H4X23478   2.894   6.473  13.626  0.5020 -0.2288 -0.1820
  190DOPC   H4Y23479   2.817   6.630  13.646 -0.6496  0.8180 -1.0108
  190DOPC   C3523480   2.977   6.574  13.794 -0.1471  0.3067  0.3485
  190DOPC   H5X23481   3.000   6.680  13.820  0.7031  0.6727 -1.7185
  190DOPC   H5Y23482   3.072   6.517  13.784  0.1900  1.1712 -2.0816
  190DOPC   C3623483   2.891   6.499  13.899  0.5476 -0.1921 -1.0570
  190DOPC   H6X23484   2.925   6.522  14.002  1.3617 -0.4248 -1.2665
  190DOPC   H6Y23485   2.785   6.531  13.895  1.0287  1.3498 -4.5196
  190DOPC   C3723486   2.906   6.350  13.886  0.3179 -0.2897  0.6896
  190DOPC   H7X23487   2.880   6.334  13.780 -0.4370 -2.6276  1.1648
  190DOPC   H7Y23488   3.015   6.335  13.897  0.7493  2.7982  1.6062
  190DOPC   C3823489   2.822   6.269  13.980  0.0506  0.5300  0.5682
  190DOPC   H8X23490   2.821   6.299  14.087 -3.8516 -1.0718  1.1365
  190DOPC   H8Y23491   2.841   6.159  13.981 -2.5809 -0.0066  0.2955
  190DOPC   C3923492   2.675   6.274  13.945  0.3182  0.8098 -0.2188
  190DOPC   H9X23493   2.614   6.353  13.990  0.3198  1.1192 -0.7434
  190DOPC  C31023494   2.610   6.182  13.875 -0.1223  0.4636 -0.6031
  190DOPC  H10X23495   2.500   6.173  13.872 -0.1885  1.2102 -0.4939
  190DOPC  C31123496   2.663   6.058  13.810  0.0017  0.0431 -0.0352
  190DOPC  H11X23497   2.767   6.079  13.778  0.2371  1.0603  1.3146
  190DOPC  H11Y23498   2.603   6.039  13.719 -0.2429  2.2046 -0.3609
  190DOPC  C31223499   2.655   5.926  13.906 -0.2127 -0.3015 -0.2209
  190DOPC  H12X23500   2.696   5.959  14.004 -1.6687  1.4752 -0.1468
  190DOPC  H12Y23501   2.711   5.842  13.860 -0.3757 -0.6754  0.2535
  190DOPC  C31323502   2.515   5.860  13.926 -1.0799 -0.1806  0.5316
  190DOPC  H13X23503   2.524   5.761  13.975  1.5138  0.0635  0.6387
  190DOPC  H13Y23504   2.449   5.927  13.986 -1.9957 -0.3801 -0.2343
  190DOPC  C31423505   2.442   5.835  13.793  0.5961  0.2438 -0.4257
  190DOPC  H14X23506   2.393   5.926  13.752 -1.6618 -0.5221  0.4094
  190DOPC  H14Y23507   2.514   5.801  13.716  2.1971  1.0313  0.6586
  190DOPC  C31523508   2.326   5.732  13.805 -0.3010  0.4139  0.3015
  190DOPC  H15X23509   2.356   5.637  13.854 -1.1175 -0.2188 -0.3797
  190DOPC  H15Y23510   2.275   5.723  13.706  0.4788  3.1759 -0.4480
  190DOPC  C31623511   2.209   5.797  13.888  0.4335 -0.0299  0.5082
  190DOPC  H16X23512   2.235   5.809  13.995  0.2037 -1.2222  0.7137
  190DOPC  H16Y23513   2.182   5.895  13.843  0.9543 -0.0201  0.2131
  190DOPC  C31723514   2.084   5.709  13.890 -0.2527  0.4877 -0.1833
  190DOPC  H17X23515   2.056   5.703  13.783  3.4214  2.7551 -1.4809
  190DOPC  H17Y23516   2.102   5.605  13.924 -1.9118  0.2984  0.1921
  190DOPC  C31823517   1.967   5.774  13.959 -0.2999 -0.3294  0.6921
  190DOPC  H18X23518   1.973   5.796  14.067 -1.6476 -2.9727  1.3839
  190DOPC  H18Y23519   1.928   5.864  13.906 -1.9125  0.1319  2.5610
  190DOPC  H18Z23520   1.881   5.704  13.959 -0.8782  0.3506 -0.2346
  191DOPC     N23521   5.695   6.154  12.661  0.0816 -0.7163 -0.5362
  191DOPC   C1223522   5.573   6.135  12.572 -0.0683 -0.2353 -0.1207
  191DOPC  H12A23523   5.512   6.052  12.603 -1.6557  1.5782  1.9989
  191DOPC  H12B23524   5.610   6.121  12.472 -1.5179 -0.8323 -0.5965
  191DOPC   C1323525   5.780   6.031  12.654 -0.5890  0.3655 -0.5434
  191DOPC  H13A23526   5.725   5.940  12.675 -1.6200  0.5639 -2.2461
  191DOPC  H13B23527   5.817   6.020  12.553 -2.4812 -0.5475 -1.1892
  191DOPC  H13C23528   5.864   6.028  12.722 -0.1327 -2.6180 -1.1206
  191DOPC   C1423529   5.653   6.168  12.805 -0.2103  0.6049 -0.4763
  191DOPC  H14A23530   5.580   6.247  12.813 -0.5819  0.3357 -1.1321
  191DOPC  H14B23531   5.613   6.077  12.848  0.1379  0.3340 -0.7149
  191DOPC  H14C23532   5.744   6.191  12.858 -0.3650  0.2755 -0.0630
  191DOPC   C1523533   5.781   6.272  12.620  0.2041  0.5469 -0.6790
  191DOPC  H15A23534   5.737   6.371  12.623 -1.9162 -0.1316 -4.1368
  191DOPC  H15B23535   5.818   6.265  12.519 -0.8632 -0.6088 -1.0155
  191DOPC  H15C23536   5.872   6.275  12.678 -0.6808  0.2613  0.7681
  191DOPC   C1123537   5.483   6.258  12.555 -0.1929 -0.3784  0.5520
  191DOPC  H11A23538   5.534   6.330  12.488 -0.5319 -3.1755 -3.0814
  191DOPC  H11B23539   5.399   6.226  12.489 -2.4263  1.9534  2.0636
  191DOPC     P23540   5.369   6.442  12.705 -0.1159 -0.3925 -0.2746
  191DOPC   O1323541   5.220   6.427  12.702 -0.3896 -0.9148  0.1455
  191DOPC   O1423542   5.431   6.544  12.621  0.4248 -0.4497  0.1190
  191DOPC   O1223543   5.429   6.298  12.682  0.2793 -0.4082  0.5358
  191DOPC   O1123544   5.400   6.485  12.853  0.2025  0.2942 -0.0761
  191DOPC    C123545   5.348   6.402  12.962  0.1959  0.4068  0.3357
  191DOPC    HA23546   5.388   6.300  12.947  1.9836  1.4109 -2.6580
  191DOPC    HB23547   5.237   6.408  12.966 -0.0728 -2.7002  0.2803
  191DOPC    C223548   5.401   6.459  13.101  0.3159  0.5153  0.5969
  191DOPC    HS23549   5.378   6.567  13.110 -2.3682  0.0371  0.1659
  191DOPC   O2123550   5.540   6.431  13.095 -0.3553  0.3764 -0.8143
  191DOPC   C2123551   5.620   6.507  13.174 -0.7622 -0.4916  0.3730
  191DOPC   O2223552   5.588   6.595  13.251  0.4889  0.4765 -0.1962
  191DOPC   C2223553   5.763   6.468  13.136  0.6713 -0.3106  0.6139
  191DOPC   H2R23554   5.827   6.554  13.163 -0.4548  0.5797  0.5073
  191DOPC   H2S23555   5.781   6.434  13.031  0.4338  1.5419 -0.0548
  191DOPC    C323556   5.340   6.376  13.209  0.1729 -0.5063  0.1538
  191DOPC    HX23557   5.351   6.268  13.185 -0.8273 -1.5774  3.8179
  191DOPC    HY23558   5.230   6.390  13.216 -0.0288 -1.3649 -1.0579
  191DOPC   O3123559   5.409   6.399  13.331  0.0955 -0.3485 -0.3167
  191DOPC   C3123560   5.360   6.507  13.401  0.3093  0.7724  0.3295
  191DOPC   O3223561   5.265   6.580  13.366  0.2422  0.6305  0.6744
  191DOPC   C3223562   5.459   6.522  13.520  0.0433 -0.4578 -0.7120
  191DOPC   H2X23563   5.530   6.437  13.527  0.2516 -0.2776 -0.6358
  191DOPC   H2Y23564   5.522   6.608  13.490 -0.1856 -0.6932 -1.9266
  191DOPC   C2323565   5.804   6.354  13.233  0.1783  0.0321 -0.7741
  191DOPC   H3R23566   5.795   6.380  13.341 -1.3235 -0.7168 -0.6896
  191DOPC   H3S23567   5.914   6.340  13.224  0.4778  1.1666  0.6635
  191DOPC   C2423568   5.724   6.225  13.220 -0.2413 -0.0694 -0.3578
  191DOPC   H4R23569   5.711   6.192  13.115 -2.6027  0.9407 -0.4454
  191DOPC   H4S23570   5.622   6.230  13.265  0.8446  1.8831  2.1812
  191DOPC   C2523571   5.799   6.113  13.301 -0.0344  1.1096  0.1150
  191DOPC   H5R23572   5.909   6.118  13.289  0.2832 -2.7121 -0.0181
  191DOPC   H5S23573   5.760   6.014  13.268  0.6745  0.6965  0.5015
  191DOPC   C2623574   5.767   6.122  13.458  0.2730 -0.7183  0.0317
  191DOPC   H6R23575   5.802   6.223  13.490 -0.9320 -0.0358 -0.7589
  191DOPC   H6S23576   5.826   6.047  13.515 -1.0973 -0.2164  2.2467
  191DOPC   C2723577   5.618   6.102  13.480 -0.2809  0.5567 -0.2548
  191DOPC   H7R23578   5.577   6.012  13.429 -2.1537  1.3006 -0.1391
  191DOPC   H7S23579   5.554   6.189  13.453 -1.2815  0.9518  2.9453
  191DOPC   C2823580   5.581   6.084  13.630 -0.0436 -0.3313 -0.8170
  191DOPC   H8R23581   5.645   6.001  13.667  2.8881  1.3810 -1.7393
  191DOPC   H8S23582   5.473   6.056  13.630 -0.5233  1.2801 -3.0906
  191DOPC   C2923583   5.606   6.214  13.711  0.7597  0.5116  0.3121
  191DOPC   H9R23584   5.692   6.273  13.675 -0.0672  0.7101 -1.4713
  191DOPC  C21023585   5.550   6.243  13.829  0.1843  0.8131  0.0198
  191DOPC  H10R23586   5.576   6.335  13.882  0.4696  1.1804 -0.7501
  191DOPC  C21123587   5.454   6.146  13.898  0.0534 -0.2997  0.1148
  191DOPC  H11R23588   5.422   6.061  13.833 -0.9851  0.1310  0.0402
  191DOPC  H11S23589   5.361   6.201  13.924 -0.1520 -0.1136 -0.9406
  191DOPC  C21223590   5.515   6.091  14.027 -0.5106 -0.6630 -0.2876
  191DOPC  H12R23591   5.614   6.048  14.001 -0.6840 -1.4077  0.2453
  191DOPC  H12S23592   5.445   6.012  14.063 -1.9624 -0.6506 -2.8520
  191DOPC  C21323593   5.521   6.194  14.140 -0.6699  0.2667 -0.2129
  191DOPC  H13R23594   5.416   6.222  14.165  0.0828  0.9543  2.5301
  191DOPC  H13S23595   5.563   6.292  14.109  0.4317 -0.3307 -0.6529
  191DOPC  C21423596   5.585   6.137  14.265 -0.8702  0.6317  0.4792
  191DOPC  H14R23597   5.691   6.113  14.242 -0.9818  1.3063 -0.8518
  191DOPC  H14S23598   5.537   6.040  14.290  0.8091 -0.5829 -0.7816
  191DOPC  C21523599   5.584   6.229  14.391  0.2561  0.4944 -1.0409
  191DOPC  H15R23600   5.484   6.268  14.419  0.1749 -1.4668  1.7919
  191DOPC  H15S23601   5.650   6.317  14.377 -1.0352  2.3565  3.1196
  191DOPC  C21623602   5.630   6.144  14.507 -0.2665 -0.0604  0.1857
  191DOPC  H16R23603   5.737   6.118  14.488  0.3276  0.7594  2.1583
  191DOPC  H16S23604   5.572   6.050  14.518 -1.6597  0.5286 -1.6251
  191DOPC  C21723605   5.632   6.224  14.636 -0.3323 -0.0100 -0.1425
  191DOPC  H17R23606   5.545   6.285  14.668  0.3143 -0.1914  2.1247
  191DOPC  H17S23607   5.712   6.301  14.631 -0.3453  0.0655  0.6498
  191DOPC  C21823608   5.669   6.133  14.754 -0.1576  0.1403  0.1320
  191DOPC  H18R23609   5.770   6.092  14.735 -0.9328 -2.1387  0.7231
  191DOPC  H18S23610   5.600   6.048  14.773 -0.1499 -0.5720 -2.6001
  191DOPC  H18T23611   5.680   6.195  14.846 -0.9996 -1.3232  1.2518
  191DOPC   C3323612   5.383   6.557  13.651 -0.2157  0.0455 -0.1001
  191DOPC   H3X23613   5.318   6.476  13.692  0.8508 -0.6121  0.3508
  191DOPC   H3Y23614   5.316   6.643  13.631 -0.4635  0.0370  0.6539
  191DOPC   C3423615   5.480   6.604  13.772  0.1581  0.3377 -0.1539
  191DOPC   H4X23616   5.488   6.715  13.770 -0.7520  0.4150  0.2508
  191DOPC   H4Y23617   5.578   6.553  13.759 -1.1379 -2.8810  1.4781
  191DOPC   C3523618   5.398   6.574  13.912 -0.0365  0.0958 -0.3112
  191DOPC   H5X23619   5.460   6.598  14.000 -0.3946 -0.6723  0.1624
  191DOPC   H5Y23620   5.388   6.463  13.910 -0.5882  0.1362  0.0962
  191DOPC   C3623621   5.264   6.641  13.920  0.6944 -0.7621 -0.3787
  191DOPC   H6X23622   5.286   6.750  13.922 -0.1391 -0.5583 -1.6118
  191DOPC   H6Y23623   5.194   6.625  13.836 -0.7431 -2.9757  1.1199
  191DOPC   C3723624   5.185   6.607  14.045 -0.4020  0.1351  0.5356
  191DOPC   H7X23625   5.252   6.635  14.129  2.0353  1.2909 -1.6598
  191DOPC   H7Y23626   5.093   6.670  14.044  1.4058  2.9739  0.4283
  191DOPC   C3823627   5.144   6.456  14.048  0.0936  0.2032  0.1459
  191DOPC   H8X23628   5.228   6.400  14.094 -0.6370 -0.6827  0.4272
  191DOPC   H8Y23629   5.138   6.428  13.941  2.0429 -0.6184  0.2030
  191DOPC   C3923630   5.012   6.419  14.115 -0.5964 -0.7642  1.3735
  191DOPC   H9X23631   4.923   6.448  14.057 -0.8227 -0.9143  1.6446
  191DOPC  C31023632   5.003   6.379  14.243  0.0028  0.0442  0.2739
  191DOPC  H10X23633   4.909   6.348  14.291  1.5815 -2.2817  2.1045
  191DOPC  C31123634   5.131   6.361  14.336  0.3150  1.0198 -0.1854
  191DOPC  H11X23635   5.204   6.442  14.313  0.1367  1.6002  1.1739
  191DOPC  H11Y23636   5.183   6.270  14.299 -3.5910 -1.8685  0.7460
  191DOPC  C31223637   5.100   6.357  14.487  0.2677  0.3456  0.2911
  191DOPC  H12X23638   5.077   6.256  14.525 -1.4184  0.0349 -1.4202
  191DOPC  H12Y23639   5.015   6.424  14.512 -0.5830 -0.7700  0.4317
  191DOPC  C31323640   5.223   6.403  14.572  0.8417  0.1941  0.2327
  191DOPC  H13X23641   5.308   6.331  14.561 -0.2148 -0.8492 -1.7236
  191DOPC  H13Y23642   5.260   6.496  14.525  1.2366 -0.6897 -1.2861
  191DOPC  C31423643   5.191   6.428  14.720  0.6714 -0.1965 -0.3031
  191DOPC  H14X23644   5.137   6.524  14.734  1.5274  0.7494 -3.0626
  191DOPC  H14Y23645   5.111   6.354  14.745  0.2247 -0.1934 -1.6648
  191DOPC  C31523646   5.319   6.425  14.814  0.4770 -0.0205  0.7033
  191DOPC  H15X23647   5.410   6.449  14.756 -1.0182  1.6371 -1.0680
  191DOPC  H15Y23648   5.333   6.325  14.860  1.5108 -1.5052 -2.5972
  191DOPC  C31623649   5.318   6.510  14.942  0.3137 -0.2627  0.2960
  191DOPC  H16X23650   5.307   6.618  14.916 -0.5023 -0.1508  1.0654
  191DOPC  H16Y23651   5.219   6.504  14.992 -0.0089 -0.6637 -0.3832
  191DOPC  C31723652   5.427   6.479  15.050  0.1802  0.2049 -0.0165
  191DOPC  H17X23653   5.464   6.379  15.018 -1.0663  0.7054 -3.4783
  191DOPC  H17Y23654   5.517   6.544  15.038  0.4969  0.0968  1.5835
  191DOPC  C31823655   5.379   6.483  15.193 -0.0380 -0.1111  0.0048
  191DOPC  H18X23656   5.283   6.428  15.207 -1.1286  1.2865 -1.6597
  191DOPC  H18Y23657   5.453   6.435  15.261  0.7203  2.7301  1.3378
  191DOPC  H18Z23658   5.371   6.587  15.229 -3.4419 -0.7487  1.4081
  192DOPC     N23659   1.032   5.201  13.038  0.0947  0.2628 -0.1772
  192DOPC   C1223660   0.939   5.087  13.031  0.0350  0.8672 -0.0255
  192DOPC  H12A23661   0.983   5.007  12.974 -1.3522  0.3536 -0.4093
  192DOPC  H12B23662   0.853   5.106  12.970 -0.2397  0.2350  0.1596
  192DOPC   C1323663   1.050   5.255  12.902  0.1457 -0.2654  0.0253
  192DOPC  H13A23664   1.127   5.330  12.903 -1.3102  1.3250  2.3274
  192DOPC  H13B23665   1.075   5.185  12.824  0.5034 -0.8164  0.6246
  192DOPC  H13C23666   0.959   5.307  12.878 -0.9619 -2.0205  0.2000
  192DOPC   C1423667   1.169   5.152  13.075  0.3077  1.0727  0.2788
  192DOPC  H14A23668   1.199   5.087  12.994 -3.5542  0.6799 -1.0702
  192DOPC  H14B23669   1.244   5.224  13.102 -0.2681  0.2061  5.3061
  192DOPC  H14C23670   1.155   5.090  13.163  1.0081  2.0385  1.0946
  192DOPC   C1523671   0.997   5.322  13.127  0.7303  0.2306  0.4207
  192DOPC  H15A23672   1.082   5.386  13.145 -0.4672  2.6317 -1.7407
  192DOPC  H15B23673   0.959   5.296  13.224  0.2979  0.2607  0.2626
  192DOPC  H15C23674   0.914   5.378  13.087  0.8417 -0.2414 -0.5268
  192DOPC   C1123675   0.899   5.023  13.173 -0.1142 -0.1222  0.9476
  192DOPC  H11A23676   0.873   4.915  13.168 -0.8639  0.0440  1.0964
  192DOPC  H11B23677   0.998   5.032  13.224  1.0694  1.0230 -1.3831
  192DOPC     P23678   0.649   5.071  13.196  0.1355 -0.1735 -0.2728
  192DOPC   O1323679   0.650   5.007  13.064 -0.1413 -0.0021  0.3534
  192DOPC   O1423680   0.552   5.179  13.233 -0.1133  0.2538  0.0972
  192DOPC   O1223681   0.800   5.109  13.235 -0.2150  0.1185  1.1437
  192DOPC   O1123682   0.620   4.958  13.304 -0.0908  0.3431  0.6945
  192DOPC    C123683   0.699   4.917  13.415 -0.9719 -0.3659  0.5481
  192DOPC    HA23684   0.787   4.981  13.438 -0.4947 -0.1333 -1.7260
  192DOPC    HB23685   0.733   4.813  13.400  2.6418  0.1797  3.4303
  192DOPC    C223686   0.640   4.937  13.559  0.8256  0.6425 -0.4409
  192DOPC    HS23687   0.723   4.928  13.632  0.3645  1.4688  0.2084
  192DOPC   O2123688   0.532   4.844  13.584  0.5096  0.4737  0.4260
  192DOPC   C2123689   0.578   4.720  13.611  0.0278  0.6252 -0.5557
  192DOPC   O2223690   0.695   4.694  13.629 -0.2081  0.0803 -0.4667
  192DOPC   C2223691   0.464   4.621  13.603 -0.2207  0.5791 -0.3916
  192DOPC   H2R23692   0.501   4.519  13.578  0.5394  0.5113  0.8849
  192DOPC   H2S23693   0.402   4.652  13.516 -0.5671 -0.6712 -0.6136
  192DOPC    C323694   0.580   5.080  13.576  0.1451 -0.5994  0.0318
  192DOPC    HX23695   0.483   5.073  13.522  1.1466 -2.1239 -1.6779
  192DOPC    HY23696   0.638   5.158  13.522  1.3880 -1.2357  0.3990
  192DOPC   O3123697   0.562   5.117  13.710  0.0147 -0.2623 -0.2058
  192DOPC   C3123698   0.452   5.117  13.781  0.0365 -0.4548 -0.0177
  192DOPC   O3223699   0.341   5.089  13.747  0.8240  0.9061  0.3947
  192DOPC   C3223700   0.483   5.136  13.928  0.3261 -0.5766 -0.7438
  192DOPC   H2X23701   0.443   5.042  13.971  1.4144 -0.6546  0.1264
  192DOPC   H2Y23702   0.590   5.161  13.940 -0.6807  3.5727  1.2238
  192DOPC   C2323703   0.378   4.615  13.732  0.6400  0.1147 -0.3843
  192DOPC   H3R23704   0.432   4.568  13.817 -0.4826  0.6752  0.6627
  192DOPC   H3S23705   0.294   4.543  13.721  1.4250 -0.8378 -0.3511
  192DOPC   C2423706   0.311   4.746  13.782 -0.1779 -0.5605 -0.9661
  192DOPC   H4R23707   0.240   4.790  13.709  0.9607  0.0075 -1.7698
  192DOPC   H4S23708   0.403   4.807  13.799 -0.4327 -0.5253  0.4570
  192DOPC   C2523709   0.245   4.740  13.923 -0.0076  0.8160  0.4204
  192DOPC   H5R23710   0.144   4.697  13.904  0.1676  0.0176  1.2706
  192DOPC   H5S23711   0.236   4.843  13.964  0.5993  1.3892 -0.8414
  192DOPC   C2623712   0.321   4.652  14.029  0.2433  0.3778 -0.2474
  192DOPC   H6R23713   0.424   4.690  14.051 -0.0353 -0.6738  3.7286
  192DOPC   H6S23714   0.328   4.545  14.000  0.1543 -0.1550  1.5470
  192DOPC   C2723715   0.242   4.641  14.162 -0.6888  0.4258 -0.2596
  192DOPC   H7R23716   0.134   4.624  14.139 -1.0647  2.2968 -0.0190
  192DOPC   H7S23717   0.234   4.732  14.225  0.8760 -1.5389  3.0529
  192DOPC   C2823718   0.285   4.532  14.262 -0.3375 -0.1264  0.7327
  192DOPC   H8R23719   0.271   4.432  14.216 -0.4308 -0.0916  0.6851
  192DOPC   H8S23720   0.227   4.546  14.356 -1.6504 -0.4281 -0.0187
  192DOPC   C2923721   0.431   4.542  14.295 -0.6689  0.9212  0.6919
  192DOPC   H9R23722   0.496   4.538  14.207 -1.3141  0.8551  0.2103
  192DOPC  C21023723   0.483   4.573  14.413  0.2648 -0.1080 -0.5148
  192DOPC  H10R23724   0.593   4.575  14.423  0.2989 -0.8294 -0.6585
  192DOPC  C21123725   0.423   4.600  14.547  0.3089  0.9146 -0.5240
  192DOPC  H11R23726   0.320   4.558  14.559 -0.1165  1.8157 -0.9950
  192DOPC  H11S23727   0.415   4.707  14.573 -0.4061  0.1437  3.1517
  192DOPC  C21223728   0.485   4.539  14.683 -0.6762 -0.0249 -0.5780
  192DOPC  H12R23729   0.415   4.556  14.767 -1.1357 -0.4366 -0.8752
  192DOPC  H12S23730   0.581   4.593  14.699  0.2118 -0.8071 -2.8081
  192DOPC  C21323731   0.509   4.391  14.671 -0.5283 -0.2329  0.4549
  192DOPC  H13R23732   0.557   4.361  14.575 -2.0025  2.6414 -1.3359
  192DOPC  H13S23733   0.418   4.327  14.671 -1.1804  0.6639 -0.7539
  192DOPC  C21423734   0.601   4.338  14.787 -0.6962  0.0146  0.2493
  192DOPC  H14R23735   0.536   4.339  14.877 -0.4001  3.2607  0.5339
  192DOPC  H14S23736   0.684   4.409  14.809 -0.5109  0.5146 -1.8551
  192DOPC  C21523737   0.655   4.196  14.757  1.0646 -0.7268 -0.0030
  192DOPC  H15R23738   0.720   4.212  14.669 -0.7866  0.3638 -1.2630
  192DOPC  H15S23739   0.566   4.137  14.727 -0.5951  1.3288  0.5561
  192DOPC  C21623740   0.732   4.131  14.870  0.0797  0.2862 -0.0270
  192DOPC  H16R23741   0.650   4.119  14.944 -0.5286  2.9269 -0.1788
  192DOPC  H16S23742   0.817   4.194  14.903  1.4855 -1.5748  0.1226
  192DOPC  C21723743   0.783   3.981  14.850 -0.0898  0.4145 -0.0428
  192DOPC  H17R23744   0.866   3.975  14.777  1.0638 -1.3797  1.3336
  192DOPC  H17S23745   0.692   3.927  14.816 -0.9886  1.1043  1.1856
  192DOPC  C21823746   0.830   3.918  14.987 -0.1688  0.5336 -0.1930
  192DOPC  H18R23747   0.937   3.941  15.008 -0.1660  0.2500  0.1114
  192DOPC  H18S23748   0.825   3.807  14.989  1.9279  0.3622 -1.2047
  192DOPC  H18T23749   0.762   3.957  15.066 -0.6007  1.0026 -0.7872
  192DOPC   C3323750   0.401   5.249  13.998 -0.5516 -0.4362  0.2898
  192DOPC   H3X23751   0.295   5.217  13.991 -0.3613 -1.4069  1.3860
  192DOPC   H3Y23752   0.405   5.345  13.942  0.9858  0.1718  1.3598
  192DOPC   C3423753   0.430   5.275  14.141  0.2476  0.5797  0.7030
  192DOPC   H4X23754   0.519   5.343  14.138  1.3876 -0.7681  2.2672
  192DOPC   H4Y23755   0.480   5.189  14.190  0.2289  1.9626  3.3312
  192DOPC   C3523756   0.307   5.322  14.215  0.5527  0.3557 -0.3539
  192DOPC   H5X23757   0.250   5.242  14.267 -1.5875  1.6270 -0.6153
  192DOPC   H5Y23758   0.230   5.361  14.145  0.1412  2.6666  1.2444
  192DOPC   C3623759   0.342   5.413  14.337 -0.5111 -0.4668  0.2708
  192DOPC   H6X23760   0.422   5.356  14.390  0.1082 -2.1665 -2.3288
  192DOPC   H6Y23761   0.393   5.505  14.302 -2.6745  1.1667  1.2036
  192DOPC   C3723762   0.229   5.435  14.432 -0.3454 -0.0725 -0.2281
  192DOPC   H7X23763   0.158   5.503  14.380 -2.1970 -1.4864  0.3553
  192DOPC   H7Y23764   0.169   5.343  14.450  0.8409 -1.1483 -1.4984
  192DOPC   C3823765   0.283   5.493  14.565 -0.5486  0.2756 -0.2551
  192DOPC   H8X23766   0.353   5.424  14.617 -0.1323  1.4140  0.7550
  192DOPC   H8Y23767   0.189   5.500  14.624 -0.6085  1.9796 -0.4833
  192DOPC   C3923768   0.341   5.635  14.574 -0.1118  0.1450 -0.3879
  192DOPC   H9X23769   0.451   5.638  14.572 -0.0394 -1.5927 -1.4065
  192DOPC  C31023770   0.294   5.746  14.630 -0.6610  0.1601  0.4042
  192DOPC  H10X23771   0.352   5.837  14.647  2.1597 -1.2450 -1.0650
  192DOPC  C31123772   0.154   5.766  14.672  0.0007 -0.0662 -0.7646
  192DOPC  H11X23773   0.088   5.677  14.667  0.7841 -0.6147 -4.0881
  192DOPC  H11Y23774   0.115   5.840  14.599  1.3483  0.6559 -0.7769
  192DOPC  C31223775   0.140   5.850  14.798  0.1075  0.3173 -1.0743
  192DOPC  H12X23776   0.044   5.824  14.848  0.4776  2.0423  0.6719
  192DOPC  H12Y23777   0.134   5.959  14.778 -0.0104  0.3660 -0.7858
  192DOPC  C31323778   0.243   5.827  14.915 -0.4110 -0.2657  0.6369
  192DOPC  H13X23779   0.233   5.721  14.949 -2.3524 -0.3208  0.0419
  192DOPC  H13Y23780   0.342   5.860  14.878 -0.6958  0.3070  0.3865
  192DOPC  C31423781   0.208   5.916  15.033  0.0044 -0.2956  0.1534
  192DOPC  H14X23782   0.104   5.955  15.035 -0.2280 -0.9338  0.5337
  192DOPC  H14Y23783   0.222   5.868  15.132  0.6325 -0.3862  0.0265
  192DOPC  C31523784   0.312   6.034  15.029  1.0678  0.9573 -0.3043
  192DOPC  H15X23785   0.311   6.088  14.932 -1.5102  1.8630  0.1444
  192DOPC  H15Y23786   0.410   5.984  15.046  0.8353  1.0999  1.6217
  192DOPC  C31623787   0.293   6.134  15.150  0.3928 -0.6470  0.3516
  192DOPC  H16X23788   0.306   6.078  15.245 -0.7053 -0.2202  0.7670
  192DOPC  H16Y23789   0.386   6.197  15.148  2.2092 -3.1516 -1.9765
  192DOPC  C31723790   0.162   6.214  15.143 -0.9959 -0.2066 -0.2324
  192DOPC  H17X23791   0.078   6.143  15.153  1.4947 -3.2629  0.3803
  192DOPC  H17Y23792   0.162   6.284  15.229 -1.3588 -0.5226  0.0231
  192DOPC  C31823793   0.151   6.312  15.030 -0.2053 -0.7996  0.2170
  192DOPC  H18X23794   0.048   6.350  15.015 -0.3113 -0.0226  2.5946
  192DOPC  H18Y23795   0.206   6.408  15.039 -1.4251 -0.0259 -0.2897
  192DOPC  H18Z23796   0.169   6.264  14.931 -0.8880 -3.4351  1.2889
  193DOPC     N23797   0.494   0.978  12.776  0.0989  1.2166 -0.1769
  193DOPC   C1223798   0.613   0.967  12.870  0.2109  0.3937  0.5284
  193DOPC  H12A23799   0.634   0.862  12.884  1.5066  0.6768  0.8225
  193DOPC  H12B23800   0.566   1.008  12.959 -0.8793  1.4380 -0.4754
  193DOPC   C1323801   0.525   0.937  12.636  0.4465  0.5413 -0.4925
  193DOPC  H13A23802   0.582   0.845  12.631  1.2591  1.0772 -1.4308
  193DOPC  H13B23803   0.436   0.923  12.576  0.4339 -0.8927 -0.1803
  193DOPC  H13C23804   0.579   1.012  12.580 -2.3167  2.2837 -1.0097
  193DOPC   C1423805   0.440   1.115  12.761 -0.6863  0.5072  0.2288
  193DOPC  H14A23806   0.523   1.180  12.738 -1.8463  1.8190 -0.4596
  193DOPC  H14B23807   0.370   1.126  12.679 -1.0451  0.0245  0.4651
  193DOPC  H14C23808   0.397   1.160  12.850  0.8912  4.0741 -0.6152
  193DOPC   C1523809   0.379   0.888  12.819  0.6635  0.3350 -0.4399
  193DOPC  H15A23810   0.413   0.785  12.823  1.2059  0.5290  0.0545
  193DOPC  H15B23811   0.294   0.908  12.756  0.0453  0.2134  0.3430
  193DOPC  H15C23812   0.343   0.910  12.918 -0.8738 -0.3494 -0.8170
  193DOPC   C1123813   0.738   1.057  12.852  0.4414 -0.3776  0.2398
  193DOPC  H11A23814   0.820   1.027  12.920 -0.3559 -0.4871  1.1743
  193DOPC  H11B23815   0.782   1.034  12.752 -2.0562  1.2517 -1.3425
  193DOPC     P23816   0.746   1.278  12.993  0.0446  0.1756  0.2201
  193DOPC   O1323817   0.710   1.419  12.976  0.5251 -0.2691 -0.0554
  193DOPC   O1423818   0.886   1.239  13.020  0.5165 -0.4245 -0.2972
  193DOPC   O1223819   0.713   1.200  12.857 -0.3501  0.0434  0.7559
  193DOPC   O1123820   0.653   1.220  13.101 -0.0950  1.2811 -1.2808
  193DOPC    C123821   0.518   1.252  13.136 -0.1989 -0.0717  0.5950
  193DOPC    HA23822   0.459   1.161  13.162 -3.3764  1.3307 -1.1141
  193DOPC    HB23823   0.471   1.304  13.050  1.6378  1.1919  0.3018
  193DOPC    C223824   0.506   1.352  13.255 -0.4548  0.4699  0.0724
  193DOPC    HS23825   0.567   1.441  13.230 -0.7398  0.8312  0.6428
  193DOPC   O2123826   0.543   1.285  13.372 -0.0098  0.9213  0.0518
  193DOPC   C2123827   0.673   1.307  13.403  0.2130 -0.3457 -0.1745
  193DOPC   O2223828   0.750   1.384  13.341 -0.0674 -0.0684 -0.4151
  193DOPC   C2223829   0.712   1.225  13.525 -0.1400  0.1597 -0.4922
  193DOPC   H2R23830   0.821   1.204  13.525  0.5400  3.1446 -0.3624
  193DOPC   H2S23831   0.660   1.127  13.520  1.6297 -1.0263  2.0049
  193DOPC    C323832   0.354   1.396  13.269 -0.1919  0.3500 -0.5928
  193DOPC    HX23833   0.308   1.308  13.319 -0.0901 -1.1785 -3.0303
  193DOPC    HY23834   0.317   1.398  13.165  0.3324  1.9083 -0.7642
  193DOPC   O3123835   0.326   1.516  13.346 -0.8242  0.2316  0.0099
  193DOPC   C3123836   0.368   1.633  13.298 -0.1052  0.4068 -0.2866
  193DOPC   O3223837   0.455   1.647  13.212  0.1877  0.0925  0.1019
  193DOPC   C3223838   0.295   1.745  13.374  0.0512 -0.0061 -0.0715
  193DOPC   H2X23839   0.193   1.708  13.399 -0.2488  1.8203  1.6983
  193DOPC   H2Y23840   0.339   1.759  13.475 -1.2455 -1.5893  0.7698
  193DOPC   C2323841   0.661   1.311  13.648  0.1864 -0.4316 -0.6317
  193DOPC   H3R23842   0.660   1.242  13.735 -0.0121  0.6890  0.2756
  193DOPC   H3S23843   0.555   1.337  13.630  0.6189  2.0267  0.0344
  193DOPC   C2423844   0.739   1.444  13.680  0.4096  0.1828  0.0198
  193DOPC   H4R23845   0.710   1.516  13.601 -2.1112  0.0373  0.7291
  193DOPC   H4S23846   0.846   1.416  13.669  0.6114  0.6106  0.8128
  193DOPC   C2523847   0.710   1.503  13.820  0.5644  0.5359  0.0848
  193DOPC   H5R23848   0.603   1.531  13.831  0.3799 -0.6541  1.7144
  193DOPC   H5S23849   0.772   1.595  13.824 -1.5320  1.9912  0.4497
  193DOPC   C2623850   0.765   1.406  13.930 -0.5909  0.7298  0.0919
  193DOPC   H6R23851   0.872   1.384  13.908 -0.2338  1.8113  0.6859
  193DOPC   H6S23852   0.704   1.313  13.933  0.0884  0.1360 -2.2562
  193DOPC   C2723853   0.777   1.475  14.063 -0.5495  0.2723  0.3236
  193DOPC   H7R23854   0.683   1.530  14.086  0.5091  1.3925  2.2694
  193DOPC   H7S23855   0.847   1.559  14.042 -1.3185  1.1193  1.0770
  193DOPC   C2823856   0.826   1.392  14.179  1.0807  0.1244  0.5432
  193DOPC   H8R23857   0.918   1.438  14.220  0.2276  1.7201  0.7119
  193DOPC   H8S23858   0.850   1.293  14.133  0.4953  0.2340 -0.0112
  193DOPC   C2923859   0.714   1.382  14.283 -0.0322  0.6266 -0.1964
  193DOPC   H9R23860   0.617   1.349  14.244  1.0179 -0.2551 -2.2157
  193DOPC  C21023861   0.729   1.393  14.418  1.0750  0.1103 -0.1943
  193DOPC  H10R23862   0.638   1.381  14.478 -0.1854  1.2677 -1.7940
  193DOPC  C21123863   0.857   1.437  14.491 -0.0301  0.1279  0.1487
  193DOPC  H11R23864   0.951   1.414  14.438 -0.3537 -4.1669  1.0220
  193DOPC  H11S23865   0.857   1.380  14.587  2.0888 -0.5712 -0.2245
  193DOPC  C21223866   0.869   1.578  14.540  0.0624  0.5247 -0.2458
  193DOPC  H12R23867   0.924   1.580  14.637 -1.6677 -0.2511  0.7922
  193DOPC  H12S23868   0.767   1.620  14.549 -0.4844 -0.7682 -0.2340
  193DOPC  C21323869   0.956   1.654  14.433  0.5307  0.0099 -0.0257
  193DOPC  H13R23870   0.918   1.630  14.332 -0.1843 -0.4986  0.3487
  193DOPC  H13S23871   1.061   1.620  14.423  0.2372 -0.9608  0.0660
  193DOPC  C21423872   0.954   1.808  14.459 -0.1599 -0.4482 -0.6355
  193DOPC  H14R23873   1.018   1.858  14.383  0.0324 -0.6533 -0.6101
  193DOPC  H14S23874   0.989   1.830  14.562  2.3424 -0.7668 -1.3406
  193DOPC  C21523875   0.813   1.861  14.446 -0.0640 -0.0633  0.4070
  193DOPC  H15R23876   0.754   1.839  14.537  1.2705  1.4013  1.6744
  193DOPC  H15S23877   0.763   1.810  14.361 -0.9075  1.7671 -0.2562
  193DOPC  C21623878   0.810   2.014  14.414 -0.0591  0.1095 -0.4847
  193DOPC  H16R23879   0.708   2.035  14.373 -0.4226  1.4254  0.9956
  193DOPC  H16S23880   0.878   2.032  14.328 -0.5776 -1.5734 -1.2990
  193DOPC  C21723881   0.858   2.105  14.525 -0.0483  0.5453  0.4820
  193DOPC  H17R23882   0.954   2.070  14.569 -1.5227 -1.0232  2.6965
  193DOPC  H17S23883   0.784   2.107  14.608  0.1165  1.4219  0.6263
  193DOPC  C21823884   0.885   2.242  14.484 -0.4830 -0.3848 -0.0092
  193DOPC  H18R23885   0.793   2.301  14.466 -1.5174 -2.1664 -0.7186
  193DOPC  H18S23886   0.951   2.243  14.395  1.3310 -2.1262  1.2089
  193DOPC  H18T23887   0.932   2.298  14.569  0.7627 -1.2256 -0.1111
  193DOPC   C3323888   0.289   1.883  13.300 -0.4867  0.3448  0.3523
  193DOPC   H3X23889   0.249   1.877  13.196 -1.3949  0.8744  0.6526
  193DOPC   H3Y23890   0.393   1.923  13.302 -1.4045  2.9114  0.8052
  193DOPC   C3423891   0.202   1.985  13.371 -0.4110 -0.0470  0.2002
  193DOPC   H4X23892   0.094   1.961  13.364 -0.6435  0.7362  0.9224
  193DOPC   H4Y23893   0.211   2.077  13.310  0.8773  1.6487  2.7574
  193DOPC   C3523894   0.237   2.027  13.513  0.1055 -0.0268 -0.8655
  193DOPC   H5X23895   0.292   2.122  13.528 -0.7720  0.0700  2.7496
  193DOPC   H5Y23896   0.303   1.947  13.552 -1.5754 -1.4792 -0.8527
  193DOPC   C3623897   0.121   2.019  13.616 -0.6549 -0.6227  0.2255
  193DOPC   H6X23898   0.092   2.125  13.632 -0.9599 -0.7930  0.8204
  193DOPC   H6Y23899   0.031   1.963  13.584 -0.7200 -0.1570 -0.4315
  193DOPC   C3723900   0.165   1.980  13.765  0.3624  0.5753 -0.0638
  193DOPC   H7X23901   0.091   2.006  13.843  0.5347 -1.3206  0.7605
  193DOPC   H7Y23902   0.171   1.870  13.755 -0.3088  0.5994 -0.8523
  193DOPC   C3823903   0.295   2.041  13.814 -0.9125 -0.0119 -0.4037
  193DOPC   H8X23904   0.379   2.001  13.752  0.2345  1.7616 -0.0959
  193DOPC   H8Y23905   0.304   1.998  13.916 -1.7976  0.8207  0.0293
  193DOPC   C3923906   0.301   2.195  13.808  0.3194  0.4396  0.0353
  193DOPC   H9X23907   0.267   2.242  13.715  0.7895 -2.1859 -1.5875
  193DOPC  C31023908   0.329   2.276  13.907  0.6852 -0.0335 -0.6670
  193DOPC  H10X23909   0.334   2.383  13.881 -1.1155  0.2023 -0.2123
  193DOPC  C31123910   0.362   2.247  14.048 -1.2537 -0.1128  0.3378
  193DOPC  H11X23911   0.337   2.142  14.074  0.1784 -0.5256  0.1252
  193DOPC  H11Y23912   0.309   2.314  14.119  1.0571  2.1856  0.0196
  193DOPC  C31223913   0.508   2.270  14.099 -0.0004 -0.2281  0.1984
  193DOPC  H12X23914   0.532   2.377  14.115  0.8454 -0.3868  0.0723
  193DOPC  H12Y23915   0.578   2.222  14.028  1.7525  1.8503  0.4253
  193DOPC  C31323916   0.538   2.204  14.229  0.2255 -0.2778 -0.3528
  193DOPC  H13X23917   0.538   2.093  14.227  0.4630 -0.2724 -2.5037
  193DOPC  H13Y23918   0.647   2.217  14.244 -0.1735  1.6199  1.3007
  193DOPC  C31423919   0.443   2.236  14.345  0.4559  0.1136  0.6200
  193DOPC  H14X23920   0.446   2.347  14.354  2.0865  0.0485  1.2759
  193DOPC  H14Y23921   0.340   2.211  14.313  1.1903 -0.1862 -1.7466
  193DOPC  C31523922   0.483   2.170  14.475 -0.3139 -0.3589  0.4119
  193DOPC  H15X23923   0.448   2.234  14.559 -0.7192 -0.2214  0.1412
  193DOPC  H15Y23924   0.594   2.174  14.475 -0.2893 -0.8350 -0.1203
  193DOPC  C31623925   0.435   2.021  14.488  0.2474 -0.0796  0.0401
  193DOPC  H16X23926   0.324   2.016  14.474  0.5663 -3.0552 -2.5111
  193DOPC  H16Y23927   0.476   1.961  14.404  1.6964 -0.2565  0.8574
  193DOPC  C31723928   0.481   1.959  14.618  0.1338  0.6626 -0.2747
  193DOPC  H17X23929   0.590   1.975  14.633  0.0728 -0.3948  1.5359
  193DOPC  H17Y23930   0.422   2.014  14.694 -0.6099  0.7064 -0.8721
  193DOPC  C31823931   0.461   1.808  14.620 -0.7985  0.2470 -0.2818
  193DOPC  H18X23932   0.468   1.761  14.720 -1.6167  1.3883  0.3328
  193DOPC  H18Y23933   0.360   1.794  14.576 -1.6673 -0.5486  1.8626
  193DOPC  H18Z23934   0.538   1.766  14.551  0.0148  0.1688  0.6403
  194DOPC     N23935   2.887   7.360  12.041  0.1761  0.3478 -0.3585
  194DOPC   C1223936   2.841   7.238  12.118  0.2974 -0.4197  0.3044
  194DOPC  H12A23937   2.922   7.172  12.143  1.7932  0.3919 -2.0288
  194DOPC  H12B23938   2.769   7.191  12.052  0.0262  0.2997  0.0729
  194DOPC   C1323939   2.780   7.455  12.007 -0.7006  0.0290  0.8790
  194DOPC  H13A23940   2.828   7.546  11.976  1.7735 -1.3536  0.3900
  194DOPC  H13B23941   2.717   7.426  11.924 -0.5519  2.0172  0.0359
  194DOPC  H13C23942   2.723   7.477  12.096  0.3293  2.1756  1.0685
  194DOPC   C1423943   2.959   7.312  11.916 -0.3961 -0.3584  0.0364
  194DOPC  H14A23944   3.058   7.279  11.944  0.6075  2.4262  0.0740
  194DOPC  H14B23945   2.892   7.240  11.872 -0.3279 -0.8742  0.7611
  194DOPC  H14C23946   2.986   7.397  11.854  2.2212 -0.8647  0.3526
  194DOPC   C1523947   2.993   7.433  12.125 -0.7706  0.3914  0.1809
  194DOPC  H15A23948   3.025   7.526  12.081  2.7784  1.4001  4.1830
  194DOPC  H15B23949   3.087   7.380  12.130 -0.2232  1.3382  0.1947
  194DOPC  H15C23950   2.955   7.453  12.224  2.2977  0.3831  1.4763
  194DOPC   C1123951   2.772   7.269  12.253  0.0463 -0.2618  0.6550
  194DOPC  H11A23952   2.701   7.355  12.247 -1.1576 -0.8598  3.8186
  194DOPC  H11B23953   2.722   7.171  12.265 -0.2323 -0.1447  0.4814
  194DOPC     P23954   2.965   7.211  12.446 -0.0725 -0.2217  0.8345
  194DOPC   O1323955   3.021   7.285  12.564  0.0964  0.2077  0.4587
  194DOPC   O1423956   3.062   7.155  12.349 -0.2215 -0.1517  0.1642
  194DOPC   O1223957   2.861   7.307  12.359 -0.1356  1.1699 -0.5423
  194DOPC   O1123958   2.860   7.101  12.493 -0.1447 -0.5482  0.2894
  194DOPC    C123959   2.883   7.039  12.614  0.1655  0.3059  0.6002
  194DOPC    HA23960   2.990   7.024  12.637 -0.1498 -1.7897  0.9479
  194DOPC    HB23961   2.846   6.934  12.607  0.9723 -0.0017  0.8559
  194DOPC    C223962   2.814   7.109  12.732  0.0584  0.1006 -0.7233
  194DOPC    HS23963   2.863   7.205  12.759  3.7000 -1.6255 -0.5053
  194DOPC   O2123964   2.812   7.017  12.846  0.1137  0.3365 -0.2564
  194DOPC   C2123965   2.931   7.007  12.902  0.3709  0.2436  1.0136
  194DOPC   O2223966   3.034   7.053  12.866 -0.2926  0.4573  0.2068
  194DOPC   C2223967   2.919   6.920  13.025  0.2088  0.3755 -0.7992
  194DOPC   H2R23968   3.014   6.944  13.078 -0.1220 -0.8085  0.3823
  194DOPC   H2S23969   2.902   6.811  13.008 -0.4313  0.1099  1.3258
  194DOPC    C323970   2.671   7.131  12.695  0.8956 -0.3309 -0.8136
  194DOPC    HX23971   2.629   7.038  12.652 -1.9984  0.2573  0.4943
  194DOPC    HY23972   2.676   7.205  12.613  0.1446  0.2470 -0.3494
  194DOPC   O3123973   2.604   7.178  12.815  0.0523 -0.4033  0.0314
  194DOPC   C3123974   2.507   7.094  12.861 -0.2724  0.0527 -0.3070
  194DOPC   O3223975   2.465   6.997  12.801 -0.5070 -0.3969 -0.6048
  194DOPC   C3223976   2.460   7.137  12.996  0.3015 -0.0993 -0.3878
  194DOPC   H2X23977   2.543   7.179  13.055 -1.4186  1.8968  0.7512
  194DOPC   H2Y23978   2.385   7.219  12.987 -0.4497 -0.6775  0.3608
  194DOPC   C2323979   2.807   6.968  13.123 -0.3747  1.0246 -0.9437
  194DOPC   H3R23980   2.704   6.938  13.093 -0.9001  1.7424  0.0744
  194DOPC   H3S23981   2.807   7.079  13.129  1.3642  1.0466 -0.8511
  194DOPC   C2423982   2.827   6.915  13.269 -0.2777  0.8486  0.6339
  194DOPC   H4R23983   2.936   6.914  13.293 -0.1670 -2.9451  0.5994
  194DOPC   H4S23984   2.793   6.812  13.245 -3.1494  2.0855 -1.0915
  194DOPC   C2523985   2.744   6.976  13.379  0.0144  0.2179 -0.8012
  194DOPC   H5R23986   2.636   6.978  13.355 -0.1072  2.1627 -0.3124
  194DOPC   H5S23987   2.777   7.080  13.404 -0.1276  0.0764  0.0060
  194DOPC   C2623988   2.762   6.891  13.510 -0.2690  0.3601  0.6682
  194DOPC   H6R23989   2.872   6.880  13.525 -0.2750  0.1497  0.5599
  194DOPC   H6S23990   2.722   6.788  13.497  2.0638 -0.2836 -2.7123
  194DOPC   C2723991   2.709   6.961  13.637  0.0498  0.3171  0.1367
  194DOPC   H7R23992   2.604   6.986  13.611 -0.1998  0.1755  0.9962
  194DOPC   H7S23993   2.772   7.052  13.652 -1.5424  1.5629 -0.4109
  194DOPC   C2823994   2.713   6.870  13.765  0.4379  0.7634  0.5169
  194DOPC   H8R23995   2.812   6.859  13.815  0.7888 -1.2458 -0.5053
  194DOPC   H8S23996   2.680   6.770  13.730  1.4012  1.2003 -1.8513
  194DOPC   C2923997   2.624   6.930  13.873 -0.1152 -0.4678  0.3381
  194DOPC   H9R23998   2.517   6.934  13.852  0.1958 -1.7699 -1.8491
  194DOPC  C21023999   2.658   6.986  13.992 -0.6816 -0.1779  0.4671
  194DOPC  H10R24000   2.577   7.030  14.051 -1.0339 -0.7499  0.4104
  194DOPC  C21124001   2.791   6.980  14.056 -0.9349 -0.7822  0.4836
  194DOPC  H11R24002   2.828   7.072  14.106 -2.4896  0.4861 -0.6230
  194DOPC  H11S24003   2.875   6.937  13.997  0.9939  1.1256  1.7021
  194DOPC  C21224004   2.788   6.878  14.167  0.6858 -0.4429 -0.2464
  194DOPC  H12R24005   2.784   6.778  14.118  1.2944  0.0869 -1.4405
  194DOPC  H12S24006   2.694   6.890  14.224  1.2500  0.9163  0.4313
  194DOPC  C21324007   2.908   6.867  14.254  0.9030 -0.2402  0.8615
  194DOPC  H13R24008   2.997   6.868  14.188 -0.6982 -2.1670 -1.4792
  194DOPC  H13S24009   2.887   6.763  14.287 -1.1877 -0.3614 -0.6260
  194DOPC  C21424010   2.911   6.975  14.360  0.1487 -0.4918  0.5336
  194DOPC  H14R24011   2.808   6.980  14.402  0.5838 -2.1038  1.8670
  194DOPC  H14S24012   2.938   7.068  14.305 -0.7098 -1.6260 -1.9906
  194DOPC  C21524013   3.020   6.944  14.462  0.0305 -0.3372 -0.0750
  194DOPC  H15R24014   3.113   6.937  14.402  1.1550 -1.0724  1.6749
  194DOPC  H15S24015   3.013   6.846  14.515 -0.4352 -0.2930 -0.0566
  194DOPC  C21624016   3.024   7.052  14.571 -0.0153  0.1694 -0.6652
  194DOPC  H16R24017   2.926   7.055  14.622  0.0256 -2.2146 -0.3653
  194DOPC  H16S24018   3.034   7.149  14.517 -0.9659  0.9364  0.4920
  194DOPC  C21724019   3.139   7.024  14.676  0.5635  0.1096 -0.1206
  194DOPC  H17R24020   3.225   7.043  14.608  0.2372 -0.3444 -0.6768
  194DOPC  H17S24021   3.131   6.917  14.704 -1.4692  0.1248 -0.4506
  194DOPC  C21824022   3.132   7.120  14.801 -0.0088 -0.4723  0.4448
  194DOPC  H18R24023   3.045   7.101  14.868 -1.0418  0.9495 -0.4539
  194DOPC  H18S24024   3.110   7.224  14.768  1.9402  0.3800  1.6764
  194DOPC  H18T24025   3.229   7.127  14.855  0.0579 -0.0535  0.2699
  194DOPC   C3324026   2.404   7.020  13.074  0.3375  0.1459 -0.2881
  194DOPC   H3X24027   2.483   6.941  13.074 -0.3295 -0.5349  0.8836
  194DOPC   H3Y24028   2.313   6.972  13.033  0.7907 -0.3677 -0.7158
  194DOPC   C3424029   2.375   7.064  13.215  0.1577 -0.0071 -0.2450
  194DOPC   H4X24030   2.284   7.128  13.217  0.4186  0.4107 -1.1653
  194DOPC   H4Y24031   2.456   7.125  13.260  0.2113 -0.4309  0.2378
  194DOPC   C3524032   2.354   6.946  13.313 -0.1659 -0.2088 -0.1960
  194DOPC   H5X24033   2.436   6.873  13.297  0.6791  1.1574 -2.6059
  194DOPC   H5Y24034   2.263   6.892  13.278 -1.4211  0.5514  1.7446
  194DOPC   C3624035   2.344   6.991  13.458 -0.1396 -0.2293  0.6978
  194DOPC   H6X24036   2.310   6.903  13.517 -0.8347 -0.6755 -0.3253
  194DOPC   H6Y24037   2.445   7.027  13.487 -0.2840  0.1498  0.7367
  194DOPC   C3724038   2.241   7.102  13.488  0.8887  0.4430  0.0314
  194DOPC   H7X24039   2.281   7.197  13.447  1.8296  0.4325  0.8892
  194DOPC   H7Y24040   2.141   7.089  13.441  1.3882 -1.6230 -0.5749
  194DOPC   C3824041   2.230   7.119  13.648 -0.0282  0.6890 -0.1220
  194DOPC   H8X24042   2.160   7.203  13.668  1.7440  2.1400  0.2018
  194DOPC   H8Y24043   2.329   7.137  13.695 -0.2388 -0.0791  0.6359
  194DOPC   C3924044   2.146   7.007  13.713 -0.1861  0.8526  0.2463
  194DOPC   H9X24045   2.119   6.926  13.643 -2.5674  0.2296  1.7822
  194DOPC  C31024046   2.102   6.995  13.839  0.1051 -0.9263 -0.5606
  194DOPC  H10X24047   2.046   6.906  13.872 -2.5771  1.5363  2.1595
  194DOPC  C31124048   2.129   7.090  13.950  0.5858  0.2596 -1.3437
  194DOPC  H11X24049   2.028   7.108  13.991  2.0083  0.8826  2.2983
  194DOPC  H11Y24050   2.176   7.184  13.913  1.6556  0.2863 -0.0065
  194DOPC  C31224051   2.220   7.041  14.060  0.2821 -0.1508  0.2300
  194DOPC  H12X24052   2.317   7.006  14.019  0.8571 -0.2346  1.6162
  194DOPC  H12Y24053   2.175   6.948  14.101 -0.7191 -1.0728 -2.6732
  194DOPC  C31324054   2.256   7.157  14.151 -0.1811  0.5128  0.3514
  194DOPC  H13X24055   2.314   7.228  14.088  0.1877  0.3824  0.5438
  194DOPC  H13Y24056   2.164   7.215  14.175  0.5776  2.2803 -0.8178
  194DOPC  C31424057   2.327   7.123  14.281  0.0178 -0.3523  0.6455
  194DOPC  H14X24058   2.258   7.054  14.334  0.3515 -0.2877  1.1751
  194DOPC  H14Y24059   2.418   7.061  14.267  1.9108  2.2736  0.4986
  194DOPC  C31524060   2.367   7.257  14.339  0.4929 -0.4153 -0.3326
  194DOPC  H15X24061   2.383   7.244  14.448 -3.4485 -0.6937  0.3634
  194DOPC  H15Y24062   2.287   7.334  14.333  2.1071  1.4249  0.4766
  194DOPC  C31624063   2.498   7.320  14.286 -0.3292  0.0184  0.3161
  194DOPC  H16X24064   2.572   7.238  14.277  0.6604  1.0846 -2.2500
  194DOPC  H16Y24065   2.468   7.371  14.191  1.3663  0.6751  0.0880
  194DOPC  C31724066   2.555   7.428  14.381  0.1473  0.2619 -0.2450
  194DOPC  H17X24067   2.612   7.503  14.323  0.9757 -1.3935 -1.6771
  194DOPC  H17Y24068   2.472   7.467  14.443 -1.0490 -1.2997 -0.8141
  194DOPC  C31824069   2.650   7.372  14.487  0.5083 -0.0630  0.1526
  194DOPC  H18X24070   2.681   7.444  14.566  2.0634 -1.5049  0.9415
  194DOPC  H18Y24071   2.611   7.281  14.538 -2.2285  0.4309 -0.9439
  194DOPC  H18Z24072   2.740   7.336  14.431 -0.9323 -0.8696 -1.7521
  195DOPC     N24073   6.065   5.261  12.671 -0.3424 -0.6251 -0.1179
  195DOPC   C1224074   6.020   5.332  12.802  0.0027  0.2839  0.6673
  195DOPC  H12A24075   5.936   5.278  12.843 -1.6730  0.9406 -1.7144
  195DOPC  H12B24076   5.983   5.431  12.781  0.4365  0.3482  0.1904
  195DOPC   C1324077   5.947   5.217  12.592 -0.6126 -0.1048 -0.6752
  195DOPC  H13A24078   5.878   5.296  12.567 -1.3392 -0.8088 -0.9336
  195DOPC  H13B24079   5.970   5.161  12.503  0.7377 -0.9183  0.1353
  195DOPC  H13C24080   5.890   5.138  12.640  1.0805 -1.2562 -0.4541
  195DOPC   C1424081   6.148   5.145  12.706 -0.3154  0.3141  0.2372
  195DOPC  H14A24082   6.094   5.071  12.762 -0.2080  0.1065  0.0683
  195DOPC  H14B24083   6.184   5.088  12.622 -0.7837 -0.5784  0.6295
  195DOPC  H14C24084   6.234   5.175  12.764 -1.3945 -1.5867  3.0070
  195DOPC   C1524085   6.137   5.357  12.578  0.0229 -0.2930  0.4497
  195DOPC  H15A24086   6.077   5.432  12.527 -0.8225 -0.3776  1.2873
  195DOPC  H15B24087   6.204   5.311  12.506  0.9239  0.6390  0.6792
  195DOPC  H15C24088   6.203   5.404  12.648  0.4381  0.1382 -0.2135
  195DOPC   C1124089   6.132   5.354  12.911 -0.4277  0.3565  0.3273
  195DOPC  H11A24090   6.085   5.417  12.989  0.9119  0.2132  1.2811
  195DOPC  H11B24091   6.170   5.258  12.952  3.2808  1.0945 -1.0373
  195DOPC     P24092   6.373   5.461  12.916  0.0430 -0.0357  0.4850
  195DOPC   O1324093   6.483   5.473  12.816  0.3452  0.6973  0.3900
  195DOPC   O1424094   6.391   5.373  13.029  0.5217 -0.1913 -0.0064
  195DOPC   O1224095   6.248   5.416  12.843  0.1468  0.3755 -0.2036
  195DOPC   O1124096   6.328   5.607  12.961 -0.2096  0.2630  0.2764
  195DOPC    C124097   6.227   5.623  13.061 -0.1522 -0.0915  0.3750
  195DOPC    HA24098   6.199   5.535  13.124 -2.1104  0.1582 -0.0947
  195DOPC    HB24099   6.131   5.656  13.017 -0.6469 -1.1963  0.5795
  195DOPC    C224100   6.279   5.726  13.162  0.3172 -0.6372  1.0891
  195DOPC    HS24101   6.369   5.769  13.114 -0.4468 -2.3634 -2.1938
  195DOPC   O2124102   6.309   5.663  13.291  0.1996  0.0021 -0.0821
  195DOPC   C2124103   6.400   5.737  13.364  0.3193  0.4046  0.3512
  195DOPC   O2224104   6.449   5.839  13.323  0.4680 -0.1721 -0.0810
  195DOPC   C2224105   6.439   5.670  13.500  0.3334 -0.3446 -0.3859
  195DOPC   H2R24106   6.476   5.567  13.481  1.7668  0.3320 -1.4886
  195DOPC   H2S24107   6.343   5.667  13.556  0.2073  2.4339 -0.3198
  195DOPC    C324108   6.182   5.852  13.171  0.2893  0.8456  0.8756
  195DOPC    HX24109   6.151   5.877  13.067  0.0080  1.2152  1.0443
  195DOPC    HY24110   6.225   5.938  13.226  0.1698  1.6768 -0.2820
  195DOPC   O3124111   6.057   5.806  13.230 -0.8504  0.1934  0.7418
  195DOPC   C3124112   6.047   5.808  13.362  1.0125 -0.2575 -0.8807
  195DOPC   O3224113   6.121   5.858  13.441 -0.5145 -0.3396 -0.1725
  195DOPC   C3224114   5.919   5.723  13.394  0.6753  0.5508  0.2890
  195DOPC   H2X24115   5.827   5.782  13.371 -0.7210 -0.9248  1.7810
  195DOPC   H2Y24116   5.920   5.633  13.330  0.8858  1.1486 -0.5628
  195DOPC   C2324117   6.544   5.749  13.573 -0.5707 -0.1595  0.4204
  195DOPC   H3R24118   6.495   5.846  13.594  1.4439  0.8537  0.6624
  195DOPC   H3S24119   6.640   5.773  13.522 -1.4445  2.1436 -0.2106
  195DOPC   C2424120   6.583   5.677  13.708  0.1597 -0.0669  0.1354
  195DOPC   H4R24121   6.675   5.617  13.690  0.4329  0.0892  0.9529
  195DOPC   H4S24122   6.500   5.610  13.737 -0.1014  0.9111  1.7642
  195DOPC   C2524123   6.603   5.770  13.830  0.6906 -0.4358  0.3010
  195DOPC   H5R24124   6.514   5.796  13.892 -1.1368 -1.1905 -1.8692
  195DOPC   H5S24125   6.647   5.864  13.791  0.8833 -1.2086 -1.3890
  195DOPC   C2624126   6.697   5.698  13.933  0.7035 -0.2204  0.7130
  195DOPC   H6R24127   6.648   5.601  13.956 -1.7735  1.4449  3.1221
  195DOPC   H6S24128   6.690   5.748  14.032 -0.7294  2.1382 -0.4868
  195DOPC   C2724129   6.840   5.690  13.889 -0.5308  0.5146 -0.6458
  195DOPC   H7R24130   6.861   5.609  13.815 -1.8606 -1.2463  0.7968
  195DOPC   H7S24131   6.892   5.646  13.977 -0.0069  0.6018 -0.9129
  195DOPC   C2824132   6.922   5.810  13.851 -0.2623  0.2717 -0.0723
  195DOPC   H8R24133   6.872   5.901  13.891 -2.7698 -1.3949  0.8088
  195DOPC   H8S24134   6.887   5.814  13.745 -2.1119  0.2954  0.4987
  195DOPC   C2924135   7.074   5.792  13.851 -0.3451 -0.1047  0.1988
  195DOPC   H9R24136   7.114   5.722  13.776  1.0454  1.3189 -0.4486
  195DOPC  C21024137   7.167   5.849  13.932 -0.1315  0.0050  0.1198
  195DOPC  H10R24138   7.270   5.812  13.931 -0.9399 -2.4246 -1.2895
  195DOPC  C21124139   7.142   5.933  14.054  0.5037  0.0115 -0.1084
  195DOPC  H11R24140   7.036   5.957  14.080  0.3787  0.3737 -0.9111
  195DOPC  H11S24141   7.191   6.032  14.037  2.0221 -0.1439  2.7542
  195DOPC  C21224142   7.210   5.864  14.167 -0.2655 -0.4040  0.3004
  195DOPC  H12R24143   7.314   5.851  14.130  0.1333  1.6783  0.5758
  195DOPC  H12S24144   7.162   5.766  14.188 -1.4812 -0.0721 -0.7626
  195DOPC  C21324145   7.208   5.951  14.288  0.0208 -0.4862  0.1697
  195DOPC  H13R24146   7.238   6.055  14.263 -0.9039 -0.4471 -0.8472
  195DOPC  H13S24147   7.272   5.910  14.370  3.5976  2.1720 -1.0692
  195DOPC  C21424148   7.067   5.959  14.358 -0.1880 -0.0401  0.5124
  195DOPC  H14R24149   7.058   5.857  14.400  1.1431 -0.6304 -0.5343
  195DOPC  H14S24150   6.986   5.984  14.287  0.1302  1.6371  0.7031
  195DOPC  C21524151   7.051   6.063  14.465 -0.1379  0.8688  0.4247
  195DOPC  H15R24152   6.941   6.076  14.478 -0.5896 -1.4190 -0.6372
  195DOPC  H15S24153   7.083   6.157  14.415  0.0360  0.7894  0.3865
  195DOPC  C21624154   7.118   6.029  14.599  0.1406  0.4633  0.5576
  195DOPC  H16R24155   7.227   6.018  14.577 -0.2284 -3.5109  0.0093
  195DOPC  H16S24156   7.087   5.929  14.637  1.7448  0.1123  1.0179
  195DOPC  C21724157   7.095   6.132  14.705 -0.2542 -0.4338 -0.6100
  195DOPC  H17R24158   7.132   6.225  14.658  1.8388 -0.5704  0.6193
  195DOPC  H17S24159   7.158   6.116  14.796 -2.5102  2.0706  1.5906
  195DOPC  C21824160   6.948   6.137  14.752  0.3426  0.3084 -0.7316
  195DOPC  H18R24161   6.928   6.180  14.853 -0.2879  1.7040 -1.4187
  195DOPC  H18S24162   6.897   6.040  14.736  0.2467  0.4448 -1.2762
  195DOPC  H18T24163   6.886   6.204  14.689 -0.0168 -0.3044 -1.0361
  195DOPC   C3324164   5.912   5.669  13.535 -0.4607 -0.4747  0.0267
  195DOPC   H3X24165   6.001   5.605  13.553 -1.6029 -2.8951 -2.1910
  195DOPC   H3Y24166   5.823   5.602  13.538 -2.0187  1.2715 -2.5313
  195DOPC   C3424167   5.896   5.781  13.637  0.3377 -0.0277 -1.0654
  195DOPC   H4X24168   5.801   5.839  13.633  0.2262  0.0185  1.2265
  195DOPC   H4Y24169   5.978   5.855  13.629 -1.6962  2.4158 -0.6736
  195DOPC   C3524170   5.903   5.724  13.782  0.5518  0.8850  0.3499
  195DOPC   H5X24171   5.819   5.660  13.818  1.7710 -1.2666 -0.4860
  195DOPC   H5Y24172   5.900   5.812  13.850 -1.7279  1.4648 -0.3896
  195DOPC   C3624173   6.029   5.653  13.819 -0.0944  0.2597 -0.0132
  195DOPC   H6X24174   6.031   5.557  13.765 -0.8108 -0.4875  1.2461
  195DOPC   H6Y24175   6.112   5.717  13.780 -0.8531  1.3771  0.1390
  195DOPC   C3724176   6.037   5.624  13.973  0.7007 -0.0821  0.3284
  195DOPC   H7X24177   6.052   5.721  14.027  1.7580  0.1307 -0.3159
  195DOPC   H7Y24178   5.945   5.575  14.010  1.7995 -1.4348  1.3912
  195DOPC   C3824179   6.151   5.527  14.022 -0.0654 -0.0786 -0.3398
  195DOPC   H8X24180   6.145   5.442  13.951  1.7063  1.0300 -1.8860
  195DOPC   H8Y24181   6.128   5.482  14.121 -3.0821  0.0759 -0.8734
  195DOPC   C3924182   6.279   5.612  14.025 -0.4444  0.3095  0.0097
  195DOPC   H9X24183   6.327   5.619  13.927 -0.4303  0.3282  0.0182
  195DOPC  C31024184   6.330   5.686  14.129  0.4196  0.1168 -1.2105
  195DOPC  H10X24185   6.418   5.749  14.111  1.9772 -1.2344  1.1213
  195DOPC  C31124186   6.267   5.677  14.269 -0.3726  0.0675  0.4993
  195DOPC  H11X24187   6.156   5.677  14.271 -0.3756  0.9167  1.9362
  195DOPC  H11Y24188   6.290   5.771  14.322 -0.8422  0.3931  0.1278
  195DOPC  C31224189   6.318   5.566  14.350  0.3127 -0.4228 -0.0362
  195DOPC  H12X24190   6.428   5.558  14.336  0.3986  0.6076  0.0067
  195DOPC  H12Y24191   6.277   5.470  14.311  0.7404 -0.3860 -0.5954
  195DOPC  C31324192   6.290   5.569  14.506  0.2223  0.3828  0.1137
  195DOPC  H13X24193   6.358   5.643  14.552  1.1451 -1.3423  1.6166
  195DOPC  H13Y24194   6.185   5.606  14.513  0.4953  1.7010 -1.8012
  195DOPC  C31424195   6.298   5.434  14.576 -1.2193  0.3824 -0.7637
  195DOPC  H14X24196   6.204   5.387  14.540 -0.6306 -1.5887  0.1396
  195DOPC  H14Y24197   6.385   5.372  14.545 -1.2908 -0.0467 -0.1288
  195DOPC  C31524198   6.314   5.444  14.722  0.5972 -0.0068 -0.3490
  195DOPC  H15X24199   6.391   5.523  14.733  0.4492 -0.0198  0.9284
  195DOPC  H15Y24200   6.356   5.351  14.766  0.3711  0.8321  1.7366
  195DOPC  C31624201   6.184   5.472  14.797 -0.2245 -0.2112  0.5783
  195DOPC  H16X24202   6.132   5.555  14.745 -2.2322 -0.8012  1.5524
  195DOPC  H16Y24203   6.125   5.379  14.798  1.2794 -1.2246  2.2699
  195DOPC  C31724204   6.204   5.517  14.941  0.7095  0.5705  0.3291
  195DOPC  H17X24205   6.267   5.438  14.988  0.1039 -1.1117 -1.5164
  195DOPC  H17Y24206   6.267   5.609  14.949  1.7429  0.1530 -2.0203
  195DOPC  C31824207   6.071   5.533  15.015  0.2254 -0.6266 -0.4567
  195DOPC  H18X24208   6.088   5.574  15.117  1.6617  2.7453 -1.9067
  195DOPC  H18Y24209   6.009   5.613  14.971  2.2514  2.6593  2.1451
  195DOPC  H18Z24210   6.020   5.435  15.026  0.3833 -0.9753 -2.4113
  196DOPC     N24211   1.716   7.461  12.129 -0.1190  0.2459  0.3744
  196DOPC   C1224212   1.583   7.487  12.194  0.5355  0.7894  0.0212
  196DOPC  H12A24213   1.566   7.594  12.200 -0.2074  0.6259  1.0717
  196DOPC  H12B24214   1.576   7.441  12.291 -2.4796 -1.5417 -1.1316
  196DOPC   C1324215   1.819   7.520  12.214  0.0805  0.0372  0.2487
  196DOPC  H13A24216   1.819   7.473  12.311  0.3213 -0.6053 -0.0590
  196DOPC  H13B24217   1.915   7.521  12.165  0.8178 -0.3820  1.6410
  196DOPC  H13C24218   1.808   7.625  12.234  1.5571  0.4034 -0.7031
  196DOPC   C1424219   1.715   7.533  11.994 -0.2974  0.3163 -0.1100
  196DOPC  H14A24220   1.815   7.536  11.955  0.3854 -3.5820  0.9232
  196DOPC  H14B24221   1.647   7.487  11.923 -1.4154  2.2467 -0.3568
  196DOPC  H14C24222   1.673   7.631  12.010 -3.8397 -0.8094 -1.5541
  196DOPC   C1524223   1.756   7.314  12.108 -0.3051  0.0373  0.3123
  196DOPC  H15A24224   1.687   7.254  12.051  0.7353  0.0267 -0.9838
  196DOPC  H15B24225   1.764   7.269  12.206 -1.6126  1.3394  1.0681
  196DOPC  H15C24226   1.844   7.308  12.046  0.6157 -2.3912  1.7514
  196DOPC   C1124227   1.453   7.433  12.127  0.6605  0.0110 -0.0445
  196DOPC  H11A24228   1.358   7.475  12.167 -1.2898 -2.5577 -1.6346
  196DOPC  H11B24229   1.445   7.467  12.021  0.1815 -0.4294 -0.1567
  196DOPC     P24230   1.408   7.218  12.247  0.1083 -0.3488 -0.0181
  196DOPC   O1324231   1.403   7.072  12.224 -0.3409 -0.4910 -0.6357
  196DOPC   O1424232   1.295   7.292  12.295 -0.0441  0.3317  0.6456
  196DOPC   O1224233   1.455   7.288  12.124 -0.8564 -0.4147 -0.1220
  196DOPC   O1124234   1.527   7.240  12.356  0.4668 -0.0101 -0.3079
  196DOPC    C124235   1.555   7.152  12.465  0.8018  0.3854 -0.7232
  196DOPC    HA24236   1.663   7.165  12.491  1.7158  0.9095 -4.2516
  196DOPC    HB24237   1.549   7.044  12.443  2.1501  0.2525 -0.5112
  196DOPC    C224238   1.466   7.185  12.587 -0.2072 -0.7202 -0.5073
  196DOPC    HS24239   1.361   7.189  12.549 -0.8831 -0.6520  1.2716
  196DOPC   O2124240   1.509   7.315  12.630  0.0151 -0.2307 -0.1856
  196DOPC   C2124241   1.431   7.379  12.724  0.6764  0.3116  0.0772
  196DOPC   O2224242   1.332   7.326  12.778 -0.4784 -0.2475  0.4004
  196DOPC   C2224243   1.476   7.519  12.750 -0.1222  0.1707 -0.5049
  196DOPC   H2R24244   1.535   7.559  12.664  2.2486  0.4630  1.1674
  196DOPC   H2S24245   1.550   7.522  12.833  0.9454  2.1787 -1.4666
  196DOPC    C324246   1.475   7.069  12.701 -0.0362 -0.6745 -0.2957
  196DOPC    HX24247   1.451   6.968  12.663  1.5122 -0.9506 -0.6270
  196DOPC    HY24248   1.394   7.090  12.774  1.0090  4.0141 -0.1399
  196DOPC   O3124249   1.602   7.086  12.767  0.6399  0.0638  0.0812
  196DOPC   C3124250   1.690   6.981  12.767 -0.0290 -0.8461 -0.0449
  196DOPC   O3224251   1.664   6.862  12.744 -0.1996 -0.1535  0.3599
  196DOPC   C3224252   1.822   7.032  12.835 -0.3367  0.3776  0.0059
  196DOPC   H2X24253   1.880   6.944  12.870 -1.3698  0.2559  1.5177
  196DOPC   H2Y24254   1.882   7.076  12.752  2.5472 -1.2628  1.0588
  196DOPC   C2324255   1.363   7.620  12.786 -0.1729  0.1613  0.2300
  196DOPC   H3R24256   1.299   7.616  12.695  2.3976  2.2070 -1.8495
  196DOPC   H3S24257   1.416   7.718  12.791  2.3498 -1.1770  2.4063
  196DOPC   C2424258   1.277   7.594  12.909  0.8223  0.6116 -0.1744
  196DOPC   H4R24259   1.199   7.520  12.881  0.4276 -0.5363  3.4055
  196DOPC   H4S24260   1.225   7.690  12.930 -0.1549 -0.1035  0.8292
  196DOPC   C2524261   1.366   7.535  13.025  0.6500  0.8546 -0.0375
  196DOPC   H5R24262   1.470   7.568  13.004  0.0261  2.1833 -1.2612
  196DOPC   H5S24263   1.358   7.424  13.029  0.8206  0.8688  1.2270
  196DOPC   C2624264   1.337   7.594  13.165  0.1057 -0.3203  0.0250
  196DOPC   H6R24265   1.233   7.573  13.198 -0.1122 -1.7032 -1.4406
  196DOPC   H6S24266   1.349   7.704  13.168  0.8731 -0.4095  0.5287
  196DOPC   C2724267   1.443   7.551  13.277 -0.6512 -0.2788  1.2095
  196DOPC   H7R24268   1.541   7.597  13.253 -0.5582 -1.0274  0.0428
  196DOPC   H7S24269   1.469   7.443  13.276  1.3491  0.1429 -1.5905
  196DOPC   C2824270   1.397   7.606  13.409  0.3002  0.2358  0.3687
  196DOPC   H8R24271   1.301   7.558  13.438  0.0075  1.6930  1.9209
  196DOPC   H8S24272   1.358   7.705  13.379 -1.7730 -0.8770 -0.7978
  196DOPC   C2924273   1.490   7.608  13.525 -0.4371 -0.7068  0.2221
  196DOPC   H9R24274   1.588   7.643  13.488 -1.6678 -0.6765 -3.3562
  196DOPC  C21024275   1.468   7.558  13.652 -0.3091 -0.1523 -0.3909
  196DOPC  H10R24276   1.539   7.578  13.734 -0.3259 -0.3869 -0.3180
  196DOPC  C21124277   1.346   7.494  13.703  0.2870 -0.0092 -0.8511
  196DOPC  H11R24278   1.372   7.387  13.718  3.1134  0.6610 -0.3974
  196DOPC  H11S24279   1.257   7.499  13.636  0.0940  0.7427 -0.5507
  196DOPC  C21224280   1.298   7.552  13.838 -0.2433 -0.5822  0.4613
  196DOPC  H12R24281   1.283   7.662  13.838 -1.7360 -0.7556 -0.5060
  196DOPC  H12S24282   1.377   7.533  13.914  0.0439  0.2942  0.3973
  196DOPC  C21324283   1.167   7.488  13.877  0.1153  0.6591 -0.9483
  196DOPC  H13R24284   1.183   7.379  13.891 -1.4934  0.5665  0.3833
  196DOPC  H13S24285   1.091   7.511  13.799 -2.5106  0.9793  1.5513
  196DOPC  C21424286   1.112   7.545  14.010  0.2164  0.3260  0.0103
  196DOPC  H14R24287   1.103   7.654  13.991 -0.3357  0.3177  0.1999
  196DOPC  H14S24288   1.182   7.518  14.092 -0.1774 -1.5047 -0.2205
  196DOPC  C21524289   0.973   7.488  14.037 -0.1448 -0.0839  0.0462
  196DOPC  H15R24290   0.982   7.378  14.051 -0.0927 -0.1819 -0.6795
  196DOPC  H15S24291   0.914   7.508  13.945  0.2037  1.1570  0.0744
  196DOPC  C21624292   0.914   7.556  14.159 -0.7747 -0.6186  0.5999
  196DOPC  H16R24293   0.808   7.523  14.161 -0.7811 -0.7692 -1.0258
  196DOPC  H16S24294   0.913   7.665  14.138  3.0188 -0.8907 -1.9222
  196DOPC  C21724295   0.991   7.530  14.286  0.1933  0.7350  0.1802
  196DOPC  H17R24296   1.088   7.584  14.288 -0.2259  1.4899  0.2154
  196DOPC  H17S24297   1.009   7.420  14.295  5.4206  1.3183  0.0383
  196DOPC  C21824298   0.920   7.570  14.413 -0.3868  0.2354  0.6474
  196DOPC  H18R24299   0.900   7.679  14.404  1.5260  0.5852  0.2214
  196DOPC  H18S24300   0.994   7.553  14.494 -0.0497 -2.2404 -0.0915
  196DOPC  H18T24301   0.823   7.516  14.424 -0.4556 -0.2029 -1.5826
  196DOPC   C3324302   1.807   7.126  12.958 -0.0966 -0.0057  0.5766
  196DOPC   H3X24303   1.764   7.220  12.917  1.3410  0.0572 -0.8876
  196DOPC   H3Y24304   1.906   7.157  12.997  0.3167  0.1933 -0.5908
  196DOPC   C3424305   1.724   7.072  13.072 -0.2153 -0.6552  0.5551
  196DOPC   H4X24306   1.771   6.981  13.116  1.6561  0.0240  0.0711
  196DOPC   H4Y24307   1.626   7.035  13.035  0.4909 -2.8743  0.7200
  196DOPC   C3524308   1.713   7.174  13.191  0.7234  0.2476  0.5415
  196DOPC   H5X24309   1.641   7.152  13.274  0.7938 -1.8033  0.1159
  196DOPC   H5Y24310   1.684   7.267  13.139  2.3184  1.0113  0.9750
  196DOPC   C3624311   1.835   7.206  13.268  0.6258  0.3031  0.4733
  196DOPC   H6X24312   1.855   7.129  13.347 -0.8022  1.0221  1.5809
  196DOPC   H6Y24313   1.929   7.211  13.208  1.0328  0.7827  1.1361
  196DOPC   C3724314   1.824   7.342  13.335 -0.0788 -0.2493 -0.6599
  196DOPC   H7X24315   1.856   7.429  13.272  0.8940  0.1504  0.3532
  196DOPC   H7Y24316   1.718   7.363  13.361  0.1835 -0.8233  1.0114
  196DOPC   C3824317   1.908   7.348  13.458 -0.3263 -0.0370 -0.5167
  196DOPC   H8X24318   2.016   7.352  13.432  0.2152 -1.4703  1.2271
  196DOPC   H8Y24319   1.894   7.252  13.514  3.4546 -1.6967 -2.0643
  196DOPC   C3924320   1.869   7.465  13.544 -1.7068  0.4412 -0.1269
  196DOPC   H9X24321   1.876   7.558  13.485 -1.8167  0.9933  0.7161
  196DOPC  C31024322   1.846   7.468  13.675  0.5563 -0.1498 -0.3146
  196DOPC  H10X24323   1.818   7.564  13.721  1.1734  0.1048 -0.4636
  196DOPC  C31124324   1.847   7.355  13.769 -0.2869  0.7345  0.4053
  196DOPC  H11X24325   1.928   7.380  13.841  0.1765  0.3551  0.0238
  196DOPC  H11Y24326   1.884   7.262  13.720 -3.4886 -0.1765 -0.4832
  196DOPC  C31224327   1.715   7.341  13.840 -0.1051  0.1598 -0.5305
  196DOPC  H12X24328   1.625   7.334  13.775 -0.1846  0.3977 -0.4481
  196DOPC  H12Y24329   1.699   7.431  13.903  0.8708  0.2032 -0.3320
  196DOPC  C31324330   1.727   7.215  13.929  0.7361  0.1849 -0.1478
  196DOPC  H13X24331   1.751   7.135  13.856  0.9064  1.2238 -1.2832
  196DOPC  H13Y24332   1.820   7.217  13.988  0.0827 -2.0707  1.0421
  196DOPC  C31424333   1.603   7.207  14.019  0.3508 -0.2547  0.3189
  196DOPC  H14X24334   1.503   7.223  13.972  0.9112 -0.0063 -0.8124
  196DOPC  H14Y24335   1.603   7.103  14.058  0.1316 -0.2754  0.2627
  196DOPC  C31524336   1.619   7.300  14.143  0.0837  0.4090 -0.1502
  196DOPC  H15X24337   1.583   7.401  14.116  0.5352  0.9529  1.2062
  196DOPC  H15Y24338   1.724   7.308  14.179 -0.7110  0.0461  2.4600
  196DOPC  C31624339   1.529   7.249  14.268  0.7813 -1.0882  0.0088
  196DOPC  H16X24340   1.558   7.142  14.274  3.9847 -0.2697  1.7621
  196DOPC  H16Y24341   1.574   7.298  14.358  1.9319  1.3660 -1.7836
  196DOPC  C31724342   1.381   7.295  14.257 -1.0711  0.5502  0.2990
  196DOPC  H17X24343   1.382   7.405  14.242 -1.5414  0.1037 -4.9519
  196DOPC  H17Y24344   1.325   7.253  14.170 -0.2887 -1.1645  0.5765
  196DOPC  C31824345   1.303   7.265  14.385  0.6971 -0.8370 -0.0405
  196DOPC  H18X24346   1.367   7.286  14.473  0.4831  1.3544 -0.3697
  196DOPC  H18Y24347   1.211   7.326  14.388  0.3010 -1.3610 -0.8485
  196DOPC  H18Z24348   1.281   7.156  14.385  4.2219 -1.7435 -2.6480
  197DOPC     N24349   2.718   6.031  12.756  0.6344  0.6946 -0.1345
  197DOPC   C1224350   2.633   6.129  12.836  0.4539  0.6591  0.0290
  197DOPC  H12A24351   2.640   6.229  12.795  1.1743  0.5513 -0.1241
  197DOPC  H12B24352   2.673   6.132  12.937  1.3863  0.2958 -0.3156
  197DOPC   C1324353   2.709   5.900  12.827  0.2952 -0.7057  0.9547
  197DOPC  H13A24354   2.742   5.819  12.764  0.4648 -1.0561  1.4794
  197DOPC  H13B24355   2.766   5.892  12.919  2.0369  1.6254  0.1640
  197DOPC  H13C24356   2.602   5.892  12.837  0.3804 -2.1185  0.9332
  197DOPC   C1424357   2.860   6.077  12.748 -0.6773 -0.1142  0.4459
  197DOPC  H14A24358   2.917   5.988  12.726 -0.6821 -0.0515  0.1800
  197DOPC  H14B24359   2.880   6.159  12.680  0.1346 -1.5307 -1.1036
  197DOPC  H14C24360   2.899   6.106  12.844  2.1434 -1.8002 -0.0533
  197DOPC   C1524361   2.672   6.020  12.610  0.0283  0.5730 -0.9395
  197DOPC  H15A24362   2.732   5.942  12.565 -0.4320 -0.4088  0.0878
  197DOPC  H15B24363   2.704   6.115  12.570 -0.3772  2.0867  2.0809
  197DOPC  H15C24364   2.565   6.012  12.593 -0.4681  2.6417  0.8267
  197DOPC   C1124365   2.474   6.104  12.830  0.3013  0.0878  0.5195
  197DOPC  H11A24366   2.426   6.201  12.857 -0.9844 -0.2159 -0.5832
  197DOPC  H11B24367   2.454   6.079  12.724 -0.9714  0.2663  0.6918
  197DOPC     P24368   2.287   5.985  12.975  0.0621  0.0819  0.3083
  197DOPC   O1324369   2.276   5.837  12.995 -0.1191 -0.0963 -0.8374
  197DOPC   O1424370   2.185   6.039  12.883 -0.4988  0.1142 -0.5549
  197DOPC   O1224371   2.428   5.992  12.909 -0.1691 -0.3909 -0.0739
  197DOPC   O1124372   2.286   6.049  13.105  0.2096 -0.3216 -0.1053
  197DOPC    C124373   2.394   6.021  13.197  0.8392  0.3613 -0.5300
  197DOPC    HA24374   2.450   6.112  13.226 -0.1594  0.3858  1.4754
  197DOPC    HB24375   2.476   5.953  13.168 -0.4629 -0.9918 -1.1894
  197DOPC    C224376   2.334   5.963  13.333 -0.3863  0.1396 -0.3592
  197DOPC    HS24377   2.266   5.877  13.318  0.3483 -1.1616  2.9913
  197DOPC   O2124378   2.270   6.073  13.400 -0.8950 -0.2594 -0.2860
  197DOPC   C2124379   2.138   6.082  13.369 -1.4137  0.6859  0.3294
  197DOPC   O2224380   2.075   5.985  13.328  0.0354 -0.0899 -0.9473
  197DOPC   C2224381   2.079   6.220  13.408  0.5277 -0.3853  0.4168
  197DOPC   H2R24382   2.007   6.242  13.327  0.7692  0.2159  0.3569
  197DOPC   H2S24383   2.155   6.299  13.389 -0.4096  0.2850 -0.6060
  197DOPC    C324384   2.452   5.908  13.419 -0.2678 -0.4621 -0.4479
  197DOPC    HX24385   2.494   5.818  13.368 -0.3973 -0.6370 -0.2475
  197DOPC    HY24386   2.398   5.879  13.511  0.7632 -0.3920  0.1987
  197DOPC   O3124387   2.554   6.013  13.439  0.1645 -0.0373 -0.5874
  197DOPC   C3124388   2.677   5.975  13.430  0.0403  0.3522  0.1151
  197DOPC   O3224389   2.724   5.864  13.402  0.2794 -0.3868 -0.0976
  197DOPC   C3224390   2.762   6.104  13.445 -0.3947  0.5844  0.3310
  197DOPC   H2X24391   2.763   6.162  13.351  2.2577 -0.6159 -0.4968
  197DOPC   H2Y24392   2.719   6.153  13.535  0.9513 -1.2961  2.1283
  197DOPC   C2324393   2.002   6.232  13.542  0.3870 -0.7158  0.4516
  197DOPC   H3R24394   1.962   6.129  13.558 -1.6232  0.0472  0.5922
  197DOPC   H3S24395   1.912   6.297  13.536  1.4557  0.7032 -1.2636
  197DOPC   C2424396   2.098   6.262  13.659 -0.3043  0.4299  0.4036
  197DOPC   H4R24397   2.156   6.356  13.644 -0.0928  0.5015  1.6097
  197DOPC   H4S24398   2.184   6.190  13.655 -0.5580  0.1596 -0.4407
  197DOPC   C2524399   2.035   6.271  13.800  0.1032 -0.6057 -0.1737
  197DOPC   H5R24400   1.984   6.173  13.811  0.5715 -0.8862 -0.4466
  197DOPC   H5S24401   1.968   6.358  13.808  1.5375  0.5900 -0.7422
  197DOPC   C2624402   2.139   6.257  13.911  0.4138 -0.3803  0.0761
  197DOPC   H6R24403   2.187   6.357  13.919  1.2388 -0.3550 -3.6236
  197DOPC   H6S24404   2.214   6.181  13.880  1.3616  0.2636  0.7302
  197DOPC   C2724405   2.085   6.192  14.041  0.0914  0.0599 -0.2061
  197DOPC   H7R24406   2.073   6.086  14.010 -0.8148 -0.0211  0.3799
  197DOPC   H7S24407   1.990   6.244  14.065  0.4343  0.5333  0.1219
  197DOPC   C2824408   2.181   6.206  14.161  0.6084  0.4839 -0.0764
  197DOPC   H8R24409   2.198   6.308  14.201 -1.0226  0.7398  0.0203
  197DOPC   H8S24410   2.282   6.168  14.133  0.8104  2.1438 -1.7682
  197DOPC   C2924411   2.127   6.109  14.262 -0.3079 -0.0271 -0.9121
  197DOPC   H9R24412   2.087   6.015  14.221 -1.2604 -0.3923  0.7662
  197DOPC  C21024413   2.106   6.139  14.393 -0.0292  0.5081 -0.3606
  197DOPC  H10R24414   2.042   6.073  14.454  0.1340  0.5651 -0.1263
  197DOPC  C21124415   2.160   6.265  14.459  0.1717  0.6118  0.1609
  197DOPC  H11R24416   2.240   6.311  14.398  0.7901  0.0152  0.5071
  197DOPC  H11S24417   2.220   6.240  14.549 -0.7851 -1.0005  0.4000
  197DOPC  C21224418   2.051   6.369  14.482 -0.2260  0.3997 -0.5717
  197DOPC  H12R24419   2.091   6.447  14.549 -0.3981 -1.6634  2.1290
  197DOPC  H12S24420   1.967   6.317  14.534  1.1236  0.2947  1.6010
  197DOPC  C21324421   2.004   6.428  14.344 -0.0373  0.5692  0.7432
  197DOPC  H13R24422   1.966   6.349  14.276 -0.7952  0.3701  1.3929
  197DOPC  H13S24423   2.092   6.479  14.298 -0.3538  0.1053 -0.4073
  197DOPC  C21424424   1.887   6.527  14.366  0.3557  0.1423  0.4446
  197DOPC  H14R24425   1.925   6.591  14.448 -0.7085  0.1392  0.9578
  197DOPC  H14S24426   1.795   6.472  14.395 -1.1206  1.4160 -1.5681
  197DOPC  C21524427   1.853   6.602  14.235  0.2103 -0.5119  0.4923
  197DOPC  H15R24428   1.842   6.545  14.141  1.1813  0.2249 -0.0872
  197DOPC  H15S24429   1.940   6.659  14.195 -0.7170 -0.3528 -1.4191
  197DOPC  C21624430   1.736   6.703  14.255  0.3361  0.0444 -0.7040
  197DOPC  H16R24431   1.756   6.777  14.336 -0.8379 -0.5642  0.1741
  197DOPC  H16S24432   1.648   6.645  14.288  0.0108  0.4512 -0.8486
  197DOPC  C21724433   1.710   6.774  14.120 -0.2991  0.4142 -0.0535
  197DOPC  H17R24434   1.612   6.823  14.137 -1.2559 -1.7044  0.9973
  197DOPC  H17S24435   1.684   6.696  14.045  0.7320  0.7775 -0.8149
  197DOPC  C21824436   1.807   6.872  14.053  0.2476  0.1022 -0.0571
  197DOPC  H18R24437   1.836   6.958  14.117 -0.2638  1.3291 -1.4413
  197DOPC  H18S24438   1.752   6.909  13.964 -2.1511 -0.9722  0.8648
  197DOPC  H18T24439   1.903   6.826  14.023  0.6583  2.0981 -2.0238
  197DOPC   C3324440   2.911   6.067  13.474  0.6608  0.0676  0.7129
  197DOPC   H3X24441   2.956   6.009  13.391  1.4404 -0.2626  1.3584
  197DOPC   H3Y24442   2.928   6.007  13.566  3.9671 -1.0890 -0.4972
  197DOPC   C3424443   2.999   6.194  13.506  0.0032  0.2354 -0.2243
  197DOPC   H4X24444   2.964   6.226  13.607  1.4654 -0.9708  0.7101
  197DOPC   H4Y24445   2.982   6.274  13.431 -0.3765  0.3088 -0.0646
  197DOPC   C3524446   3.152   6.173  13.522  0.4316  0.0149 -0.1463
  197DOPC   H5X24447   3.198   6.150  13.423 -3.1105  1.0561 -2.2148
  197DOPC   H5Y24448   3.155   6.081  13.583 -0.8822  0.5333  0.7302
  197DOPC   C3624449   3.218   6.291  13.589  0.1646  0.0853 -0.2573
  197DOPC   H6X24450   3.187   6.376  13.525  0.0235  0.1340 -0.1260
  197DOPC   H6Y24451   3.186   6.295  13.696  0.5808  2.3372 -0.1794
  197DOPC   C3724452   3.371   6.291  13.598 -0.4204  0.3406  0.7472
  197DOPC   H7X24453   3.392   6.188  13.635 -1.6156  0.2676  1.3002
  197DOPC   H7Y24454   3.418   6.291  13.498 -0.9252  0.1552  0.5057
  197DOPC   C3824455   3.443   6.395  13.689  0.0832  0.7513  0.4820
  197DOPC   H8X24456   3.422   6.496  13.648  1.0394 -0.0834 -2.2653
  197DOPC   H8Y24457   3.552   6.381  13.670 -0.0565 -1.9104  1.2030
  197DOPC   C3924458   3.403   6.376  13.838  0.0563  0.8814  0.6061
  197DOPC   H9X24459   3.410   6.274  13.880 -0.3870  0.7669  0.4108
  197DOPC  C31024460   3.339   6.471  13.903  0.5526  0.1155 -0.7477
  197DOPC  H10X24461   3.299   6.444  14.001 -1.9678  1.1197 -1.4086
  197DOPC  C31124462   3.320   6.614  13.862 -0.1703  0.1865  0.1514
  197DOPC  H11X24463   3.217   6.646  13.888 -0.4056  1.1517 -1.7808
  197DOPC  H11Y24464   3.337   6.635  13.754  2.8818  1.0488  0.6964
  197DOPC  C31224465   3.430   6.708  13.931 -0.0100 -0.3681 -1.0779
  197DOPC  H12X24466   3.433   6.802  13.872  1.4690  0.9108  0.9399
  197DOPC  H12Y24467   3.530   6.659  13.929  0.8948  1.2421  1.0583
  197DOPC  C31324468   3.398   6.753  14.080 -0.1714  0.1151 -0.0925
  197DOPC  H13X24469   3.302   6.808  14.064  0.7565  2.0139  0.5341
  197DOPC  H13Y24470   3.387   6.662  14.143 -0.8910  2.6282  3.7692
  197DOPC  C31424471   3.495   6.850  14.146 -0.3910  0.2391 -0.2041
  197DOPC  H14X24472   3.590   6.798  14.168 -1.4190 -1.0192  1.4778
  197DOPC  H14Y24473   3.525   6.931  14.076  0.7655 -1.5846 -1.9265
  197DOPC  C31524474   3.434   6.902  14.272  0.1681 -0.3397  0.8982
  197DOPC  H15X24475   3.332   6.941  14.257  0.9296  1.6897  0.6911
  197DOPC  H15Y24476   3.482   6.997  14.304 -0.6863  0.7051 -0.8061
  197DOPC  C31624477   3.413   6.799  14.385 -1.0365  0.1130  0.3944
  197DOPC  H16X24478   3.315   6.813  14.436 -1.0758 -0.2062  0.4104
  197DOPC  H16Y24479   3.408   6.701  14.331 -1.4346  1.5721 -2.4268
  197DOPC  C31724480   3.517   6.795  14.486  0.0358  0.9281  0.0800
  197DOPC  H17X24481   3.609   6.768  14.428 -0.1769  2.1284 -0.8447
  197DOPC  H17Y24482   3.539   6.892  14.535 -0.4859  1.1887 -0.2011
  197DOPC  C31824483   3.490   6.697  14.600  0.0961  0.3314 -0.0714
  197DOPC  H18X24484   3.396   6.728  14.650 -0.9461 -0.6928 -1.3235
  197DOPC  H18Y24485   3.487   6.592  14.563 -0.2759  0.6843 -1.0747
  197DOPC  H18Z24486   3.564   6.699  14.683 -0.5319  0.1402  0.4984
  198DOPC     N24487   7.378   6.011  12.597  0.3620 -0.1839 -0.0554
  198DOPC   C1224488   7.270   6.114  12.623 -0.8143 -0.1147 -0.7146
  198DOPC  H12A24489   7.278   6.198  12.556  0.7717 -0.8239 -1.4837
  198DOPC  H12B24490   7.282   6.153  12.722  2.0348 -0.3818 -0.8763
  198DOPC   C1324491   7.367   5.895  12.684 -0.4642 -0.3710 -0.9896
  198DOPC  H13A24492   7.384   5.934  12.784 -0.0821  0.6266 -1.4265
  198DOPC  H13B24493   7.271   5.845  12.690 -0.4164 -0.2915  2.5544
  198DOPC  H13C24494   7.448   5.826  12.671  0.0424  0.1241 -0.5221
  198DOPC   C1424495   7.509   6.075  12.624  0.4110 -0.4188 -0.1863
  198DOPC  H14A24496   7.577   5.993  12.643 -2.3065 -3.2728 -1.8573
  198DOPC  H14B24497   7.531   6.131  12.534 -2.1948  2.6167  0.8855
  198DOPC  H14C24498   7.510   6.135  12.714  1.4999  0.9947 -1.0837
  198DOPC   C1524499   7.377   5.968  12.449 -0.1685 -0.3799  0.4246
  198DOPC  H15A24500   7.457   5.897  12.433  2.7970  2.5611  0.9727
  198DOPC  H15B24501   7.391   6.053  12.384 -0.4774  0.7997  1.8586
  198DOPC  H15C24502   7.284   5.922  12.419 -0.4072 -0.0601  0.6720
  198DOPC   C1124503   7.123   6.074  12.614 -0.3902 -0.0728  0.5489
  198DOPC  H11A24504   7.064   6.168  12.615 -0.5775 -0.1762 -0.0318
  198DOPC  H11B24505   7.111   6.017  12.519 -0.8433  0.0464  0.5324
  198DOPC     P24506   7.071   6.048  12.875 -0.0531 -0.0303 -0.3307
  198DOPC   O1324507   7.208   6.075  12.923  0.1101  0.9454 -0.0055
  198DOPC   O1424508   6.984   5.956  12.953 -0.2958 -0.5123 -0.3304
  198DOPC   O1224509   7.088   5.989  12.725  0.0710 -0.0584  0.0448
  198DOPC   O1124510   7.000   6.183  12.850  0.3216  0.3815 -0.2055
  198DOPC    C124511   7.058   6.307  12.887 -0.1323  0.2093 -0.1284
  198DOPC    HA24512   7.018   6.378  12.811  1.3406  1.2970  0.0685
  198DOPC    HB24513   7.166   6.298  12.865 -0.2573  0.5721 -0.9259
  198DOPC    C224514   7.030   6.349  13.033 -0.0750  0.7325 -0.0942
  198DOPC    HS24515   7.058   6.456  13.044 -0.1289  0.7592 -0.2109
  198DOPC   O2124516   7.098   6.279  13.135 -0.0263  0.5417 -0.0272
  198DOPC   C2124517   7.238   6.297  13.134  0.9188 -0.1231  0.0119
  198DOPC   O2224518   7.295   6.378  13.062  0.4167  0.1073 -0.6376
  198DOPC   C2224519   7.315   6.196  13.222 -0.2572  0.0875 -0.4286
  198DOPC   H2R24520   7.423   6.190  13.198  0.6303 -0.9382  3.2081
  198DOPC   H2S24521   7.274   6.098  13.190 -2.0157 -0.0407  1.9824
  198DOPC    C324522   6.873   6.359  13.067 -0.3573 -0.2731  0.8636
  198DOPC    HX24523   6.814   6.279  13.018  0.0568  0.7588 -1.4945
  198DOPC    HY24524   6.844   6.448  13.007  1.4233  0.0055  0.3369
  198DOPC   O3124525   6.835   6.381  13.209 -0.6293 -0.2790  0.2972
  198DOPC   C3124526   6.792   6.274  13.266  0.0357  0.0167  0.3804
  198DOPC   O3224527   6.766   6.170  13.213 -0.0477  0.6528  0.4076
  198DOPC   C3224528   6.806   6.302  13.417  0.0782 -0.0421 -0.3427
  198DOPC   H2X24529   6.910   6.338  13.430 -0.4102  2.2558 -2.0997
  198DOPC   H2Y24530   6.733   6.380  13.445 -2.1598 -1.5790 -1.5585
  198DOPC   C2324531   7.290   6.212  13.375 -0.2208  0.4859  0.0459
  198DOPC   H3R24532   7.189   6.173  13.399  0.2017 -0.4044  0.4189
  198DOPC   H3S24533   7.289   6.320  13.403 -0.5519  0.5488 -0.2055
  198DOPC   C2424534   7.397   6.136  13.465  0.3889 -0.3855  0.2447
  198DOPC   H4R24535   7.500   6.136  13.423  0.5215  2.9843  0.3095
  198DOPC   H4S24536   7.358   6.032  13.468 -1.5414  0.2418 -1.0096
  198DOPC   C2524537   7.385   6.180  13.608  0.6255 -0.0622 -0.1519
  198DOPC   H5R24538   7.276   6.180  13.629  0.5514 -0.2628 -0.5188
  198DOPC   H5S24539   7.429   6.279  13.628  0.8365 -0.0224 -0.8038
  198DOPC   C2624540   7.452   6.087  13.704 -0.5743 -0.8910 -0.8229
  198DOPC   H6R24541   7.559   6.098  13.679 -0.4942  0.8946  0.1553
  198DOPC   H6S24542   7.426   5.981  13.684 -2.3242 -0.8208  0.7292
  198DOPC   C2724543   7.435   6.105  13.858  0.2019 -0.0472  0.0923
  198DOPC   H7R24544   7.326   6.093  13.878  0.2909 -1.0593  0.0111
  198DOPC   H7S24545   7.459   6.211  13.881 -0.7374  0.7556 -2.3135
  198DOPC   C2824546   7.510   6.000  13.941 -0.0931  0.3228 -0.9492
  198DOPC   H8R24547   7.497   5.901  13.891  1.1534 -0.1813 -0.3319
  198DOPC   H8S24548   7.461   5.984  14.039  2.6805  1.1300  0.6688
  198DOPC   C2924549   7.652   6.036  13.964  0.5943 -0.7685  0.4270
  198DOPC   H9R24550   7.716   6.001  13.882  1.9191  0.7879  0.7420
  198DOPC  C21024551   7.703   6.100  14.069  0.4441  0.3450 -0.1739
  198DOPC  H10R24552   7.813   6.101  14.065  0.4234  0.9876 -0.9848
  198DOPC  C21124553   7.631   6.152  14.195  0.0469  0.7896 -0.1178
  198DOPC  H11R24554   7.524   6.121  14.201  0.2107  0.4361  1.8268
  198DOPC  H11S24555   7.625   6.263  14.193 -1.9971  0.7664  1.2038
  198DOPC  C21224556   7.692   6.099  14.320 -0.1987 -0.3073 -0.1589
  198DOPC  H12R24557   7.717   5.990  14.318  0.4980 -0.1644  0.2802
  198DOPC  H12S24558   7.619   6.108  14.403 -0.9590  4.4912 -1.0607
  198DOPC  C21324559   7.819   6.174  14.352 -0.9278 -0.6732  0.5692
  198DOPC  H13R24560   7.794   6.282  14.344  0.8833 -0.2538  0.2872
  198DOPC  H13S24561   7.904   6.155  14.284  0.8416  1.2723  2.0988
  198DOPC  C21424562   7.885   6.146  14.486 -0.3081  0.0502 -0.1587
  198DOPC  H14R24563   7.990   6.177  14.464 -0.3920 -1.4707 -3.3907
  198DOPC  H14S24564   7.879   6.036  14.496  0.3125  0.0805  0.6247
  198DOPC  C21524565   7.830   6.211  14.610  0.3184  0.4253  0.1851
  198DOPC  H15R24566   7.899   6.175  14.689 -0.9686  1.3557  1.7852
  198DOPC  H15S24567   7.728   6.170  14.622 -0.2509  1.2504 -1.5816
  198DOPC  C21624568   7.839   6.366  14.608 -0.4755 -0.3510  0.3706
  198DOPC  H16R24569   7.771   6.412  14.683 -0.2320  2.4991 -1.0038
  198DOPC  H16S24570   7.808   6.402  14.508  0.2157  0.0555  0.2968
  198DOPC  C21724571   7.979   6.412  14.639 -0.8626 -0.3040 -0.1512
  198DOPC  H17R24572   8.036   6.386  14.548 -2.0853 -1.9784 -0.4679
  198DOPC  H17S24573   8.031   6.364  14.725 -1.5981 -1.1423 -0.1606
  198DOPC  C21824574   7.975   6.562  14.655 -0.4189 -0.2443 -0.6832
  198DOPC  H18R24575   8.082   6.593  14.659  0.2321 -2.3559  0.0694
  198DOPC  H18S24576   7.931   6.615  14.742 -0.4475  0.9216 -1.3852
  198DOPC  H18T24577   7.929   6.610  14.566 -0.0190 -0.9022 -1.2620
  198DOPC   C3324578   6.782   6.179  13.506 -0.1104  0.8334  0.0571
  198DOPC   H3X24579   6.855   6.098  13.480 -1.5270 -1.0358  1.6026
  198DOPC   H3Y24580   6.686   6.123  13.503  0.6897 -0.5718 -1.3735
  198DOPC   C3424581   6.801   6.227  13.651  0.2493  0.6118 -0.1446
  198DOPC   H4X24582   6.756   6.149  13.715  1.8251 -0.7442 -0.6247
  198DOPC   H4Y24583   6.730   6.312  13.664 -0.0749  0.7114 -2.1570
  198DOPC   C3524584   6.946   6.256  13.700 -0.5235 -0.1449  0.2408
  198DOPC   H5X24585   6.980   6.355  13.661 -2.3310  1.4720  2.4903
  198DOPC   H5Y24586   7.012   6.174  13.665  1.0791  0.7852  0.9692
  198DOPC   C3624587   6.954   6.270  13.846  0.0824 -0.0099 -0.7198
  198DOPC   H6X24588   6.931   6.176  13.901  1.5965  1.8448  3.5601
  198DOPC   H6Y24589   7.056   6.295  13.881 -0.5354  1.9125 -0.1359
  198DOPC   C3724590   6.881   6.388  13.909 -0.0842 -0.4099  0.2325
  198DOPC   H7X24591   6.938   6.482  13.918  0.8244 -0.8276 -0.9593
  198DOPC   H7Y24592   6.787   6.400  13.851  0.1609  0.8519  0.0856
  198DOPC   C3824593   6.831   6.348  14.049  0.0292  0.2362  0.5035
  198DOPC   H8X24594   6.914   6.323  14.119 -0.2063  3.1669  2.0142
  198DOPC   H8Y24595   6.774   6.253  14.048  0.3736  0.0174  0.9796
  198DOPC   C3924596   6.742   6.453  14.110  0.2480  0.0178  0.1787
  198DOPC   H9X24597   6.670   6.482  14.032  1.6924 -1.8571 -1.9613
  198DOPC  C31024598   6.751   6.519  14.228  0.4560  0.6548 -0.2634
  198DOPC  H10X24599   6.668   6.587  14.252 -0.7185 -0.0693 -2.1069
  198DOPC  C31124600   6.854   6.499  14.340 -0.0402  0.8668 -0.4654
  198DOPC  H11X24601   6.879   6.597  14.387  0.9511  0.6726 -0.5540
  198DOPC  H11Y24602   6.948   6.457  14.297  0.4066 -0.7825  1.8868
  198DOPC  C31224603   6.798   6.397  14.436 -0.3594 -0.1157  0.5714
  198DOPC  H12X24604   6.867   6.358  14.514  0.0405 -0.2328  0.1603
  198DOPC  H12Y24605   6.766   6.308  14.378  0.9470  0.8841 -1.8141
  198DOPC  C31324606   6.682   6.448  14.517 -0.3467 -0.1805 -0.0576
  198DOPC  H13X24607   6.718   6.534  14.576  4.7230 -1.8557 -0.2279
  198DOPC  H13Y24608   6.607   6.490  14.446 -0.0107 -0.0432 -0.3368
  198DOPC  C31424609   6.608   6.340  14.602  0.2931 -0.6130  0.2753
  198DOPC  H14X24610   6.556   6.276  14.528 -2.6713 -1.0468  2.5486
  198DOPC  H14Y24611   6.681   6.283  14.662  0.9913 -0.6805 -0.6117
  198DOPC  C31524612   6.500   6.399  14.694 -0.1412 -0.5386 -0.2014
  198DOPC  H15X24613   6.421   6.325  14.719  0.1578 -0.4248  1.1843
  198DOPC  H15Y24614   6.450   6.481  14.639  0.6247 -0.3347 -0.6141
  198DOPC  C31624615   6.562   6.449  14.831 -0.1604 -0.3358  0.0910
  198DOPC  H16X24616   6.617   6.368  14.883  0.0497 -1.4468 -1.7578
  198DOPC  H16Y24617   6.622   6.537  14.800 -1.7721  0.7979  0.0789
  198DOPC  C31724618   6.450   6.487  14.922 -0.2496  0.0086 -0.4956
  198DOPC  H17X24619   6.380   6.565  14.883 -0.8377  1.5748  3.2579
  198DOPC  H17Y24620   6.382   6.401  14.937  1.6928 -1.4153  0.4964
  198DOPC  C31824621   6.504   6.530  15.054  0.4225 -0.8131  0.1658
  198DOPC  H18X24622   6.577   6.611  15.032 -0.1038 -0.3607  0.0590
  198DOPC  H18Y24623   6.428   6.577  15.121  3.0320 -0.6319  3.2400
  198DOPC  H18Z24624   6.568   6.456  15.106 -0.0991 -1.9023 -0.7114
  199DOPC     N24625   6.274   6.666  12.332 -0.6224 -0.1094  0.3419
  199DOPC   C1224626   6.320   6.671  12.482  0.1628 -0.0764 -0.1105
  199DOPC  H12A24627   6.338   6.774  12.508  0.6200  0.0986 -1.0508
  199DOPC  H12B24628   6.410   6.611  12.476  0.6095  0.5865 -0.1350
  199DOPC   C1324629   6.167   6.766  12.306  0.2220 -1.0674 -0.0828
  199DOPC  H13A24630   6.082   6.737  12.366 -0.1853  0.1083 -0.0743
  199DOPC  H13B24631   6.198   6.864  12.338  1.5950 -0.9962 -1.4769
  199DOPC  H13C24632   6.128   6.767  12.205  1.5835 -1.7070 -0.6441
  199DOPC   C1424633   6.228   6.527  12.304 -0.6077 -0.7156 -0.5587
  199DOPC  H14A24634   6.311   6.460  12.321 -0.0529  0.4561  1.7593
  199DOPC  H14B24635   6.146   6.498  12.368 -0.5406  1.3736  0.5584
  199DOPC  H14C24636   6.195   6.524  12.202  1.6354  2.9899 -1.5878
  199DOPC   C1524637   6.392   6.685  12.241 -0.3855  0.9609 -0.2628
  199DOPC  H15A24638   6.431   6.786  12.234  2.8378  0.0812  2.5346
  199DOPC  H15B24639   6.363   6.658  12.140 -0.6163  0.2154  0.0024
  199DOPC  H15C24640   6.482   6.631  12.266 -0.1823  1.6637  0.5531
  199DOPC   C1124641   6.222   6.599  12.588  0.4436 -0.1790  0.5180
  199DOPC  H11A24642   6.196   6.496  12.556  0.6290 -0.3020  0.7648
  199DOPC  H11B24643   6.281   6.575  12.679 -0.2387  0.5725  1.1808
  199DOPC     P24644   6.103   6.808  12.676 -0.0076  0.4139 -0.2830
  199DOPC   O1324645   5.985   6.825  12.758 -0.0107 -0.0560 -0.6557
  199DOPC   O1424646   6.135   6.911  12.576 -0.0660 -0.2379  0.3942
  199DOPC   O1224647   6.098   6.669  12.608 -0.7086  0.7320  0.1387
  199DOPC   O1124648   6.221   6.793  12.778 -0.6640  1.0837 -0.6162
  199DOPC    C124649   6.254   6.891  12.872 -0.0541  0.5391 -1.3124
  199DOPC    HA24650   6.182   6.976  12.875  0.7069  1.3246  3.3466
  199DOPC    HB24651   6.360   6.923  12.862  0.8886 -1.7648  0.4965
  199DOPC    C224652   6.259   6.836  13.020  0.1383 -0.5909 -0.5737
  199DOPC    HS24653   6.292   6.920  13.086  0.7949 -0.0254 -1.5969
  199DOPC   O2124654   6.336   6.714  13.041 -0.3200 -0.2949 -0.3395
  199DOPC   C2124655   6.470   6.719  13.016  1.0540 -0.7308  0.2741
  199DOPC   O2224656   6.527   6.822  12.990 -0.6001  0.0310 -0.0722
  199DOPC   C2224657   6.535   6.582  13.004 -0.8096 -0.3950  0.1826
  199DOPC   H2R24658   6.640   6.612  12.981  0.0789 -0.5001  3.6030
  199DOPC   H2S24659   6.482   6.537  12.917  1.5502 -0.7125 -1.1810
  199DOPC    C324660   6.119   6.801  13.074 -1.2308  1.0481 -0.0705
  199DOPC    HX24661   6.079   6.714  13.018  1.2136  1.0127 -1.9306
  199DOPC    HY24662   6.053   6.884  13.043 -3.8907 -1.0892 -0.5204
  199DOPC   O3124663   6.117   6.776  13.221  0.1421  0.1117  0.4906
  199DOPC   C3124664   6.091   6.655  13.264  0.8047  0.7098  0.1207
  199DOPC   O3224665   6.079   6.552  13.199 -0.2363 -0.3237  0.3646
  199DOPC   C3224666   6.041   6.671  13.409  1.1226  0.7211  1.0302
  199DOPC   H2X24667   6.107   6.744  13.460  1.5526  0.4505  0.8601
  199DOPC   H2Y24668   5.943   6.725  13.409  1.3944  1.5242 -2.7574
  199DOPC   C2324669   6.544   6.486  13.129 -0.5559  0.4739 -0.3613
  199DOPC   H3R24670   6.561   6.547  13.220  0.6219  0.1300 -0.3370
  199DOPC   H3S24671   6.622   6.410  13.106 -0.4611  0.6760 -0.6970
  199DOPC   C2424672   6.422   6.399  13.148 -0.5858 -0.8366 -0.3147
  199DOPC   H4R24673   6.417   6.328  13.063 -0.9849  0.1814 -1.1639
  199DOPC   H4S24674   6.335   6.468  13.145  0.1152  0.0654  0.0006
  199DOPC   C2524675   6.419   6.333  13.282 -0.2890 -0.1288 -0.0058
  199DOPC   H5R24676   6.457   6.399  13.362  0.8413 -3.1627  2.1642
  199DOPC   H5S24677   6.491   6.248  13.285  0.1676  0.2708  0.6770
  199DOPC   C2624678   6.286   6.278  13.323 -0.5739  0.4307  0.1790
  199DOPC   H6R24679   6.269   6.186  13.263  0.6226  0.9110 -0.9278
  199DOPC   H6S24680   6.204   6.348  13.295 -0.3017  0.7369  0.1514
  199DOPC   C2724681   6.269   6.262  13.473 -0.4556 -0.2010  0.5344
  199DOPC   H7R24682   6.159   6.248  13.482 -0.6070  1.3852  1.5660
  199DOPC   H7S24683   6.306   6.358  13.514 -0.6332  0.9820 -1.9154
  199DOPC   C2824684   6.351   6.148  13.529  0.1986 -0.3252 -0.1767
  199DOPC   H8R24685   6.454   6.188  13.545 -0.6097  1.1716  1.6756
  199DOPC   H8S24686   6.350   6.068  13.452 -0.2167 -0.4924  0.0023
  199DOPC   C2924687   6.289   6.089  13.653  0.1427 -0.7389 -0.2878
  199DOPC   H9R24688   6.183   6.062  13.641 -0.0040 -0.2780 -0.0555
  199DOPC  C21024689   6.339   6.086  13.775 -0.2691 -0.8141 -0.6776
  199DOPC  H10R24690   6.277   6.062  13.863 -0.8281 -1.9674 -1.3630
  199DOPC  C21124691   6.472   6.144  13.805  0.2281 -0.4014 -0.3000
  199DOPC  H11R24692   6.466   6.255  13.794  3.8832 -0.2966 -3.0753
  199DOPC  H11S24693   6.547   6.107  13.731  0.8677 -2.2073  1.1906
  199DOPC  C21224694   6.532   6.114  13.945 -0.0670 -0.7897  1.0967
  199DOPC  H12R24695   6.641   6.132  13.935 -0.6004  3.2062  0.7448
  199DOPC  H12S24696   6.515   6.007  13.969 -1.0606 -1.2695 -1.4036
  199DOPC  C21324697   6.473   6.198  14.057  0.4161 -0.3065  0.3478
  199DOPC  H13R24698   6.365   6.171  14.067  0.3078 -1.3111 -2.6067
  199DOPC  H13S24699   6.474   6.302  14.020  1.5994 -1.2305 -2.4741
  199DOPC  C21424700   6.534   6.178  14.201 -0.8431 -0.0432  0.3133
  199DOPC  H14R24701   6.496   6.253  14.273  0.1776 -0.9952  1.9131
  199DOPC  H14S24702   6.641   6.205  14.190 -1.6457  2.8487 -1.2692
  199DOPC  C21524703   6.519   6.036  14.263 -0.1832  0.2206  0.1147
  199DOPC  H15R24704   6.551   5.957  14.193  2.1445 -0.3852  1.7673
  199DOPC  H15S24705   6.410   6.018  14.278  0.0081 -0.1907  1.0486
  199DOPC  C21624706   6.607   6.002  14.384  0.6378 -0.5968  0.3961
  199DOPC  H16R24707   6.580   6.070  14.468  0.4094  0.2070 -0.3077
  199DOPC  H16S24708   6.713   6.021  14.361  0.8643 -1.1104  0.9889
  199DOPC  C21724709   6.612   5.857  14.431  0.0924 -0.2872 -0.1562
  199DOPC  H17R24710   6.650   5.787  14.354  2.2031  1.0836 -0.4218
  199DOPC  H17S24711   6.509   5.831  14.467 -0.9735  3.4487 -0.1298
  199DOPC  C21824712   6.711   5.837  14.549 -0.1136  0.4235 -0.1695
  199DOPC  H18R24713   6.709   5.919  14.625 -0.5325 -0.2228  0.5305
  199DOPC  H18S24714   6.812   5.841  14.503 -1.1713  1.4380 -2.5326
  199DOPC  H18T24715   6.668   5.746  14.596 -1.4160  0.0668 -1.9386
  199DOPC   C3324716   6.038   6.535  13.477 -0.3960  0.4245  0.4514
  199DOPC   H3X24717   6.140   6.494  13.494 -0.7270  0.1592  1.9215
  199DOPC   H3Y24718   5.993   6.450  13.422  0.9191 -0.0124  0.0240
  199DOPC   C3424719   5.965   6.542  13.613  0.9802  0.5178 -1.1634
  199DOPC   H4X24720   5.856   6.542  13.590  0.9997  1.7001 -1.3047
  199DOPC   H4Y24721   5.997   6.634  13.667 -3.0779  0.6480  1.4504
  199DOPC   C3524722   6.001   6.418  13.706  0.0304 -0.1930  0.3430
  199DOPC   H5X24723   6.111   6.402  13.708  0.2195  0.3902 -2.1216
  199DOPC   H5Y24724   5.960   6.332  13.648  1.1580 -0.6639  0.2082
  199DOPC   C3624725   5.961   6.442  13.853  0.5779 -0.7311  0.1749
  199DOPC   H6X24726   6.012   6.534  13.889 -0.5828  1.1106 -2.5778
  199DOPC   H6Y24727   5.852   6.467  13.851  0.0493 -2.9363 -0.3895
  199DOPC   C3724728   6.003   6.324  13.948  0.8713  0.1423 -0.0037
  199DOPC   H7X24729   6.107   6.301  13.917 -0.0656  0.2386 -3.8109
  199DOPC   H7Y24730   6.015   6.360  14.052 -1.1149  0.7127  0.0815
  199DOPC   C3824731   5.912   6.205  13.937  0.1314  0.3119 -0.0566
  199DOPC   H8X24732   5.914   6.167  13.833  2.0250 -0.2039  0.1451
  199DOPC   H8Y24733   5.807   6.240  13.948  0.7855  2.5373 -0.3328
  199DOPC   C3924734   5.935   6.077  14.015  0.6012  0.0466  0.1931
  199DOPC   H9X24735   5.889   5.990  13.966  1.5473  0.4148 -1.4045
  199DOPC  C31024736   5.996   6.060  14.135 -0.6404 -0.1115 -0.2773
  199DOPC  H10X24737   5.972   5.971  14.195  0.4195 -0.1147  0.1553
  199DOPC  C31124738   6.065   6.164  14.225  0.6108 -0.3975  0.5961
  199DOPC  H11X24739   6.140   6.224  14.169  1.0860 -0.2901  1.3311
  199DOPC  H11Y24740   6.136   6.114  14.294  0.2580 -0.7526  0.7071
  199DOPC  C31224741   5.981   6.248  14.323 -0.5853 -0.5024  0.0328
  199DOPC  H12X24742   5.921   6.185  14.392 -0.8660  2.5039  2.7784
  199DOPC  H12Y24743   5.911   6.320  14.275  0.0945 -0.3870 -0.8116
  199DOPC  C31324744   6.066   6.342  14.411 -0.3777 -0.0110 -0.4107
  199DOPC  H13X24745   6.108   6.416  14.340  0.3010  0.3009  0.3049
  199DOPC  H13Y24746   6.005   6.402  14.481  1.2050  0.5045  0.5873
  199DOPC  C31424747   6.177   6.258  14.487 -0.2534 -0.1268  0.4267
  199DOPC  H14X24748   6.262   6.228  14.422 -0.4113 -3.5443  1.6368
  199DOPC  H14Y24749   6.222   6.319  14.568  0.3870 -0.5955  0.4235
  199DOPC  C31524750   6.139   6.130  14.556  0.4330 -0.4859  0.1566
  199DOPC  H15X24751   6.117   6.053  14.480  1.8241 -1.0417  0.2916
  199DOPC  H15Y24752   6.053   6.146  14.625  1.1979  0.7732  0.8537
  199DOPC  C31624753   6.249   6.080  14.637 -0.9553  0.4362  0.0252
  199DOPC  H16X24754   6.341   6.080  14.575 -1.3967  3.4160 -0.7741
  199DOPC  H16Y24755   6.266   6.148  14.723 -1.7390  0.7665 -0.0729
  199DOPC  C31724756   6.231   5.939  14.691  0.0831  0.3065  0.1052
  199DOPC  H17X24757   6.147   5.926  14.763  0.5483 -1.0163  0.4512
  199DOPC  H17Y24758   6.211   5.869  14.607  1.2019 -0.6921  0.6284
  199DOPC  C31824759   6.349   5.891  14.768  0.1859 -0.3356  0.3810
  199DOPC  H18X24760   6.441   5.916  14.711 -0.7380  1.8909 -0.2172
  199DOPC  H18Y24761   6.361   5.942  14.866 -1.3064 -0.7269  0.7976
  199DOPC  H18Z24762   6.349   5.781  14.787 -0.2397  0.0196  2.8255
  200DOPC     N24763   2.783   6.199  12.138 -0.0765  0.3665 -0.0477
  200DOPC   C1224764   2.896   6.220  12.231 -0.5173  0.2045  0.0640
  200DOPC  H12A24765   2.937   6.320  12.234 -1.5620  0.6182  2.5671
  200DOPC  H12B24766   2.974   6.162  12.185 -0.6785 -0.1420  0.2300
  200DOPC   C1324767   2.825   6.225  11.997 -0.6217  0.5126  0.0832
  200DOPC  H13A24768   2.871   6.321  11.975 -0.6733  0.3851 -0.6226
  200DOPC  H13B24769   2.899   6.154  11.962 -0.6044  0.8867 -0.6700
  200DOPC  H13C24770   2.737   6.218  11.934 -0.6256 -0.5089  0.1882
  200DOPC   C1424771   2.672   6.299  12.159  0.0026  1.4782 -0.2176
  200DOPC  H14A24772   2.624   6.291  12.256 -1.0051 -1.0970 -0.8640
  200DOPC  H14B24773   2.708   6.401  12.157  0.2283  1.4012 -0.1336
  200DOPC  H14C24774   2.602   6.292  12.078  1.3520 -0.2636 -1.3000
  200DOPC   C1524775   2.718   6.057  12.156 -0.4702  0.7683  0.3780
  200DOPC  H15A24776   2.791   5.979  12.148 -1.4780 -0.1041 -0.6491
  200DOPC  H15B24777   2.647   6.039  12.076 -0.1404 -0.4635  0.3496
  200DOPC  H15C24778   2.663   6.053  12.249  0.0320 -0.6170  0.6359
  200DOPC   C1124779   2.882   6.180  12.382 -0.0913  0.4535 -0.0170
  200DOPC  H11A24780   2.876   6.070  12.386 -0.9221  0.5095  3.7994
  200DOPC  H11B24781   2.979   6.198  12.434 -0.2569  4.3450 -0.7432
  200DOPC     P24782   2.824   6.385  12.529 -0.0177  0.0224 -0.3241
  200DOPC   O1324783   2.872   6.490  12.443 -0.0854 -0.0938 -0.0333
  200DOPC   O1424784   2.925   6.342  12.631  0.3118  0.1690  0.1425
  200DOPC   O1224785   2.779   6.246  12.452  0.1878  0.1073 -0.3586
  200DOPC   O1124786   2.699   6.435  12.617  0.6910 -1.0745  0.4933
  200DOPC    C124787   2.568   6.384  12.581  1.0895 -0.1289 -0.1835
  200DOPC    HA24788   2.561   6.274  12.593 -1.2933 -0.0979 -0.8263
  200DOPC    HB24789   2.541   6.400  12.475 -1.3226 -1.4215  0.1642
  200DOPC    C224790   2.466   6.453  12.670  0.2333 -1.0468 -0.0129
  200DOPC    HS24791   2.474   6.562  12.653 -1.2803 -0.8390  0.4475
  200DOPC   O2124792   2.499   6.423  12.805 -0.3039 -0.0253  0.3444
  200DOPC   C2124793   2.489   6.522  12.895  0.1637  0.0929 -0.2625
  200DOPC   O2224794   2.455   6.633  12.866 -0.0817 -0.4061  0.3131
  200DOPC   C2224795   2.534   6.475  13.036 -0.5875 -0.0514  0.0771
  200DOPC   H2R24796   2.632   6.425  13.025 -1.2898 -2.0553  2.3066
  200DOPC   H2S24797   2.458   6.410  13.084  1.9429 -2.5032  1.0286
  200DOPC    C324798   2.322   6.407  12.644 -0.2845  0.3673 -0.3271
  200DOPC    HX24799   2.298   6.317  12.704  1.1463  0.2743  0.1583
  200DOPC    HY24800   2.320   6.378  12.537 -1.6616  1.5279 -0.6399
  200DOPC   O3124801   2.227   6.513  12.658  0.3356 -0.9013 -0.1319
  200DOPC   C3124802   2.176   6.531  12.781  0.2815  0.4340  0.1550
  200DOPC   O3224803   2.200   6.464  12.879  0.0936  0.0625 -0.5079
  200DOPC   C3224804   2.078   6.641  12.774  0.1069 -0.0535 -0.1102
  200DOPC   H2X24805   2.123   6.730  12.726  0.5150  1.0980  2.2373
  200DOPC   H2Y24806   2.008   6.604  12.697  0.2567  2.4326 -1.5414
  200DOPC   C2324807   2.545   6.592  13.137  0.3042  0.1346 -0.1529
  200DOPC   H3R24808   2.441   6.626  13.155  0.2043  0.3781 -1.0928
  200DOPC   H3S24809   2.594   6.682  13.093  0.3573  0.8061  1.2373
  200DOPC   C2424810   2.605   6.550  13.279 -0.2658  0.0384 -0.2478
  200DOPC   H4R24811   2.626   6.646  13.329 -0.0781 -1.0191  1.8253
  200DOPC   H4S24812   2.696   6.490  13.259  0.1464  0.7267 -0.4444
  200DOPC   C2524813   2.514   6.458  13.363  0.5054  0.9208  0.3914
  200DOPC   H5R24814   2.529   6.361  13.310  0.9029  0.3139  1.5865
  200DOPC   H5S24815   2.408   6.488  13.353 -0.5361 -1.8807  1.8388
  200DOPC   C2624816   2.537   6.441  13.516 -0.2077  0.6347 -0.8531
  200DOPC   H6R24817   2.644   6.415  13.526  0.2973  0.7842 -4.5669
  200DOPC   H6S24818   2.480   6.353  13.553  0.0041  0.2519 -1.4330
  200DOPC   C2724819   2.505   6.567  13.610  0.2053  0.1982  0.9621
  200DOPC   H7R24820   2.534   6.658  13.554  2.1144 -1.2973 -0.5916
  200DOPC   H7S24821   2.575   6.558  13.695  2.4288 -3.6663 -1.0381
  200DOPC   C2824822   2.355   6.572  13.643 -0.0049  0.1450 -0.2631
  200DOPC   H8R24823   2.329   6.472  13.685  0.2626  0.5738  0.9505
  200DOPC   H8S24824   2.303   6.584  13.546  1.5728  0.3474 -1.1197
  200DOPC   C2924825   2.315   6.678  13.739  0.6130 -0.6306 -0.1920
  200DOPC   H9R24826   2.264   6.770  13.706 -0.7708 -0.4006  2.3276
  200DOPC  C21024827   2.336   6.677  13.872 -0.4379 -0.7599 -0.0601
  200DOPC  H10R24828   2.299   6.752  13.943 -1.5364 -2.4550  1.2615
  200DOPC  C21124829   2.416   6.568  13.940  0.1300 -0.3482 -0.1247
  200DOPC  H11R24830   2.509   6.538  13.888  1.3595  0.7186  1.3536
  200DOPC  H11S24831   2.351   6.477  13.941 -0.1239 -0.1736 -0.5959
  200DOPC  C21224832   2.456   6.605  14.081 -0.0557  0.3374 -0.0664
  200DOPC  H12R24833   2.509   6.702  14.090  1.3493 -0.3771 -0.3653
  200DOPC  H12S24834   2.536   6.538  14.118  1.1864  0.3715 -2.4956
  200DOPC  C21324835   2.343   6.597  14.190 -0.2092 -0.5526  0.0591
  200DOPC  H13R24836   2.333   6.494  14.230 -0.7047 -0.1310  1.0356
  200DOPC  H13S24837   2.251   6.637  14.141  1.0000  1.9167 -0.3908
  200DOPC  C21424838   2.367   6.697  14.299 -0.4474  0.4236  0.2349
  200DOPC  H14R24839   2.336   6.795  14.256 -1.2352 -0.3870 -1.1506
  200DOPC  H14S24840   2.475   6.694  14.325 -0.6054 -0.6374  0.7998
  200DOPC  C21524841   2.284   6.674  14.430  0.0943  0.5437 -0.0407
  200DOPC  H15R24842   2.312   6.577  14.474  0.8969  1.3492  1.2753
  200DOPC  H15S24843   2.178   6.670  14.394  0.3815 -1.3830 -0.7863
  200DOPC  C21624844   2.304   6.790  14.530  0.5115 -0.0216  0.0559
  200DOPC  H16R24845   2.291   6.886  14.477  0.3587  0.0097  0.1487
  200DOPC  H16S24846   2.410   6.787  14.562  0.4282  1.8137  0.6032
  200DOPC  C21724847   2.199   6.797  14.640  0.1433  0.1943  0.1127
  200DOPC  H17R24848   2.201   6.698  14.691  1.1819  0.1825  0.0845
  200DOPC  H17S24849   2.100   6.815  14.594  0.0650 -0.6063 -0.0578
  200DOPC  C21824850   2.218   6.910  14.744 -0.3498 -0.1264 -0.2253
  200DOPC  H18R24851   2.320   6.896  14.785  0.1851  0.5825 -1.2889
  200DOPC  H18S24852   2.143   6.889  14.824  0.4098  1.1406  0.8519
  200DOPC  H18T24853   2.207   7.014  14.707 -1.6659 -0.4779 -0.9029
  200DOPC   C3324854   2.010   6.676  12.903 -0.3649  0.2938 -0.0900
  200DOPC   H3X24855   1.983   6.580  12.951 -1.0967  0.8943  0.7354
  200DOPC   H3Y24856   1.913   6.729  12.894 -0.6290 -0.0882  0.4410
  200DOPC   C3424857   2.094   6.758  13.001  0.4631 -0.6215 -0.7229
  200DOPC   H4X24858   2.105   6.860  12.959 -1.9939 -0.2019 -0.4864
  200DOPC   H4Y24859   2.194   6.712  13.013 -0.3631 -2.6456 -1.1524
  200DOPC   C3524860   2.018   6.761  13.136  0.1044  0.0997  0.3095
  200DOPC   H5X24861   1.911   6.775  13.109 -0.5282 -0.7098  2.1713
  200DOPC   H5Y24862   2.050   6.853  13.190  0.2153  1.1190 -1.4220
  200DOPC   C3624863   2.025   6.635  13.225  0.1516  0.4053  0.8950
  200DOPC   H6X24864   1.988   6.555  13.157 -0.1279  1.4044 -0.1650
  200DOPC   H6Y24865   2.131   6.615  13.253 -0.2616 -1.8017  1.0943
  200DOPC   C3724866   1.943   6.641  13.352  0.4687  0.3950  0.4574
  200DOPC   H7X24867   1.844   6.680  13.320  0.1826 -0.0815  0.7485
  200DOPC   H7Y24868   1.916   6.539  13.388 -2.1390  0.8355 -0.0272
  200DOPC   C3824869   2.005   6.718  13.473 -0.9749  0.7198  1.2796
  200DOPC   H8X24870   2.018   6.825  13.446 -3.0069  1.3570  2.6260
  200DOPC   H8Y24871   2.106   6.674  13.492 -1.3635 -0.9643 -0.3592
  200DOPC   C3924872   1.920   6.703  13.594 -0.3265  0.1585 -0.9000
  200DOPC   H9X24873   1.923   6.617  13.663  1.5244  2.0872  1.6153
  200DOPC  C31024874   1.847   6.805  13.651  0.7356  0.6815  0.5103
  200DOPC  H10X24875   1.791   6.774  13.740  0.2831  0.4301  0.1427
  200DOPC  C31124876   1.814   6.946  13.605 -0.8230  1.0653  0.8726
  200DOPC  H11X24877   1.882   6.976  13.523 -2.8905  0.0788 -1.3131
  200DOPC  H11Y24878   1.833   7.019  13.687  0.0141  1.5644  0.2494
  200DOPC  C31224879   1.674   6.965  13.568  0.4725  0.4653  0.2046
  200DOPC  H12X24880   1.644   6.906  13.478 -1.7912 -1.0583  1.8373
  200DOPC  H12Y24881   1.671   7.073  13.543 -0.7293  0.0325 -1.8467
  200DOPC  C31324882   1.565   6.949  13.679  0.5063  0.4097  0.4460
  200DOPC  H13X24883   1.576   6.847  13.721  2.4597 -0.1388 -1.2421
  200DOPC  H13Y24884   1.586   7.032  13.750  0.9506  1.5452 -0.9549
  200DOPC  C31424885   1.419   6.966  13.630  0.0332  0.7036  0.0931
  200DOPC  H14X24886   1.408   7.060  13.571  0.7150  1.0232  0.4588
  200DOPC  H14Y24887   1.392   6.888  13.557 -2.6564  1.7562 -0.1487
  200DOPC  C31524888   1.319   6.964  13.740 -0.0985 -0.3613 -0.1231
  200DOPC  H15X24889   1.323   6.863  13.786  0.0052 -0.4876 -0.4100
  200DOPC  H15Y24890   1.220   6.977  13.692 -0.2855 -1.9844 -0.2231
  200DOPC  C31624891   1.345   7.073  13.846  0.0045  0.1826  0.6915
  200DOPC  H16X24892   1.428   7.042  13.913 -1.4980 -0.9102  2.1353
  200DOPC  H16Y24893   1.353   7.171  13.795 -2.1337  0.7456  1.3000
  200DOPC  C31724894   1.219   7.094  13.935  1.1415  0.1630 -0.4242
  200DOPC  H17X24895   1.204   6.994  13.981 -1.2116  0.4087 -0.5260
  200DOPC  H17Y24896   1.232   7.176  14.009 -3.2987  1.1426 -0.4774
  200DOPC  C31824897   1.080   7.128  13.860 -0.5767  0.0197  0.1060
  200DOPC  H18X24898   1.024   7.192  13.932  1.8276  0.1768  1.9638
  200DOPC  H18Y24899   1.094   7.184  13.765 -1.9055  0.0120 -0.1156
  200DOPC  H18Z24900   1.013   7.040  13.850  1.1879 -1.1678 -2.0915
  201SOD    SOD24901   3.002   6.977  16.887 -0.2366  0.1247  0.1226
  202SOD    SOD24902   3.574   3.977  11.979  0.1244 -0.0735 -0.3001
  203SOD    SOD24903   0.161   3.243  17.566  0.4349 -0.3246 -0.1313
  204SOD    SOD24904   1.399   1.896  10.969  0.4882  0.1296  0.2454
  205SOD    SOD24905   2.039   4.907  17.784 -0.0130 -0.0950  0.1869
  206SOD    SOD24906   1.990   2.084  12.975  0.1499 -0.2052  0.2421
  207SOD    SOD24907   1.423   3.012  12.453 -0.2643 -0.0032 -0.5220
  208SOD    SOD24908   5.966   0.198  16.999  0.2181 -0.4243  0.3097
  209SOD    SOD24909   5.711   3.972  13.463 -0.1204  0.2781 -0.2713
  210SOD    SOD24910   4.698   3.977  17.503 -0.7395  0.2213 -0.1993
  211SOD    SOD24911   3.715   7.483  18.385 -0.0798  0.7326  0.2715
  212SOD    SOD24912   1.423   2.574  16.839 -0.2440 -0.0697 -0.1068
  213SOD    SOD24913   1.596   0.831  11.457  0.1860  0.4930  0.2551
  214SOD    SOD24914   1.018   6.271  18.847 -0.2172  0.2187  0.1337
  215SOD    SOD24915   3.702   3.712  17.384 -0.3180 -0.0412  0.2364
  216SOD    SOD24916   5.245   7.072  19.114  0.2877  0.6663  0.0240
  217SOD    SOD24917   0.699   4.187  12.006 -0.3812  0.0024  0.3531
  218SOD    SOD24918   4.629   4.936  16.905 -0.0847 -0.0012 -0.0892
  219SOD    SOD24919   5.340   0.561  18.536  0.0850 -0.2180  0.0665
  220SOD    SOD24920   3.535   2.157  10.651 -0.3353 -0.3127 -0.7117
  221SOD    SOD24921   2.575   3.098  11.554 -0.3632 -0.3208  0.6331
  222SOD    SOD24922   4.450   0.979  19.139 -0.0942  0.4955 -0.1986
  223SOD    SOD24923   0.883   6.639  11.519  0.5734  0.3336  0.4197
  224SOD    SOD24924   7.553   4.563  12.824  0.0167  0.0156  0.3922
  225SOD    SOD24925   2.983   0.850  11.278 -0.3961  0.1806  0.0831
  226SOD    SOD24926   1.452   4.364  18.394  0.4289  0.4577 -0.9113
  227CLA    CLA24927   0.221   0.821  12.190  0.0684  0.1191 -0.5372
  228CLA    CLA24928   7.552   2.556  11.476 -0.4600  0.1151  0.0440
  229CLA    CLA24929   4.157   2.160  12.157  0.4162  0.2558  0.4280
  230CLA    CLA24930   6.263   1.546  18.280 -0.1931  0.3249  0.1650
  231CLA    CLA24931   0.726   3.051  19.099  0.2848  0.3229  0.0099
  232CLA    CLA24932   2.115   3.439  17.353  0.0958  0.1443 -0.0145
  233CLA    CLA24933   3.134   6.474  17.910 -0.0803  0.1520 -0.3843
  234CLA    CLA24934   2.613   2.470  17.892 -0.1831  0.4327  0.1188
  235CLA    CLA24935   3.606   1.759  12.263 -0.0839  0.0192 -0.2093
  236CLA    CLA24936   1.013   5.718  18.457 -0.1860 -0.5279  0.5093
  237CLA    CLA24937   4.019   4.293  18.539  0.2682  0.2246  0.2107
  238CLA    CLA24938   7.126   4.310  10.763 -0.0780 -0.0331 -0.0331
  239CLA    CLA24939   3.640   4.285  12.465 -0.5474 -0.1493  0.0757
  240CLA    CLA24940   6.391   4.986  18.629 -0.2244  0.3924 -0.0485
  241CLA    CLA24941   3.609   3.825  12.200  0.3068 -0.3683 -0.2309
  242CLA    CLA24942   1.757   1.807  18.890 -0.0644 -0.0475  0.0973
  243CLA    CLA24943   1.815   3.059  11.253 -0.2841 -0.1218 -0.2409
  244CLA    CLA24944   4.047   5.152  11.496 -0.0991 -0.4109  0.1036
  245CLA    CLA24945   3.136   5.740  11.293 -0.2986  0.6096  0.5871
  246CLA    CLA24946   5.688   2.971  17.751  0.2582  0.2446 -0.0272
  247CLA    CLA24947   3.119   2.000  10.811 -0.1203 -0.3496  0.2335
  248CLA    CLA24948   1.342   1.668  11.122  0.2333  0.1839  0.2061
  249CLA    CLA24949   5.812   4.129  10.705  0.3006 -0.4272 -0.3157
  250CLA    CLA24950   1.609   6.739  17.991 -0.2655  0.1366  0.6292
  251CLA    CLA24951   3.641   7.028  18.142  0.3151 -0.2379  0.0204
  252CLA    CLA24952   7.062   7.581  12.027 -0.0849 -0.0947 -0.1220
  253TIP3   OH224953   6.269   0.137  17.773  0.1659  0.3901  0.0571
  253TIP3    H124954   6.334   0.164  17.838  0.7616 -0.7427 -0.0415
  253TIP3    H224955   6.275   0.041  17.772  0.6586  0.3916 -2.1336
  254TIP3   OH224956   5.961   6.126  18.341  0.0061  0.3610  0.3114
  254TIP3    H124957   6.053   6.101  18.329  0.2535  1.5927 -0.4977
  254TIP3    H224958   5.961   6.188  18.413 -0.4405 -0.8605  1.4174
  255TIP3   OH224959   1.201   3.434  16.906  0.0312 -0.4843  0.1956
  255TIP3    H124960   1.188   3.472  16.993  0.2978 -0.6490  0.3087
  255TIP3    H224961   1.262   3.494  16.863  0.3903 -0.7412  0.3460
  256TIP3   OH224962   6.389   7.230  19.224  0.4392  0.2899 -0.2824
  256TIP3    H124963   6.344   7.292  19.167 -0.0898 -0.3444 -0.5690
  256TIP3    H224964   6.380   7.146  19.179  0.3101 -0.1624  0.5738
  257TIP3   OH224965   2.050   7.525  17.121  0.3016  0.4360 -0.1350
  257TIP3    H124966   2.038   7.532  17.215  0.4251  1.0508 -0.1656
  257TIP3    H224967   2.044   7.614  17.088  1.3977  0.3724 -0.5746
  258TIP3   OH224968   3.521   7.280  18.026 -0.1099 -0.2236 -0.2547
  258TIP3    H124969   3.495   7.263  17.936 -0.3067 -1.7570  0.0727
  258TIP3    H224970   3.558   7.197  18.057 -1.0454 -0.0607  1.4194
  259TIP3   OH224971   3.483   3.717  17.809 -0.9601 -0.0182  0.3720
  259TIP3    H124972   3.503   3.624  17.817  0.3259  0.2718  0.8412
  259TIP3    H224973   3.414   3.732  17.874  0.5148 -0.1938  2.0515
  260TIP3   OH224974   0.840   3.077  18.490  0.3874 -0.6337 -0.0682
  260TIP3    H124975   0.846   3.125  18.407  0.9192 -2.5204 -1.1937
  260TIP3    H224976   0.898   3.125  18.549  0.8309  0.1605 -1.1019
  261TIP3   OH224977   6.675   1.822  17.779 -0.0494  0.0496 -0.2786
  261TIP3    H124978   6.633   1.850  17.698 -0.2654  2.3968  0.5511
  261TIP3    H224979   6.764   1.858  17.775 -0.4085  1.1898  0.9400
  262TIP3   OH224980   5.284   6.145  19.202 -0.4266 -0.3342 -0.2544
  262TIP3    H124981   5.262   6.237  19.218  1.6947  0.7707 -2.8287
  262TIP3    H224982   5.240   6.124  19.120  1.5637 -0.5363 -1.3399
  263TIP3   OH224983   3.140   4.385  18.818  0.7079  0.4444  0.0774
  263TIP3    H124984   3.086   4.306  18.825  1.4881 -0.3310 -1.8503
  263TIP3    H224985   3.230   4.353  18.824  1.0640  1.0105 -1.6439
  264TIP3   OH224986   4.401   3.496  19.085  0.0777  0.6129 -0.6355
  264TIP3    H124987   4.351   3.416  19.103 -0.4269  1.4453  2.1538
  264TIP3    H224988   4.418   3.493  18.991 -0.8415 -2.2202 -0.8100
  265TIP3   OH224989   7.178   4.127  19.414 -0.7095  0.0634 -0.5398
  265TIP3    H124990   7.103   4.143  19.356 -1.0940  0.4960  0.0679
  265TIP3    H224991   7.151   4.052  19.467  0.4013 -1.5995 -2.1954
  266TIP3   OH224992   6.219   6.358  17.562  0.1881  0.5727 -0.5900
  266TIP3    H124993   6.247   6.291  17.498 -0.7846 -0.3273 -0.1059
  266TIP3    H224994   6.300   6.384  17.606  0.3910 -1.6774  0.5066
  267TIP3   OH224995   4.325   6.218  18.280  0.0399  0.2070 -0.0678
  267TIP3    H124996   4.262   6.246  18.347  0.4880  1.3958 -0.1255
  267TIP3    H224997   4.402   6.272  18.295  0.3338  0.1354 -1.2305
  268TIP3   OH224998   2.950   0.244  18.178  0.6425 -0.3690  0.2795
  268TIP3    H124999   3.030   0.196  18.158  2.4339  0.6622  4.1175
  268TIP3    H225000   2.946   0.313  18.112  3.0478 -0.3349  0.0892
  269TIP3   OH225001   2.064   7.126  18.564 -0.0891  0.0034 -0.1836
  269TIP3    H125002   2.119   7.174  18.625  0.0034 -0.1559 -0.1421
  269TIP3    H225003   2.101   7.038  18.561 -1.3012 -0.5983  1.1092
  270TIP3   OH225004   1.905   4.158  17.100 -0.4543  0.4778 -0.3601
  270TIP3    H125005   1.852   4.079  17.108  0.1400  0.1598  0.4724
  270TIP3    H225006   1.980   4.143  17.157  0.0530  1.3244 -0.7889
  271TIP3   OH225007   1.543   0.598  18.847  0.1256  0.6147  0.1162
  271TIP3    H125008   1.535   0.660  18.920 -0.3925  2.0185 -1.0949
  271TIP3    H225009   1.467   0.616  18.792  0.3479 -0.6331 -0.6170
  272TIP3   OH225010   1.043   3.285  16.461 -0.2076 -0.1495  0.1519
  272TIP3    H125011   1.042   3.196  16.495  0.3122 -0.3336 -0.2910
  272TIP3    H225012   1.128   3.292  16.416  0.1859  0.8733  1.0057
  273TIP3   OH225013   6.450   3.329  19.202  0.2539 -0.3731  0.1332
  273TIP3    H125014   6.510   3.383  19.253 -0.2319 -0.1339  0.4543
  273TIP3    H225015   6.505   3.258  19.168  1.0199  0.5830 -0.7212
  274TIP3   OH225016   4.928   3.833  17.811 -0.5432  0.0884  0.6233
  274TIP3    H125017   4.873   3.780  17.869  1.0533 -1.6627  0.6569
  274TIP3    H225018   4.983   3.768  17.766  1.1493  1.7095  0.2493
  275TIP3   OH225019   3.628   2.812  17.785 -0.0231 -0.1962  0.1106
  275TIP3    H125020   3.551   2.870  17.783  1.4193  1.8322  0.2032
  275TIP3    H225021   3.657   2.808  17.694  1.3312  1.3421  0.4340
  276TIP3   OH225022   0.046   3.801  18.792  0.5153  0.0591  0.1359
  276TIP3    H125023   0.106   3.769  18.724  0.6342 -1.3838  0.8827
  276TIP3    H225024  -0.038   3.761  18.770  0.1838  0.8289 -0.0193
  277TIP3   OH225025   2.016   4.086  18.203 -0.1273  0.2784 -0.0796
  277TIP3    H125026   1.937   4.093  18.150 -0.0148  0.7141 -0.1945
  277TIP3    H225027   1.985   4.091  18.294 -0.2109  0.7017 -0.1281
  278TIP3   OH225028   7.400   4.364  18.486  0.1903  0.0455 -0.3239
  278TIP3    H125029   7.427   4.302  18.554 -0.1122  0.7799  0.5053
  278TIP3    H225030   7.306   4.348  18.476  0.4358 -0.7940 -1.3670
  279TIP3   OH225031   1.824   5.298  17.844 -0.3570 -0.2759  0.4497
  279TIP3    H125032   1.833   5.393  17.855 -1.6492 -0.1580  0.7021
  279TIP3    H225033   1.802   5.287  17.752  0.9285 -0.4496  0.1395
  280TIP3   OH225034   1.701   2.371  17.701  0.2730  0.0171  0.4358
  280TIP3    H125035   1.787   2.335  17.721  0.5009 -0.8155 -1.6832
  280TIP3    H225036   1.639   2.316  17.749  0.8278 -0.9142  0.1037
  281TIP3   OH225037   3.866   4.884  19.283  0.3968  0.0752  0.2100
  281TIP3    H125038   3.953   4.864  19.316 -0.3755 -0.8629  1.8262
  281TIP3    H225039   3.844   4.812  19.224  0.9543  0.6721 -0.7584
  282TIP3   OH225040   2.745   4.905  18.148 -0.5596 -0.3867 -0.3216
  282TIP3    H125041   2.683   4.892  18.076 -0.1989 -0.1983 -0.6759
  282TIP3    H225042   2.829   4.877  18.111 -0.4596 -0.7576  0.1929
  283TIP3   OH225043   3.013   0.739  17.636  0.7220 -0.0283 -0.1733
  283TIP3    H125044   3.045   0.803  17.572 -4.3194  2.2274 -0.9546
  283TIP3    H225045   3.002   0.790  17.717 -0.1059 -0.8165  0.2261
  284TIP3   OH225046   1.397   6.528  12.141  0.5370  0.1256  0.0928
  284TIP3    H125047   1.341   6.540  12.218 -0.3283  1.0476 -0.6467
  284TIP3    H225048   1.468   6.591  12.154  1.8251 -1.4809  1.3409
  285TIP3   OH225049   3.634   4.192  12.096  0.1651  0.4561  0.3141
  285TIP3    H125050   3.717   4.227  12.063 -0.9519  3.0199  0.0418
  285TIP3    H225051   3.605   4.255  12.162 -0.7889 -1.2693  1.6284
  286TIP3   OH225052   4.619   4.561  11.612  0.3528  0.0736 -0.0888
  286TIP3    H125053   4.614   4.471  11.580  0.9615  0.0643 -0.1763
  286TIP3    H225054   4.713   4.575  11.627  0.3836  1.0280 -1.0578
  287TIP3   OH225055   7.181   6.187  11.463  0.2309  0.1257  0.6831
  287TIP3    H125056   7.271   6.209  11.442 -0.3095  2.4443  0.5694
  287TIP3    H225057   7.180   6.091  11.467  1.9868 -0.1472 -2.4554
  288TIP3   OH225058   3.363   4.261  12.583  0.1977  0.0805 -0.0656
  288TIP3    H125059   3.437   4.253  12.523  1.3641 -1.3072  1.4475
  288TIP3    H225060   3.403   4.283  12.667 -1.4029  2.2635  0.2341
  289TIP3   OH225061   1.830   1.568  12.108 -0.0994  0.2702 -0.4303
  289TIP3    H125062   1.819   1.631  12.179 -1.9861  0.8269 -1.1638
  289TIP3    H225063   1.751   1.513  12.111  0.1461 -0.1820 -1.6187
  290TIP3   OH225064   3.844   6.493  12.349 -0.0959 -0.5466 -1.0223
  290TIP3    H125065   3.888   6.534  12.423 -1.8115 -0.9072  0.2769
  290TIP3    H225066   3.886   6.407  12.340  0.3145 -0.3852 -0.6481
  291TIP3   OH225067   1.269   5.335  12.202 -0.0982  0.3087  0.1767
  291TIP3    H125068   1.211   5.408  12.226 -1.1951 -0.5314  0.1684
  291TIP3    H225069   1.296   5.298  12.286  0.0812  0.4335  0.1737
  292TIP3   OH225070   5.166   7.195  11.183 -0.1027 -0.2614  0.4833
  292TIP3    H125071   5.127   7.267  11.133  0.4145  0.1804  0.7011
  292TIP3    H225072   5.100   7.172  11.248  0.1032  0.6991  1.0580
  293TIP3   OH225073   1.828   2.413  11.343 -0.4045  0.0836  0.1635
  293TIP3    H125074   1.833   2.410  11.439 -0.9830  0.9326  0.2347
  293TIP3    H225075   1.811   2.323  11.317  2.1657 -0.6069  0.6811
  294TIP3   OH225076   5.209   3.583  10.479  0.3146 -0.1832 -0.9892
  294TIP3    H125077   5.139   3.613  10.537  0.7996 -1.1776  0.1391
  294TIP3    H225078   5.262   3.661  10.464 -0.4288  0.3343 -0.9985
  295TIP3   OH225079   3.268   6.288  11.109  0.2937 -0.1537 -0.0644
  295TIP3    H125080   3.304   6.251  11.190  0.7498  1.6238  0.6047
  295TIP3    H225081   3.184   6.244  11.098  0.5568 -0.9642  0.9612
  296TIP3   OH225082   4.799   4.583  11.981  0.3375  0.2826 -0.1109
  296TIP3    H125083   4.840   4.501  11.952  0.2290 -0.1048  0.8110
  296TIP3    H225084   4.740   4.557  12.051 -0.1261  1.0849 -0.1972
  297TIP3   OH225085   6.089   2.787  11.112 -0.4543 -0.6797  0.0659
  297TIP3    H125086   6.062   2.718  11.172  0.8017 -2.5046 -1.3310
  297TIP3    H225087   6.093   2.743  11.026 -0.0316  1.2564 -0.9635
  298TIP3   OH225088   5.098   6.752  12.265 -0.2205 -0.7995 -0.5424
  298TIP3    H125089   5.123   6.683  12.204 -0.1310  0.0456 -1.4937
  298TIP3    H225090   5.180   6.783  12.302 -0.1630 -0.4960 -0.9159
  299TIP3   OH225091   5.487   7.547  11.084  0.4560  0.2169 -0.2238
  299TIP3    H125092   5.544   7.487  11.037 -0.9945 -2.2920  0.9675
  299TIP3    H225093   5.398   7.516  11.063 -0.2881  0.7837  1.8569
  300TIP3   OH225094   3.403   2.301  10.441 -0.1448 -0.1372  0.2721
  300TIP3    H125095   3.488   2.324  10.403  0.9537 -1.3618  1.8762
  300TIP3    H225096   3.350   2.380  10.429  1.5967  1.1009  0.2716
  301TIP3   OH225097   4.921   4.360  11.889 -0.0439 -0.2840 -0.3898
  301TIP3    H125098   5.015   4.362  11.903  0.4658  0.0904 -3.2273
  301TIP3    H225099   4.910   4.378  11.795 -3.0120  1.1806  0.1043
  302TIP3   OH225100   0.098   7.202  12.491 -0.1191 -0.5268 -0.4088
  302TIP3    H125101   0.121   7.242  12.407  0.9051 -1.3716 -0.5549
  302TIP3    H225102   0.032   7.261  12.528 -0.0243  0.2741 -1.4516
  303TIP3   OH225103   4.579   1.929  12.484 -0.1377  0.4751  0.0890
  303TIP3    H125104   4.527   1.981  12.545 -1.1978  1.2579 -1.3983
  303TIP3    H225105   4.546   1.954  12.398  2.8196  1.1263 -0.9730
  304TIP3   OH225106   3.982   5.941  13.095  0.2062  0.1909 -0.7196
  304TIP3    H125107   3.895   5.914  13.066 -0.4501  0.4460  0.8706
  304TIP3    H225108   3.983   6.036  13.081  0.7064  0.0277 -1.8685
  305TIP3   OH225109   0.868   5.985  10.657  0.0618  0.3882 -0.0758
  305TIP3    H125110   0.961   5.966  10.666 -0.0360 -0.1135 -0.1423
  305TIP3    H225111   0.865   6.072  10.617  0.5036 -0.7811 -2.8248
  306TIP3   OH225112   3.399   6.881  12.506 -0.2572  0.3407 -0.1908
  306TIP3    H125113   3.407   6.970  12.541 -0.7237  0.7426 -1.0881
  306TIP3    H225114   3.486   6.861  12.471 -0.3514  0.7419 -0.6656
  307TIP3   OH225115   7.573   0.588  11.310  0.6685  0.2233  0.3262
  307TIP3    H125116   7.592   0.599  11.217 -1.0801  1.8399  0.0976
  307TIP3    H225117   7.610   0.503  11.333 -0.8846 -1.2960 -2.4157
  308TIP3   OH225118   0.063   6.479  10.653  0.3005  1.0150 -0.3643
  308TIP3    H125119   0.091   6.559  10.609  2.1066  0.1909 -0.8233
  308TIP3    H225120   0.144   6.441  10.688 -0.3522 -1.0902 -0.9929
  309TIP3   OH225121   3.971   4.664  12.833  0.0566  0.1416  0.2827
  309TIP3    H125122   4.064   4.645  12.824 -0.1427 -1.0054  0.4873
  309TIP3    H225123   3.928   4.600  12.776 -0.6239  0.3810  0.5187
  310TIP3   OH225124   7.078   7.481  10.524  0.3549  0.0576 -0.0016
  310TIP3    H125125   7.139   7.408  10.531 -0.5043 -0.6104  0.7345
  310TIP3    H225126   6.991   7.442  10.533 -0.1843  1.0225 -0.7723
  311TIP3   OH225127   2.597   2.704  11.350 -0.2468  0.2029  0.3529
  311TIP3    H125128   2.586   2.774  11.286  0.2470 -0.1553 -0.1311
  311TIP3    H225129   2.525   2.716  11.412 -1.3999 -0.1132 -0.8838
  312TIP3   OH225130   4.405   7.336  12.554  0.1758  0.1588  0.4309
  312TIP3    H125131   4.458   7.401  12.508  0.5763 -0.0259  0.6347
  312TIP3    H225132   4.420   7.354  12.646 -0.9528  0.8014  0.5105
  313TIP3   OH225133   0.958   2.977  12.608 -0.0937  0.0921  0.5504
  313TIP3    H125134   0.933   3.044  12.670 -0.6309 -0.3221  0.7942
  313TIP3    H225135   1.016   2.919  12.657  0.7736  0.6401  0.1977
  314TIP3   OH225136   5.012   6.318  12.991  0.0133 -0.2772 -0.6734
  314TIP3    H125137   4.921   6.315  12.964  0.2350 -1.1795 -1.3514
  314TIP3    H225138   5.044   6.402  12.958 -0.1978 -0.5839 -1.6943
  315TIP3   OH225139   0.241   7.585  12.240 -0.0559 -0.3109  0.5084
  315TIP3    H125140   0.335   7.572  12.239  0.0719  0.5589 -1.0760
  315TIP3    H225141   0.220   7.625  12.156 -2.0527 -1.8586  0.1736
  316TIP3   OH225142   3.036   2.536  11.838 -0.2990 -0.1265 -0.6561
  316TIP3    H125143   3.055   2.598  11.768 -1.9194  0.3887 -0.6795
  316TIP3    H225144   3.122   2.505  11.867  0.4477  0.6703 -1.9437
  317TIP3   OH225145   1.385   6.321  11.960  0.3721 -0.2851  0.2556
  317TIP3    H125146   1.449   6.347  11.894 -0.5831  0.9296 -0.2383
  317TIP3    H225147   1.387   6.391  12.025 -0.9547  0.1766 -0.1547
  318TIP3   OH225148   5.102   2.776  11.282 -0.2320 -0.3399  0.5361
  318TIP3    H125149   5.083   2.699  11.230  0.3759  0.5642 -1.1153
  318TIP3    H225150   5.018   2.802  11.320 -0.5301 -1.5005  0.6826
  319TIP3   OH225151   0.377   4.817  12.692 -0.0468  0.3413  0.0762
  319TIP3    H125152   0.388   4.871  12.770 -1.1257 -0.0803  0.5311
  319TIP3    H225153   0.398   4.876  12.619 -3.1987  2.1014  0.3927
  320TIP3   OH225154   4.922   6.055  12.228  0.6574 -0.0615 -0.1509
  320TIP3    H125155   4.914   6.151  12.227  1.1585 -0.0198 -0.7645
  320TIP3    H225156   4.832   6.023  12.228  0.4657  0.4036 -1.7616
  321TIP3   OH225157   7.573   3.988  11.071 -0.0455 -0.0423  0.7971
  321TIP3    H125158   7.551   3.903  11.032 -0.0917  0.5102 -0.4335
  321TIP3    H225159   7.516   4.050  11.025  0.0926  0.6703  1.5831
  322TIP3   OH225160   2.996   3.574  10.895 -0.1251  0.3070 -0.2104
  322TIP3    H125161   2.979   3.607  10.983 -3.0599  0.1023 -0.5983
  322TIP3    H225162   3.015   3.652  10.843 -0.2402  0.6350  0.2363
  323TIP3   OH225163   1.649   0.958  16.695  0.3897  0.1151  0.1094
  323TIP3    H125164   1.612   0.991  16.613  1.5449 -0.3801 -0.6346
  323TIP3    H225165   1.679   1.036  16.741 -0.4576  0.4163  0.1676
  324TIP3   OH225166   2.373   6.935  19.358  0.0556 -0.0909 -0.0463
  324TIP3    H125167   2.456   6.897  19.328 -0.1055 -0.2852 -0.2523
  324TIP3    H225168   2.396   7.022  19.390  0.2425  0.1165 -0.7204
  325TIP3   OH225169   0.167   0.615  17.849  0.6458 -0.2741 -0.3644
  325TIP3    H125170   0.103   0.553  17.884 -1.3244  1.5831 -0.4399
  325TIP3    H225171   0.166   0.601  17.755 -0.3808  0.3599 -0.4579
  326TIP3   OH225172   6.336   4.185  19.389 -0.2481 -0.5184  0.0627
  326TIP3    H125173   6.334   4.276  19.359  0.2215  0.0508  1.6424
  326TIP3    H225174   6.289   4.136  19.322  0.0622  0.7855 -1.1477
  327TIP3   OH225175   3.356   1.009  17.792  0.1016 -0.1925 -0.5114
  327TIP3    H125176   3.278   1.039  17.839 -0.2657 -0.4638 -0.9476
  327TIP3    H225177   3.347   1.046  17.704  1.5229  1.5894  0.0093
  328TIP3   OH225178   5.841   3.772  17.909  0.0455  0.0684 -0.2377
  328TIP3    H125179   5.813   3.684  17.883  0.0702  0.4239 -1.5231
  328TIP3    H225180   5.774   3.830  17.875  0.9070  0.6910 -0.9068
  329TIP3   OH225181   0.954   4.288  17.626  0.1075 -0.6076  0.1044
  329TIP3    H125182   0.976   4.374  17.662 -0.9955 -0.5119  0.5696
  329TIP3    H225183   0.920   4.308  17.538 -2.5067 -0.2859  1.1065
  330TIP3   OH225184   6.830   4.684  18.427  0.2952 -0.1412 -0.3579
  330TIP3    H125185   6.853   4.758  18.482 -2.7688  0.3043  0.5254
  330TIP3    H225186   6.879   4.610  18.463  1.9732  1.0676 -0.0869
  331TIP3   OH225187   6.283   3.708  19.376  0.2584  0.3212  0.1694
  331TIP3    H125188   6.273   3.639  19.442  0.8419  0.2597  0.1997
  331TIP3    H225189   6.378   3.722  19.370  0.1925  0.5332 -0.4437
  332TIP3   OH225190   5.075   4.205  19.285 -0.3175 -0.5545 -0.7013
  332TIP3    H125191   5.155   4.155  19.268  0.1056 -0.5123  0.9765
  332TIP3    H225192   5.007   4.158  19.237  0.0234 -2.9243  0.9006
  333TIP3   OH225193   0.458   0.482  18.282 -0.2583  0.1961  0.3439
  333TIP3    H125194   0.470   0.516  18.371 -1.9629  3.7882 -0.6165
  333TIP3    H225195   0.364   0.469  18.273  0.1204 -3.1223 -0.0956
  334TIP3   OH225196   1.823   5.844  19.137 -0.1568  0.2974 -0.0085
  334TIP3    H125197   1.749   5.783  19.146  0.5252 -0.6738 -0.7100
  334TIP3    H225198   1.898   5.787  19.122  0.6122  1.3077 -0.0612
  335TIP3   OH225199   0.663   0.231  16.741 -0.1549 -0.4060  0.4851
  335TIP3    H125200   0.605   0.307  16.742 -2.6116 -2.0498 -2.1420
  335TIP3    H225201   0.608   0.159  16.771  2.1479 -1.2717  3.0499
  336TIP3   OH225202   1.648   3.860  16.557  0.3036 -0.0733  0.3266
  336TIP3    H125203   1.694   3.890  16.478 -0.4116  0.2595  0.0230
  336TIP3    H225204   1.565   3.825  16.523 -1.0996  2.2841  1.1105
  337TIP3   OH225205   6.460   1.254  18.993  0.8814 -0.2066  0.5157
  337TIP3    H125206   6.452   1.160  19.010 -1.3966 -0.2222 -0.3293
  337TIP3    H225207   6.396   1.294  19.052  0.2796  0.6095 -0.6680
  338TIP3   OH225208   4.977   2.104  17.737 -0.2964 -0.3481 -0.9800
  338TIP3    H125209   4.887   2.088  17.768  0.4441 -0.5249  1.3126
  338TIP3    H225210   5.032   2.059  17.801  1.4420 -0.0788 -2.2390
  339TIP3   OH225211   5.663   0.170  18.047  0.3120 -0.5144 -0.2128
  339TIP3    H125212   5.629   0.256  18.020  0.3013 -0.8125 -1.1588
  339TIP3    H225213   5.692   0.129  17.966 -0.4911 -1.7591  0.1050
  340TIP3   OH225214   1.623   4.001  17.588  0.1625 -0.5577  0.2871
  340TIP3    H125215   1.556   4.026  17.652  0.5866  0.7941  0.2247
  340TIP3    H225216   1.675   3.934  17.633  0.5879  0.5151  1.4836
  341TIP3   OH225217   7.620   2.045  18.555 -0.4134 -0.0554  0.0380
  341TIP3    H125218   7.654   2.017  18.639  2.3611  0.2177 -0.9087
  341TIP3    H225219   7.645   2.137  18.548 -1.2846  0.1426 -0.7734
  342TIP3   OH225220   0.904   4.444  18.493  0.3739  0.0282 -0.0399
  342TIP3    H125221   0.908   4.434  18.398 -0.7483  0.1604 -0.1062
  342TIP3    H225222   0.878   4.535  18.507  0.8015  0.0896  0.4118
  343TIP3   OH225223   5.316   5.491  17.382  0.4301  0.0796 -0.3036
  343TIP3    H125224   5.338   5.398  17.392 -0.9658 -0.3305 -0.8361
  343TIP3    H225225   5.354   5.516  17.299 -0.3650 -0.4085 -0.8325
  344TIP3   OH225226   7.190   5.781  19.156  0.3457 -0.7378  0.7149
  344TIP3    H125227   7.102   5.773  19.192 -0.8438 -0.1584 -1.7870
  344TIP3    H225228   7.192   5.869  19.118  1.9089 -0.8430  0.4814
  345TIP3   OH225229   2.633   6.130  17.529  0.1875  0.1780 -0.1653
  345TIP3    H125230   2.724   6.105  17.518  1.3094  3.2876  0.8050
  345TIP3    H225231   2.607   6.164  17.443  1.6265  3.6612  0.6077
  346TIP3   OH225232   5.244   5.996  18.958  0.6350  0.5265 -0.4751
  346TIP3    H125233   5.339   5.984  18.958  1.1065  3.4462 -0.3718
  346TIP3    H225234   5.222   6.012  18.866 -0.2273 -2.4799 -0.8914
  347TIP3   OH225235   3.882   2.539  16.881 -0.5352 -0.6091  0.0221
  347TIP3    H125236   3.939   2.502  16.814 -0.4755  0.4154 -0.5134
  347TIP3    H225237   3.794   2.536  16.843 -0.2697  1.7340 -0.9583
  348TIP3   OH225238   7.500   4.511  18.698 -0.4077  0.4364 -0.4514
  348TIP3    H125239   7.578   4.456  18.703 -2.0130 -1.8680  1.2075
  348TIP3    H225240   7.466   4.498  18.610 -0.3403 -0.6756 -0.3272
  349TIP3   OH225241   4.737   6.129  16.847  0.4906 -0.5794  0.3257
  349TIP3    H125242   4.673   6.094  16.785  0.1594 -0.2275  0.4694
  349TIP3    H225243   4.819   6.133  16.797  0.0663  0.4081 -0.3226
  350TIP3   OH225244   6.263   6.326  18.277  0.4840  0.2581  0.4076
  350TIP3    H125245   6.259   6.238  18.240 -0.3211 -0.2345  1.6025
  350TIP3    H225246   6.305   6.379  18.209  0.4264 -0.9151 -0.5756
  351TIP3   OH225247   5.790   1.141  18.139  0.2018 -0.8454 -0.1484
  351TIP3    H125248   5.740   1.203  18.086  0.3340 -0.6255 -0.0176
  351TIP3    H225249   5.745   1.141  18.224 -0.2348 -1.4760 -0.3668
  352TIP3   OH225250   3.414   1.158  17.328  0.4418 -0.0265 -0.1539
  352TIP3    H125251   3.325   1.193  17.318  0.4173  0.0467  0.3174
  352TIP3    H225252   3.462   1.195  17.253  0.9935  2.8628  1.4567
  353TIP3   OH225253   6.454   3.320  19.664  0.2922  0.1845  0.1546
  353TIP3    H125254   6.491   3.234  19.681 -0.8715 -0.5384 -0.8147
  353TIP3    H225255   6.506   3.356  19.592  0.1378 -0.1323 -0.1140
  354TIP3   OH225256   0.156   1.278  17.074  0.3993 -0.3393 -0.1013
  354TIP3    H125257   0.193   1.363  17.098 -0.4463  0.3028 -1.0273
  354TIP3    H225258   0.107   1.294  16.994 -0.8450 -1.4356  0.4024
  355TIP3   OH225259   7.566   1.770  17.206 -0.1837  0.2703 -0.1211
  355TIP3    H125260   7.567   1.856  17.249 -0.2863  0.2987 -0.1748
  355TIP3    H225261   7.522   1.786  17.123  1.6596  0.6224 -1.0892
  356TIP3   OH225262   6.494   3.852  17.686  0.3849  0.7044 -0.2845
  356TIP3    H125263   6.421   3.875  17.628 -0.0551  0.8931  0.3291
  356TIP3    H225264   6.500   3.757  17.681 -1.8092  0.3649  1.8510
  357TIP3   OH225265   1.385   4.080  17.167 -0.0139 -0.2799 -0.5360
  357TIP3    H125266   1.447   4.056  17.098  0.2372 -0.7728 -0.1493
  357TIP3    H225267   1.307   4.029  17.148  0.1071 -0.5297 -0.3847
  358TIP3   OH225268   5.907   7.254  17.298 -0.9098  0.6138  0.2721
  358TIP3    H125269   5.902   7.188  17.228 -0.3163  1.9450 -1.0759
  358TIP3    H225270   5.818   7.261  17.331 -0.7968 -1.6718  1.2689
  359TIP3   OH225271   2.037   3.389  18.872 -0.2423 -0.2927  0.3257
  359TIP3    H125272   2.094   3.313  18.868  0.0005 -0.1009  0.0614
  359TIP3    H225273   2.075   3.445  18.939  0.9139  0.6462 -1.0639
  360TIP3   OH225274   2.408   4.790  16.723  0.5023 -0.0868  0.3870
  360TIP3    H125275   2.389   4.697  16.709 -1.4058  0.1762  1.0208
  360TIP3    H225276   2.345   4.818  16.788  1.7311  1.4391  0.9788
  361TIP3   OH225277   6.176   2.936  17.452 -0.0302 -0.1048  0.3974
  361TIP3    H125278   6.185   2.927  17.547 -1.2800 -0.4840  0.4998
  361TIP3    H225279   6.082   2.947  17.438  0.1489  0.0162 -0.7966
  362TIP3   OH225280   1.680   0.683  19.530  0.2205  0.2764 -0.2741
  362TIP3    H125281   1.753   0.660  19.473  0.7319 -0.9375  0.8313
  362TIP3    H225282   1.641   0.599  19.554  0.1635  0.7489  1.3572
  363TIP3   OH225283   5.296   2.191  19.269  0.9558  0.0929 -1.0020
  363TIP3    H125284   5.289   2.160  19.359  2.3378  2.1896 -0.0811
  363TIP3    H225285   5.347   2.124  19.224 -1.8148 -2.2153 -0.9748
  364TIP3   OH225286   2.740   4.161  18.455 -0.1341  0.3241  0.5265
  364TIP3    H125287   2.833   4.165  18.434  0.0800 -0.0809  1.3971
  364TIP3    H225288   2.726   4.234  18.515 -0.5289  0.8005 -0.1177
  365TIP3   OH225289   1.436   7.660  17.543 -0.5799  0.2130  0.5378
  365TIP3    H125290   1.465   7.711  17.468  2.1345  0.2920  1.5483
  365TIP3    H225291   1.455   7.569  17.519 -0.8120  0.1274  0.6735
  366TIP3   OH225292   2.943   3.651  17.514  0.4597 -0.1225 -0.1277
  366TIP3    H125293   2.908   3.563  17.524 -2.9200  0.9146 -1.3459
  366TIP3    H225294   2.946   3.686  17.604  0.1064 -0.9081  0.1951
  367TIP3   OH225295   6.808   0.764  17.159  0.3255  0.1835 -0.0893
  367TIP3    H125296   6.830   0.772  17.252  0.4429 -0.7667 -0.0307
  367TIP3    H225297   6.713   0.773  17.156  0.2327 -0.5914  0.2257
  368TIP3   OH225298   4.224   6.823  19.294  0.0387 -0.1986  0.9416
  368TIP3    H125299   4.257   6.906  19.330 -1.3041  0.2696  1.1616
  368TIP3    H225300   4.129   6.828  19.307 -0.1520 -1.3773  0.1081
  369TIP3   OH225301   0.084   4.042  18.491  0.4701  0.1196 -0.5898
  369TIP3    H125302   0.027   4.079  18.559  2.7742  1.0318  0.9748
  369TIP3    H225303   0.172   4.070  18.516  1.4882  0.1561 -3.8046
  370TIP3   OH225304   2.784   2.590  17.639 -0.4147 -0.4153  0.4446
  370TIP3    H125305   2.733   2.562  17.716  0.8925  0.6677  1.7597
  370TIP3    H225306   2.858   2.529  17.636 -0.5262 -0.5267 -0.0308
  371TIP3   OH225307   1.611   1.625  16.976 -0.0110  0.2159 -0.1124
  371TIP3    H125308   1.706   1.627  16.966  0.6510 -1.3933  3.7654
  371TIP3    H225309   1.585   1.542  16.937  0.5720 -0.3567  0.6667
  372TIP3   OH225310   7.212   1.661  17.186 -0.4661  0.5169  0.6919
  372TIP3    H125311   7.210   1.584  17.130  0.5100  1.0313 -0.0864
  372TIP3    H225312   7.124   1.697  17.182 -1.0840 -0.8001  1.4543
  373TIP3   OH225313   1.562   5.818  19.456 -0.4477  0.3222  0.3602
  373TIP3    H125314   1.477   5.782  19.482 -0.4236  0.0689  0.0923
  373TIP3    H225315   1.612   5.820  19.537 -0.7077  0.4719  0.5208
  374TIP3   OH225316   1.702   0.862  19.277  0.4630 -0.0327 -0.0350
  374TIP3    H125317   1.634   0.898  19.220  2.6753  1.8622 -1.6757
  374TIP3    H225318   1.711   0.926  19.347 -0.1900 -0.8779  0.8573
  375TIP3   OH225319   3.645   7.183  17.628  0.1806  0.3813  0.4744
  375TIP3    H125320   3.668   7.158  17.718 -0.5405  1.4282  0.9739
  375TIP3    H225321   3.550   7.195  17.629  0.0570 -0.3686 -0.6438
  376TIP3   OH225322   0.637   6.235  17.585 -0.0986  0.0937 -0.2624
  376TIP3    H125323   0.616   6.322  17.551  2.9547  0.9533 -0.2508
  376TIP3    H225324   0.638   6.246  17.680 -0.0554 -0.0357 -0.2476
  377TIP3   OH225325   0.948   6.746  18.714 -0.0804  0.0269 -0.5756
  377TIP3    H125326   1.042   6.733  18.707  0.0450 -0.0441  0.8671
  377TIP3    H225327   0.925   6.709  18.800 -1.6817 -1.3461 -1.5335
  378TIP3   OH225328   5.990   6.796  18.532 -0.3789  0.7898 -0.4746
  378TIP3    H125329   6.050   6.857  18.491 -0.5610 -0.0716 -2.0907
  378TIP3    H225330   5.903   6.829  18.509 -0.4819  0.3302 -0.7588
  379TIP3   OH225331   0.702   4.248  18.601 -0.1264  0.8333 -0.4189
  379TIP3    H125332   0.666   4.335  18.614 -0.6611  0.5185  0.2413
  379TIP3    H225333   0.795   4.264  18.580  0.0735  1.5110  0.8797
  380TIP3   OH225334   4.754   1.571  18.899 -0.0974  0.2458 -0.9040
  380TIP3    H125335   4.679   1.629  18.907 -1.5645 -1.3729 -1.9952
  380TIP3    H225336   4.747   1.536  18.810  2.6816  0.9520 -1.4955
  381TIP3   OH225337   4.203   0.983  19.485 -0.3790 -0.5259 -0.0743
  381TIP3    H125338   4.145   0.907  19.481 -0.3126 -0.6794  1.3262
  381TIP3    H225339   4.180   1.027  19.568 -0.0012  0.6412 -0.5661
  382TIP3   OH225340   3.427   2.520  17.149  0.1430  0.7349 -0.5732
  382TIP3    H125341   3.472   2.598  17.115 -1.4433  2.5062  1.1626
  382TIP3    H225342   3.431   2.457  17.077  1.9458  2.2047 -1.8615
  383TIP3   OH225343   2.346   2.445  18.192 -0.2236  0.0262  0.0726
  383TIP3    H125344   2.371   2.536  18.173 -0.3020 -0.3151 -1.8942
  383TIP3    H225345   2.374   2.431  18.282 -1.4696  2.4318  0.9353
  384TIP3   OH225346   0.678   4.743  17.873  0.1657 -0.3313 -0.1049
  384TIP3    H125347   0.744   4.768  17.808 -0.0539 -0.2856 -0.3102
  384TIP3    H225348   0.635   4.825  17.896  0.0774 -0.3839 -0.0811
  385TIP3   OH225349   4.838   6.899  18.372 -0.2031  0.6882 -0.0916
  385TIP3    H125350   4.796   6.876  18.455 -0.6024 -1.1923 -0.7626
  385TIP3    H225351   4.863   6.815  18.334 -1.8971  1.2808 -2.8297
  386TIP3   OH225352   7.285   7.022  17.315  0.3720 -0.3639  0.1642
  386TIP3    H125353   7.379   7.029  17.333  0.0414 -1.0508  2.5177
  386TIP3    H225354   7.261   7.108  17.281  1.7166  0.0462  0.1823
  387TIP3   OH225355   4.456   6.749  19.135 -0.3818 -0.4608 -0.8742
  387TIP3    H125356   4.366   6.781  19.129 -0.8685 -1.9018 -1.8183
  387TIP3    H225357   4.454   6.685  19.207  0.5614  1.4600  0.9581
  388TIP3   OH225358   1.249   6.511  17.427 -0.0074  0.2427 -0.1009
  388TIP3    H125359   1.287   6.564  17.497 -0.2906 -0.2893  0.4586
  388TIP3    H225360   1.218   6.575  17.363 -0.8989  0.7818  0.8535
  389TIP3   OH225361   1.681   5.176  16.910 -0.0661 -0.7755  0.3882
  389TIP3    H125362   1.708   5.090  16.942  0.1465 -1.9729 -2.7228
  389TIP3    H225363   1.636   5.159  16.828  1.0148  2.1549 -0.9508
  390TIP3   OH225364   6.391   5.730  18.009  0.5574 -0.0108  0.7800
  390TIP3    H125365   6.340   5.654  18.035  1.7569 -0.6173  1.4356
  390TIP3    H225366   6.328   5.789  17.969 -0.6407 -0.7482  1.5389
  391TIP3   OH225367   2.768   7.129  17.754 -0.0550 -0.2483 -0.1287
  391TIP3    H125368   2.803   7.215  17.779 -2.1432  0.2495  1.3332
  391TIP3    H225369   2.750   7.086  17.838  0.9504 -2.1529 -0.8345
  392TIP3   OH225370   0.458   4.950  16.641 -0.3556 -0.3462 -0.5466
  392TIP3    H125371   0.377   4.997  16.619  1.3174  2.0930 -1.9462
  392TIP3    H225372   0.460   4.948  16.736 -1.0685  1.4182 -0.4658
  393TIP3   OH225373   1.403   5.439  18.237  0.5572 -0.5742  0.3568
  393TIP3    H125374   1.428   5.371  18.300 -0.8905  0.0072  1.6330
  393TIP3    H225375   1.385   5.516  18.291  1.1746  0.5366 -0.9666
  394TIP3   OH225376   6.459   0.888  18.534 -0.6775 -0.6993 -0.1684
  394TIP3    H125377   6.462   0.850  18.447 -1.2716 -3.3338  0.8725
  394TIP3    H225378   6.440   0.981  18.520  0.5546 -0.7664 -2.8490
  395TIP3   OH225379   4.940   0.244  18.224  0.4824 -0.3089 -0.3700
  395TIP3    H125380   4.898   0.165  18.257  1.2240 -0.5872 -0.0691
  395TIP3    H225381   4.916   0.247  18.131  1.2794 -1.4594 -0.6417
  396TIP3   OH225382   6.486   0.154  17.392 -0.5867  0.1966  0.3031
  396TIP3    H125383   6.487   0.061  17.368 -0.3409  0.3020 -0.1078
  396TIP3    H225384   6.549   0.162  17.463  0.9427  0.3944 -1.0143
  397TIP3   OH225385   0.655   4.218  16.274 -0.0972  0.4809  0.1156
  397TIP3    H125386   0.562   4.235  16.260 -0.0288  0.6517 -0.1408
  397TIP3    H225387   0.668   4.129  16.242 -0.7269 -0.6148  2.6619
  398TIP3   OH225388   6.674   1.026  17.245 -0.4285 -0.1086  0.3189
  398TIP3    H125389   6.597   1.011  17.190 -1.1532  0.0275  1.2725
  398TIP3    H225390   6.739   1.064  17.186 -1.0191 -0.4115 -0.5444
  399TIP3   OH225391   6.276   7.180  17.880 -0.7677  0.2599  0.0853
  399TIP3    H125392   6.275   7.086  17.864  1.2419  0.3273 -0.7919
  399TIP3    H225393   6.319   7.217  17.803 -1.3738  1.8916  0.4874
  400TIP3   OH225394   7.593   4.315  16.150  1.0307  0.1749 -0.3257
  400TIP3    H125395   7.610   4.366  16.229 -2.2437  0.7762  0.1179
  400TIP3    H225396   7.542   4.373  16.094  0.6028 -1.3009 -1.5258
  401TIP3   OH225397   1.094   2.311  16.736 -0.2117  0.2863  0.5219
  401TIP3    H125398   1.131   2.398  16.751  1.7709 -0.2685 -0.8643
  401TIP3    H225399   1.014   2.328  16.685 -0.5918  1.3448  1.4245
  402TIP3   OH225400   4.610   6.546  16.733  0.2906  0.9809 -0.7463
  402TIP3    H125401   4.612   6.485  16.659  0.0249 -0.1972  0.1678
  402TIP3    H225402   4.669   6.507  16.798  1.3717  2.5564 -0.7357
  403TIP3   OH225403   0.445   4.984  16.911 -0.2098  0.0724 -0.2513
  403TIP3    H125404   0.473   4.911  16.968 -0.3078 -0.1945 -0.5430
  403TIP3    H225405   0.352   4.995  16.932 -0.1371  0.2716 -0.0333
  404TIP3   OH225406   2.755   1.973  17.721  0.3997 -0.3631 -0.1536
  404TIP3    H125407   2.694   2.013  17.659  0.0468 -0.3665  0.1928
  404TIP3    H225408   2.702   1.952  17.797  0.9965  0.4223  0.4959
  405TIP3   OH225409   4.245   3.718  19.182 -0.1890  0.0612  0.3186
  405TIP3    H125410   4.284   3.793  19.227 -0.1718  0.5666 -0.5162
  405TIP3    H225411   4.306   3.646  19.199 -0.9049 -0.1413  2.2897
  406TIP3   OH225412   1.940   6.438  18.497 -0.0512 -0.0777  0.7086
  406TIP3    H125413   1.951   6.444  18.592 -0.2259  0.9716  0.6829
  406TIP3    H225414   1.875   6.506  18.476  1.0496  0.6968 -0.3234
  407TIP3   OH225415   7.257   0.946  19.759 -0.1684 -0.1757 -0.2042
  407TIP3    H125416   7.193   0.894  19.710 -0.2963 -1.2808  1.0750
  407TIP3    H225417   7.342   0.910  19.733 -0.2458 -0.8876  0.5185
  408TIP3   OH225418   4.592   3.849  17.661  0.0471  0.2678 -0.8137
  408TIP3    H125419   4.561   3.848  17.751 -0.2693 -0.3548 -0.9258
  408TIP3    H225420   4.530   3.794  17.613 -0.1916  1.1608 -1.5457
  409TIP3   OH225421   4.917   1.999  19.185  0.3761  0.4616  0.0913
  409TIP3    H125422   4.954   2.021  19.100  1.4080  2.3805  0.9916
  409TIP3    H225423   4.948   1.910  19.202  4.1215  1.6508  0.4467
  410TIP3   OH225424   6.945   3.558  18.922 -0.6712 -0.1501  0.1183
  410TIP3    H125425   6.858   3.518  18.923 -1.8965  2.2742  2.5856
  410TIP3    H225426   6.950   3.603  18.837 -2.0946  0.1565  0.1755
  411TIP3   OH225427   1.913   0.841  16.854  0.5294 -0.2706 -0.2201
  411TIP3    H125428   1.924   0.933  16.833  1.5710 -0.3277  0.0279
  411TIP3    H225429   2.003   0.806  16.858  0.3028 -0.7461  2.1508
  412TIP3   OH225430   4.613   2.581  17.523 -0.3210  0.0069  0.2558
  412TIP3    H125431   4.593   2.515  17.590 -0.0865 -1.2809 -0.8995
  412TIP3    H225432   4.555   2.559  17.450  1.8811 -0.8831 -1.3436
  413TIP3   OH225433   6.797   7.421  19.137  0.1868 -0.1716 -0.1123
  413TIP3    H125434   6.726   7.483  19.117  0.5544  0.6595  1.0438
  413TIP3    H225435   6.754   7.350  19.185 -0.0613 -0.2939 -0.5101
  414TIP3   OH225436   2.686   5.322  17.344 -0.2146  0.0281  0.0244
  414TIP3    H125437   2.750   5.376  17.296 -1.4151  0.6204 -0.9688
  414TIP3    H225438   2.736   5.245  17.372  0.6631 -0.1354 -1.8258
  415TIP3   OH225439   3.790   6.713  16.636  0.3547 -0.6444 -0.6318
  415TIP3    H125440   3.748   6.778  16.693  0.9432 -1.4210  0.7585
  415TIP3    H225441   3.796   6.755  16.551 -0.3729  0.6621 -0.0618
  416TIP3   OH225442   4.031   0.835  17.806  0.1621  0.0758  0.4992
  416TIP3    H125443   4.123   0.827  17.781 -0.4175 -0.5607 -1.7434
  416TIP3    H225444   4.007   0.924  17.782 -0.7132 -0.8976 -2.7912
  417TIP3   OH225445   6.106   5.769  17.320 -0.5584 -0.1161 -0.0849
  417TIP3    H125446   6.057   5.847  17.291  0.5830 -0.0976 -2.1678
  417TIP3    H225447   6.138   5.730  17.239  1.2294 -1.2138  1.0889
  418TIP3   OH225448   1.609   6.199  18.119 -0.5607  0.5450  0.0002
  418TIP3    H125449   1.651   6.185  18.034  0.7859  1.0573  0.5600
  418TIP3    H225450   1.650   6.279  18.153 -2.3056  1.3193  0.3972
  419TIP3   OH225451   5.316   6.936  18.791 -0.2414 -0.1511 -0.3614
  419TIP3    H125452   5.296   6.972  18.705  0.1467 -0.4414 -0.5798
  419TIP3    H225453   5.295   7.007  18.852 -0.6352  0.0129 -0.6843
  420TIP3   OH225454   3.000   4.605  18.693 -0.1102  0.4340 -0.6118
  420TIP3    H125455   3.074   4.569  18.741  0.4240  1.5435 -0.5760
  420TIP3    H225456   2.996   4.554  18.613 -0.6973 -1.1031  0.3519
  421TIP3   OH225457   2.942   0.557  18.640  0.0395  0.0239 -0.1420
  421TIP3    H125458   2.913   0.510  18.719  0.7988 -2.2586 -1.1499
  421TIP3    H225459   2.896   0.513  18.568  1.1884  0.4833 -1.1773
  422TIP3   OH225460   4.817   4.730  17.278  0.3195  0.0257  0.5427
  422TIP3    H125461   4.722   4.737  17.275  0.3330 -0.0289 -0.8161
  422TIP3    H225462   4.834   4.652  17.331 -0.4690 -1.0138 -0.6768
  423TIP3   OH225463   2.387   6.370  17.468 -0.3163  0.1352 -0.1938
  423TIP3    H125464   2.318   6.407  17.413 -0.8295 -1.3914 -0.6329
  423TIP3    H225465   2.340   6.324  17.537  0.3054  0.5547  0.5246
  424TIP3   OH225466   1.892   2.223  16.436 -0.4041 -0.7967 -0.6268
  424TIP3    H125467   1.799   2.245  16.430  0.0010  2.5066  2.0068
  424TIP3    H225468   1.908   2.219  16.530  2.4552  0.7486 -0.9560
  425TIP3   OH225469   5.285   0.491  18.960  0.4943  0.2371  0.5551
  425TIP3    H125470   5.255   0.491  19.051  0.4778  1.5589  0.5693
  425TIP3    H225471   5.308   0.400  18.942 -1.1303 -0.3496  1.3324
  426TIP3   OH225472   7.255   0.023  16.686 -0.1539 -0.2347 -0.1831
  426TIP3    H125473   7.263  -0.062  16.729  0.9365  0.1676  0.4399
  426TIP3    H225474   7.207   0.004  16.605  0.2960 -1.4832 -0.1785
  427TIP3   OH225475   3.411   6.880  17.648  0.3129 -0.0075  0.1754
  427TIP3    H125476   3.495   6.861  17.606 -0.0574 -1.2813 -0.0060
  427TIP3    H225477   3.399   6.810  17.711 -0.4519  0.3754  0.4651
  428TIP3   OH225478   3.482   4.125  17.504  0.3279 -0.6862  0.0343
  428TIP3    H125479   3.412   4.080  17.551  0.3511 -0.5902  0.1582
  428TIP3    H225480   3.519   4.186  17.567  1.0723 -1.3237  0.2277
  429TIP3   OH225481   3.385   1.539  17.171 -0.5138 -0.7976 -0.3302
  429TIP3    H125482   3.322   1.491  17.117 -1.1408 -1.1067  0.6671
  429TIP3    H225483   3.468   1.494  17.155  0.1655  1.2993 -3.8664
  430TIP3   OH225484   4.700   3.543  17.675  0.0526  0.3698 -0.4527
  430TIP3    H125485   4.606   3.543  17.654  0.4393  0.7144 -2.3637
  430TIP3    H225486   4.706   3.593  17.756 -1.1990  2.6829 -1.6724
  431TIP3   OH225487   5.225   0.581  17.197 -0.9360 -0.2819 -0.3681
  431TIP3    H125488   5.231   0.628  17.279  0.9250  2.0422 -1.7160
  431TIP3    H225489   5.155   0.517  17.211 -1.7760  1.0969  2.4426
  432TIP3   OH225490   0.993   5.139  19.311 -0.1185 -0.1937  0.2222
  432TIP3    H125491   0.898   5.142  19.299 -0.0434 -1.5858 -1.0587
  432TIP3    H225492   1.029   5.186  19.235  0.2468  2.6162  1.9852
  433TIP3   OH225493   5.544   0.618  19.628  0.3504  0.4912 -0.3672
  433TIP3    H125494   5.581   0.646  19.712 -1.4214  2.5881 -0.1772
  433TIP3    H225495   5.582   0.679  19.564  0.3142  0.0545 -0.8084
  434TIP3   OH225496   4.222   6.596  17.554  0.1245 -0.2630  0.2731
  434TIP3    H125497   4.243   6.584  17.647 -0.6528 -0.9896  0.3673
  434TIP3    H225498   4.172   6.518  17.531 -2.3166  1.2557  0.0350
  435TIP3   OH225499   4.191   1.624  19.082 -0.2520  0.1057  0.7408
  435TIP3    H125500   4.248   1.581  19.018 -1.0825 -1.7365  1.1696
  435TIP3    H225501   4.236   1.706  19.103  2.0588 -1.0850  0.7850
  436TIP3   OH225502   5.693   3.631  19.464 -0.8260 -0.3810  0.1707
  436TIP3    H125503   5.662   3.691  19.396 -1.6864 -0.0463  0.8502
  436TIP3    H225504   5.786   3.653  19.473 -0.7910 -0.1525 -0.6086
  437TIP3   OH225505   1.786   7.016  17.204 -0.7022 -0.2609 -0.6548
  437TIP3    H125506   1.824   6.995  17.119 -1.7756 -1.7800 -0.8178
  437TIP3    H225507   1.699   7.050  17.184 -1.4513 -1.7842 -0.1737
  438TIP3   OH225508   2.828   4.163  17.920 -0.2512  0.8930  0.2879
  438TIP3    H125509   2.756   4.226  17.910 -2.6009 -1.9532 -4.1589
  438TIP3    H225510   2.802   4.109  17.994 -1.6330  1.1998  0.0577
  439TIP3   OH225511   3.920   7.455  17.615  0.1477 -0.0101 -0.4686
  439TIP3    H125512   4.003   7.451  17.662 -0.1678  0.3573  0.1350
  439TIP3    H225513   3.858   7.489  17.680 -0.5567 -0.6671 -0.7849
  440TIP3   OH225514   5.708   6.263  18.850 -0.2200  0.3672 -0.4923
  440TIP3    H125515   5.679   6.179  18.814 -1.7835 -0.4601  2.3867
  440TIP3    H225516   5.679   6.328  18.786 -2.1041 -1.0488 -1.1554
  441TIP3   OH225517   5.859   1.390  17.598 -0.0298 -0.5492  0.2025
  441TIP3    H125518   5.798   1.446  17.550  0.3021 -0.8974 -0.6239
  441TIP3    H225519   5.941   1.396  17.549 -0.0723 -1.9983 -0.0656
  442TIP3   OH225520   0.328   2.858  19.008  0.0740 -0.3148  0.4527
  442TIP3    H125521   0.315   2.898  19.094  0.3203  0.8607 -0.0351
  442TIP3    H225522   0.245   2.815  18.989 -0.0627 -0.3855  1.1835
  443TIP3   OH225523   5.543   3.936  18.894  0.4704  0.9116 -0.3711
  443TIP3    H125524   5.460   3.940  18.847  0.1298  0.4909  0.1748
  443TIP3    H225525   5.580   3.851  18.871 -0.3925  0.0494  1.2151
  444TIP3   OH225526   0.384   2.424  18.069 -0.6512  0.1992 -0.0402
  444TIP3    H125527   0.341   2.475  18.138  0.9872 -0.0381  1.2331
  444TIP3    H225528   0.444   2.486  18.027  0.7602 -0.4123  0.9833
  445TIP3   OH225529   4.954   5.341  17.218 -0.6802  0.3100 -0.1027
  445TIP3    H125530   4.983   5.379  17.301  0.2443 -0.3213 -0.1192
  445TIP3    H225531   4.970   5.411  17.154 -1.0670  0.6717  0.1880
  446TIP3   OH225532   7.348   1.622  17.800 -0.0423 -0.1644  0.2623
  446TIP3    H125533   7.413   1.657  17.740  0.1814 -2.5303 -0.9691
  446TIP3    H225534   7.383   1.538  17.829 -2.0971 -1.0855  0.2895
  447TIP3   OH225535   3.532   6.821  18.775 -0.2973 -0.5224 -0.3758
  447TIP3    H125536   3.485   6.820  18.692  1.1061 -1.2196 -1.2018
  447TIP3    H225537   3.524   6.732  18.808 -0.0572 -0.4941 -0.2390
  448TIP3   OH225538   2.143   3.484  17.047  0.1816 -0.1936 -0.2502
  448TIP3    H125539   2.235   3.460  17.038 -0.2901 -2.8303  1.1377
  448TIP3    H225540   2.125   3.475  17.141 -1.2576  1.3808 -0.3182
  449TIP3   OH225541   0.503   3.191  18.112  0.4672 -0.8649 -0.1470
  449TIP3    H125542   0.456   3.109  18.098  1.1454 -1.0662 -1.4493
  449TIP3    H225543   0.480   3.245  18.037 -1.3109  0.8499  1.5232
  450TIP3   OH225544   6.177   6.697  18.697 -0.1709 -0.0588 -0.6140
  450TIP3    H125545   6.096   6.711  18.647 -0.3997 -1.8192 -0.7951
  450TIP3    H225546   6.148   6.682  18.787  0.0743  0.7611 -0.3914
  451TIP3   OH225547   5.743   3.578  16.992 -0.4587  0.2219  0.1769
  451TIP3    H125548   5.732   3.484  16.985 -0.0226  0.1661  0.1908
  451TIP3    H225549   5.837   3.592  16.980 -0.4965  0.6382  0.3386
  452TIP3   OH225550   6.226   5.741  17.640 -0.3686 -0.1345  0.0819
  452TIP3    H125551   6.214   5.689  17.561 -1.4142 -0.2234  0.2784
  452TIP3    H225552   6.270   5.821  17.609  3.7207 -2.1278  0.1786
  453TIP3   OH225553   4.904   0.082  19.290 -0.5921  0.2807  0.0159
  453TIP3    H125554   4.849   0.022  19.241 -0.5679  0.4497 -0.2198
  453TIP3    H225555   4.843   0.135  19.341 -0.6461  0.4288 -0.2005
  454TIP3   OH225556   1.724   2.785  18.516 -0.1589  0.4261 -0.0316
  454TIP3    H125557   1.651   2.821  18.566 -0.7556 -1.2736  0.3850
  454TIP3    H225558   1.699   2.799  18.424 -1.1576 -0.3749  0.0997
  455TIP3   OH225559   1.955   0.301  18.848 -0.2312  0.0036  0.0714
  455TIP3    H125560   1.969   0.384  18.802 -0.5811 -0.0872 -0.2101
  455TIP3    H225561   1.861   0.284  18.839 -0.0984 -0.6225 -0.2226
  456TIP3   OH225562   5.431   2.388  16.928 -0.7339  0.4121 -0.0588
  456TIP3    H125563   5.387   2.394  16.843 -0.5962  0.8944 -0.0983
  456TIP3    H225564   5.441   2.479  16.956 -0.4989  0.2677  0.3324
  457TIP3   OH225565   2.934   1.757  17.431  0.0076 -0.2721  0.9141
  457TIP3    H125566   3.006   1.764  17.495  1.9365 -2.5687 -0.8228
  457TIP3    H225567   2.943   1.835  17.377  1.0274 -0.3808  0.9069
  458TIP3   OH225568   0.800   5.924  18.326 -0.6484  0.1753 -0.6236
  458TIP3    H125569   0.764   5.859  18.265 -1.7113  0.3541 -0.2150
  458TIP3    H225570   0.855   5.873  18.386  1.8905  0.2195 -2.7405
  459TIP3   OH225571   5.504   0.671  18.969  0.1767 -0.2507  0.2974
  459TIP3    H125572   5.430   0.615  18.945  0.3355  0.0227 -0.9291
  459TIP3    H225573   5.531   0.639  19.054 -0.8073 -0.9285  0.3805
  460TIP3   OH225574   1.087   3.887  16.287  0.4105  0.4175  0.1766
  460TIP3    H125575   1.162   3.847  16.244  0.8910  0.9402  0.5021
  460TIP3    H225576   1.053   3.819  16.346  0.9843  0.3712  0.4519
  461TIP3   OH225577   3.471   5.698  18.092  0.3227 -0.4824  0.3528
  461TIP3    H125578   3.495   5.791  18.089  0.3038 -0.4890 -0.2895
  461TIP3    H225579   3.379   5.696  18.064  0.0792 -0.6189  1.1492
  462TIP3   OH225580   2.430   4.865  18.345 -0.4723 -0.0928 -0.1875
  462TIP3    H125581   2.514   4.894  18.380 -0.6903 -0.4033  0.6122
  462TIP3    H225582   2.408   4.787  18.397 -0.0365 -1.5617 -2.0738
  463TIP3   OH225583   0.889   4.492  19.578  0.2849 -0.1476  0.0984
  463TIP3    H125584   0.940   4.452  19.648  0.5700 -0.3883 -0.2455
  463TIP3    H225585   0.951   4.549  19.533  0.9519 -2.3188 -1.8896
  464TIP3   OH225586   5.301   2.057  18.472 -0.1736  0.4075 -0.0164
  464TIP3    H125587   5.382   2.009  18.489 -0.0478  1.4561  2.9647
  464TIP3    H225588   5.329   2.147  18.454 -0.6034  1.1476  2.5839
  465TIP3   OH225589   3.978   6.529  18.093  0.2459  0.2435 -0.7296
  465TIP3    H125590   3.909   6.595  18.085 -0.2581  0.0577  1.4016
  465TIP3    H225591   4.058   6.579  18.105 -0.4746  0.6985  3.7705
  466TIP3   OH225592   0.231   6.193  18.979 -0.1822 -0.4860 -0.5273
  466TIP3    H125593   0.189   6.195  18.893 -0.2175  1.1244 -0.4939
  466TIP3    H225594   0.223   6.282  19.012  2.6637 -0.2521 -0.2198
  467TIP3   OH225595   2.336   4.487  16.700 -0.2848  0.4428  0.3152
  467TIP3    H125596   2.419   4.447  16.726  0.1165  1.9043  1.4647
  467TIP3    H225597   2.276   4.413  16.686  0.7506 -0.5733  1.0910
  468TIP3   OH225598   3.349   4.181  17.289 -0.0397  0.0231  0.0030
  468TIP3    H125599   3.399   4.161  17.368  0.4899 -2.2322 -0.8173
  468TIP3    H225600   3.415   4.187  17.220 -0.7090 -2.0761 -0.9327
  469TIP3   OH225601   7.331   6.501  18.385 -0.1958 -0.8156  0.4074
  469TIP3    H125602   7.333   6.480  18.292  0.2654 -2.1315  0.6938
  469TIP3    H225603   7.412   6.550  18.400 -0.8603  0.4885 -0.0985
  470TIP3   OH225604   2.985   5.204  17.167  0.3883  0.1688  0.2833
  470TIP3    H125605   3.001   5.285  17.119 -2.7571  0.3999 -0.5647
  470TIP3    H225606   2.968   5.232  17.257  0.3956  0.3294  0.2346
  471TIP3   OH225607   2.417   7.079  19.098  0.1371  0.5156 -0.1929
  471TIP3    H125608   2.340   7.026  19.120  0.7986 -1.2173 -1.7923
  471TIP3    H225609   2.381   7.163  19.071 -1.2684 -0.3384 -1.1308
  472TIP3   OH225610   4.133   6.040  18.198 -0.5023 -0.3727 -0.0248
  472TIP3    H125611   4.050   6.085  18.182  0.6489  1.3773 -1.6289
  472TIP3    H225612   4.175   6.090  18.268 -0.0941 -0.1718 -0.4023
  473TIP3   OH225613   5.777   6.068  17.026  0.3943 -0.1173  0.2971
  473TIP3    H125614   5.701   6.013  17.046 -0.3596  0.3555 -1.0961
  473TIP3    H225615   5.740   6.146  16.984  1.6302  0.1740 -0.3254
  474TIP3   OH225616   4.339   0.241  18.359 -0.0736 -0.5176 -0.3061
  474TIP3    H125617   4.340   0.281  18.272 -0.0106 -1.0537 -0.5572
  474TIP3    H225618   4.299   0.155  18.345 -0.4869 -0.4251  0.2785
  475TIP3   OH225619   4.681   7.662  17.581 -0.0752  0.3284  0.1545
  475TIP3    H125620   4.720   7.601  17.519  1.4598  1.1786  0.2273
  475TIP3    H225621   4.589   7.638  17.583 -0.1601  0.1502 -2.3260
  476TIP3   OH225622   2.927   7.608  18.248  0.0144  0.4664  0.0800
  476TIP3    H125623   2.923   7.516  18.276  1.0114  0.0794 -0.9720
  476TIP3    H225624   2.837   7.627  18.220  0.1395 -0.7557 -1.3120
  477TIP3   OH225625   0.843   2.858  19.531  0.0603 -0.1131 -0.2390
  477TIP3    H125626   0.886   2.895  19.608 -1.7421 -0.5156  1.0324
  477TIP3    H225627   0.872   2.914  19.459  2.0638  0.0789  0.6285
  478TIP3   OH225628   5.065   3.825  18.176 -0.2037 -0.2367  0.3353
  478TIP3    H125629   4.987   3.863  18.137 -0.3120 -0.0418  0.7410
  478TIP3    H225630   5.039   3.800  18.264  0.2489  0.0253  0.5494
  479TIP3   OH225631   7.233   0.466  17.170 -0.7415  0.9902  0.3106
  479TIP3    H125632   7.319   0.497  17.198 -0.8087  0.2322  1.4340
  479TIP3    H225633   7.176   0.481  17.245 -1.0119 -0.8129  0.5038
  480TIP3   OH225634   4.900   0.708  19.427  0.0417 -0.3801  0.3822
  480TIP3    H125635   4.816   0.751  19.441  1.6754  2.2790  3.1587
  480TIP3    H225636   4.888   0.658  19.346 -3.6344  1.2791 -0.2932
  481TIP3   OH225637   4.888   1.492  19.269  0.6805  0.1960  0.4834
  481TIP3    H125638   4.909   1.541  19.189  1.7392  1.0134  1.2219
  481TIP3    H225639   4.973   1.477  19.310  0.3777 -2.1612  0.3814
  482TIP3   OH225640   1.052   6.714  17.343 -0.5675  0.3572  0.2619
  482TIP3    H125641   1.068   6.737  17.251 -0.9219  0.1853  0.1545
  482TIP3    H225642   1.000   6.787  17.377 -1.1726  0.0090  0.0887
  483TIP3   OH225643   1.522   0.532  16.419 -0.3335  0.2748  0.5014
  483TIP3    H125644   1.604   0.578  16.436 -0.1809  0.1916  0.0176
  483TIP3    H225645   1.459   0.601  16.400 -0.7237  0.4203  2.2356
  484TIP3   OH225646   3.373   4.310  19.231  0.5931 -0.2274 -0.2510
  484TIP3    H125647   3.451   4.364  19.221 -0.6473  1.3987 -1.8441
  484TIP3    H225648   3.301   4.373  19.236 -0.6851 -1.6864  0.5359
  485TIP3   OH225649   2.634   1.090  16.594  0.5352  0.3446  0.1245
  485TIP3    H125650   2.644   1.152  16.522 -0.3544  0.9329  0.4953
  485TIP3    H225651   2.540   1.089  16.612  0.2496 -2.4238 -1.0137
  486TIP3   OH225652   5.497   1.805  17.822 -0.3266 -0.2325 -0.5563
  486TIP3    H125653   5.426   1.796  17.759  1.1217 -1.2298 -2.1516
  486TIP3    H225654   5.546   1.882  17.794  0.8127 -1.1622 -1.2185
  487TIP3   OH225655   6.049   3.523  19.144 -0.0840  0.2595  0.0259
  487TIP3    H125656   6.038   3.612  19.178 -0.0982  0.3903 -0.3189
  487TIP3    H225657   6.062   3.535  19.050 -1.1891 -0.1736 -0.1952
  488TIP3   OH225658   2.785   5.781  18.184 -0.5347 -0.3621  0.1950
  488TIP3    H125659   2.840   5.784  18.262  1.0562  0.3950 -0.9125
  488TIP3    H225660   2.765   5.872  18.164  0.2531 -0.4416 -1.0650
  489TIP3   OH225661   6.663   5.996  17.859 -0.0421 -0.0218  0.3036
  489TIP3    H125662   6.652   5.919  17.916 -0.9881  1.7073  2.6319
  489TIP3    H225663   6.744   6.037  17.890 -0.8802  1.2627  0.8907
  490TIP3   OH225664   1.492   6.637  16.596  0.1097  0.1184  0.1661
  490TIP3    H125665   1.448   6.555  16.573 -0.6314  0.0050  1.8177
  490TIP3    H225666   1.586   6.616  16.591 -0.0636 -0.6487 -0.0000
  491TIP3   OH225667   1.262   4.372  16.562 -0.3049 -0.1062 -0.4682
  491TIP3    H125668   1.213   4.441  16.517  0.7395 -0.7561 -2.7314
  491TIP3    H225669   1.349   4.375  16.524  0.7450 -0.5792  1.7404
  492TIP3   OH225670   6.481   2.465  17.908  0.5096 -0.1605 -0.0354
  492TIP3    H125671   6.445   2.479  17.820  0.6376  0.4159  0.0029
  492TIP3    H225672   6.572   2.439  17.893  0.0585 -1.8292 -0.1439
  493TIP3   OH225673   7.255   4.742  19.423 -0.0492 -0.5497  0.4793
  493TIP3    H125674   7.327   4.687  19.393  0.1403 -0.0028 -0.1041
  493TIP3    H225675   7.178   4.685  19.421  0.2317 -0.9281  0.3587
  494TIP3   OH225676   6.108   3.270  19.079 -0.4366 -0.0823  0.3854
  494TIP3    H125677   6.126   3.256  18.986  1.6464  0.9775  0.5603
  494TIP3    H225678   6.092   3.365  19.086 -1.3418 -0.2717  1.0080
  495TIP3   OH225679   4.599   4.881  18.352 -0.3170  0.0704 -0.1421
  495TIP3    H125680   4.548   4.836  18.420  0.9747 -0.8415  0.2661
  495TIP3    H225681   4.599   4.820  18.279 -1.0124  0.6983 -0.6763
  496TIP3   OH225682   6.375   5.379  16.607 -0.8641  0.0487 -0.3070
  496TIP3    H125683   6.387   5.397  16.513 -0.8612  0.2439 -0.2700
  496TIP3    H225684   6.346   5.463  16.644  2.2127  0.9378  0.4340
  497TIP3   OH225685   2.100   3.026  17.607  0.5622  0.4137  0.2453
  497TIP3    H125686   2.129   2.994  17.522  0.7325  1.0642  0.0514
  497TIP3    H225687   2.007   3.004  17.610  1.0430 -1.7063  0.8831
  498TIP3   OH225688   6.299   5.914  17.035  0.2781  0.6302 -0.0926
  498TIP3    H125689   6.204   5.905  17.039  0.3441 -0.4177 -0.4512
  498TIP3    H225690   6.330   5.825  17.014  1.2227  1.3363 -1.8554
  499TIP3   OH225691   5.056   0.658  18.147 -0.0494 -0.0225  0.4322
  499TIP3    H125692   5.084   0.737  18.102 -1.3383 -0.2164 -0.7666
  499TIP3    H225693   4.988   0.621  18.091 -0.7209 -1.0316  1.8524
  500TIP3   OH225694   7.206   4.515  17.314 -0.1420 -0.5678 -0.3366
  500TIP3    H125695   7.273   4.484  17.374 -0.1715  0.7395  0.4051
  500TIP3    H225696   7.139   4.554  17.370 -0.8751 -0.6315 -1.1412
  501TIP3   OH225697   4.343   0.889  18.735  0.0474  0.1199  0.2455
  501TIP3    H125698   4.404   0.954  18.701 -0.8011  1.5001  1.2773
  501TIP3    H225699   4.257   0.917  18.703 -0.4815  0.1987  1.6634
  502TIP3   OH225700   6.820   5.877  18.397 -0.1135 -0.0526  0.2662
  502TIP3    H125701   6.773   5.929  18.332  1.4149  1.2957  0.1564
  502TIP3    H225702   6.866   5.811  18.346 -0.7355 -0.4631  0.2295
  503TIP3   OH225703   3.720   7.297  18.913  0.5954 -0.1744 -0.0733
  503TIP3    H125704   3.719   7.393  18.909  2.7191 -0.1530 -1.8848
  503TIP3    H225705   3.650   7.270  18.854  2.2273  0.3394 -2.3757
  504TIP3   OH225706   1.231   6.863  17.732  1.0224  0.0249 -0.5455
  504TIP3    H125707   1.290   6.905  17.795  0.5934  0.4994 -0.4556
  504TIP3    H225708   1.268   6.775  17.719  2.1416  0.5356 -1.0094
  505TIP3   OH225709   2.002   3.927  18.972 -0.0649  0.1677  0.7804
  505TIP3    H125710   1.996   3.999  18.909  0.0309  0.2425  0.8559
  505TIP3    H225711   1.915   3.888  18.972  0.0698 -0.1470  0.2320
  506TIP3   OH225712   3.329   5.722  16.454  0.0459  0.2764  0.1760
  506TIP3    H125713   3.264   5.657  16.426 -0.4741  0.1356  1.6079
  506TIP3    H225714   3.303   5.744  16.543  0.7447  1.8006  0.0296
  507TIP3   OH225715   1.954   7.348  16.956  0.6772  0.2002  0.2467
  507TIP3    H125716   1.993   7.424  16.999  1.6588  0.7198 -1.4932
  507TIP3    H225717   2.028   7.294  16.929  0.0059 -1.6553  1.7981
  508TIP3   OH225718   4.173   0.245  18.601 -0.3207 -0.3215  0.1810
  508TIP3    H125719   4.218   0.256  18.684 -1.5278 -0.9072  0.9429
  508TIP3    H225720   4.227   0.292  18.538  1.2147 -0.8166  1.0761
  509TIP3   OH225721   0.209   7.127  17.509  0.5213 -0.0601  0.3055
  509TIP3    H125722   0.122   7.105  17.542  1.0940 -0.8415  1.3574
  509TIP3    H225723   0.196   7.142  17.415 -1.1730  2.3662  0.8464
  510TIP3   OH225724   0.929   1.509  16.961 -0.0758 -0.2761 -0.1222
  510TIP3    H125725   0.955   1.586  17.011  0.8952 -0.7810  0.1815
  510TIP3    H225726   0.977   1.516  16.879 -0.2671 -0.3687 -0.2423
  511TIP3   OH225727   4.009   3.898  17.696  0.0304 -0.3344  0.3188
  511TIP3    H125728   3.921   3.889  17.733 -0.5092  2.7844  0.1031
  511TIP3    H225729   4.054   3.958  17.755  0.9083  0.6483 -1.2565
  512TIP3   OH225730   2.132   6.881  17.242 -0.0241 -0.4179  0.6378
  512TIP3    H125731   2.060   6.867  17.181  1.1640 -0.6911 -0.7351
  512TIP3    H225732   2.114   6.967  17.281 -0.0752  0.4065 -1.1433
  513TIP3   OH225733   5.831   4.052  17.674 -0.3214 -0.1211  0.3729
  513TIP3    H125734   5.780   4.062  17.754  0.0261  2.6247  0.3601
  513TIP3    H225735   5.919   4.028  17.705 -0.4832 -0.2731  0.7187
  514TIP3   OH225736   0.669   4.402  18.915  0.0223 -0.0704 -0.2381
  514TIP3    H125737   0.594   4.358  18.876  0.4553  0.5750 -1.8540
  514TIP3    H225738   0.714   4.333  18.964 -2.2117 -0.2276  1.7814
  515TIP3   OH225739   4.647   1.963  17.594  0.0773  0.2988  0.6074
  515TIP3    H125740   4.718   1.931  17.537 -0.3206 -1.3686  0.9809
  515TIP3    H225741   4.567   1.940  17.547 -0.2357 -0.0283  1.2915
  516TIP3   OH225742   0.918   1.124  18.474  0.3029 -0.1001 -0.4300
  516TIP3    H125743   0.852   1.138  18.407  1.3831  0.2345 -1.4535
  516TIP3    H225744   0.904   1.194  18.537  0.1750  0.4389 -1.0486
  517TIP3   OH225745   0.827   2.874  18.243 -0.7574  0.1592  0.0292
  517TIP3    H125746   0.820   2.874  18.148 -0.3484  2.2553 -0.0635
  517TIP3    H225747   0.817   2.966  18.267 -0.5938 -0.2976  1.9931
  518TIP3   OH225748   2.273   0.851  17.723 -0.2354 -0.0131  0.0146
  518TIP3    H125749   2.278   0.828  17.816  2.6085 -3.6971 -0.8077
  518TIP3    H225750   2.321   0.933  17.717  0.2236 -0.1073  1.7101
  519TIP3   OH225751   4.349   7.437  17.142 -0.2138 -0.1448  0.2981
  519TIP3    H125752   4.338   7.345  17.116  3.1679 -1.1024  1.7550
  519TIP3    H225753   4.427   7.467  17.095 -0.7943  1.7882  0.4656
  520TIP3   OH225754   1.204   6.322  16.964  0.3119 -0.8035  0.0302
  520TIP3    H125755   1.287   6.355  16.996 -0.4769 -0.4068  1.7567
  520TIP3    H225756   1.143   6.396  16.970 -0.7131 -1.6862  1.0019
  521TIP3   OH225757   5.342   3.008  18.580 -0.7608 -0.3178 -0.3032
  521TIP3    H125758   5.339   2.936  18.517  1.5112 -0.3404 -0.4642
  521TIP3    H225759   5.255   3.008  18.620 -1.1912 -2.4054 -1.0921
  522TIP3   OH225760   0.865   3.206  18.770 -0.0753  0.2945 -0.2440
  522TIP3    H125761   0.807   3.172  18.839  0.8012  0.3126  0.5289
  522TIP3    H225762   0.953   3.193  18.806  0.3642  1.0038 -1.0549
  523TIP3   OH225763   2.318   0.162  17.052  0.0535  0.2502 -0.3376
  523TIP3    H125764   2.316   0.080  17.001 -0.6797  1.4498 -2.3570
  523TIP3    H225765   2.226   0.178  17.075  0.1316  0.7121 -0.3364
  524TIP3   OH225766   6.927   2.375  18.836 -0.1751  0.1819 -0.0280
  524TIP3    H125767   6.926   2.293  18.886  0.0098  0.4124  0.3575
  524TIP3    H225768   6.914   2.443  18.902 -0.0076  0.4848 -0.3075
  525TIP3   OH225769   0.848   0.825  18.969 -0.0055  0.9019  0.2744
  525TIP3    H125770   0.907   0.879  18.916  0.9847 -0.9407 -0.5902
  525TIP3    H225771   0.820   0.755  18.910  2.0652 -1.9428  2.3435
  526TIP3   OH225772   6.740   2.489  18.123 -0.4736  0.1177 -0.7737
  526TIP3    H125773   6.688   2.554  18.171 -0.8752  0.1531 -1.2529
  526TIP3    H225774   6.697   2.406  18.141  0.1714 -0.0604  0.0203
  527TIP3   OH225775   6.798   2.807  18.709  0.5854  0.3281  0.5662
  527TIP3    H125776   6.714   2.763  18.696  0.9371 -1.3575  3.1665
  527TIP3    H225777   6.854   2.774  18.639  0.2369 -1.9450  1.2625
  528TIP3   OH225778   0.563   1.562  18.278  0.5326  0.8546 -0.5662
  528TIP3    H125779   0.580   1.493  18.214  0.7393  1.2260 -0.9165
  528TIP3    H225780   0.499   1.619  18.236 -2.2929 -0.8964  0.9956
  529TIP3   OH225781   4.151   1.335  19.460 -0.2925 -0.1339  0.0104
  529TIP3    H125782   4.181   1.426  19.459 -0.7268  0.0045 -0.4110
  529TIP3    H225783   4.154   1.307  19.369  0.3573 -0.7186  0.2001
  530TIP3   OH225784   4.010   2.898  18.896  0.2581 -0.2049  0.3921
  530TIP3    H125785   3.996   2.992  18.901 -0.1453 -0.2016 -0.5869
  530TIP3    H225786   4.053   2.884  18.811  0.1588 -0.9148  0.4493
  531TIP3   OH225787   6.977   6.720  19.257 -0.1255  0.0142 -0.4454
  531TIP3    H125788   6.976   6.639  19.206 -0.0262 -0.6807  0.6272
  531TIP3    H225789   7.030   6.699  19.334 -2.0986  0.3082  1.0872
  532TIP3   OH225790   4.777   1.540  17.764  0.0914 -0.0631  1.2721
  532TIP3    H125791   4.704   1.555  17.825 -0.3851 -2.5249  1.4144
  532TIP3    H225792   4.829   1.471  17.806  0.7439 -0.5610 -0.2914
  533TIP3   OH225793   6.051   5.291  17.149  0.0409  0.4916 -0.5264
  533TIP3    H125794   6.020   5.217  17.202 -0.8676  1.6775  0.6766
  533TIP3    H225795   5.994   5.290  17.072  0.0011 -0.0352 -0.4937
  534TIP3   OH225796   4.376   0.813  19.296  0.7164 -0.5828  0.2990
  534TIP3    H125797   4.333   0.856  19.370  0.3752  2.3408 -1.4353
  534TIP3    H225798   4.387   0.723  19.324 -0.1358  0.1956  3.5673
  535TIP3   OH225799   2.313   0.759  17.969 -0.4806 -0.4909 -0.2041
  535TIP3    H125800   2.231   0.784  18.011  0.5548  0.2814  1.4724
  535TIP3    H225801   2.357   0.703  18.034  0.7362 -0.1057 -0.6675
  536TIP3   OH225802   4.430   2.432  18.806 -0.2466 -0.5509 -0.1518
  536TIP3    H125803   4.433   2.413  18.900  0.2285 -0.9147 -0.2364
  536TIP3    H225804   4.362   2.376  18.771  0.0692 -0.9454 -0.1393
  537TIP3   OH225805   7.586   1.745  19.070 -0.3942  0.1570  0.4133
  537TIP3    H125806   7.566   1.777  18.982 -1.2437 -1.4358 -0.0299
  537TIP3    H225807   7.673   1.707  19.063  0.0819  1.1723  0.6183
  538TIP3   OH225808   3.305   5.826  17.398  0.1184 -0.1481 -0.0810
  538TIP3    H125809   3.236   5.763  17.418 -0.0703  0.2815  0.6807
  538TIP3    H225810   3.301   5.889  17.470  1.4809 -0.2662  0.1369
  539TIP3   OH225811   6.936   2.832  18.986  0.0825 -0.0350  0.2188
  539TIP3    H125812   6.930   2.881  19.069  0.9007 -0.1018  0.3335
  539TIP3    H225813   6.873   2.874  18.928 -0.1816  0.2983  0.7382
  540TIP3   OH225814   2.638   4.586  17.088 -0.0875  0.3012  0.1520
  540TIP3    H125815   2.626   4.578  17.183  0.2592  0.9064  0.2483
  540TIP3    H225816   2.604   4.672  17.066  0.8687  0.6219 -0.1051
  541TIP3   OH225817   3.691   3.435  18.049 -0.2852 -0.0194  0.2533
  541TIP3    H125818   3.618   3.488  18.081  0.3018  0.5060  0.7728
  541TIP3    H225819   3.767   3.470  18.096  0.0902 -1.4828  0.7732
  542TIP3   OH225820   0.205   2.291  19.466  0.3200 -0.3994 -0.0483
  542TIP3    H125821   0.113   2.287  19.491  0.9359 -2.0001  2.2332
  542TIP3    H225822   0.235   2.200  19.472  1.5591 -0.3089 -2.9896
  543TIP3   OH225823   3.627   5.301  16.933  0.0062 -0.2618  0.4881
  543TIP3    H125824   3.672   5.342  17.006 -1.8699 -1.3757  2.4078
  543TIP3    H225825   3.599   5.373  16.877 -0.4177  0.8428  2.0669
  544TIP3   OH225826   1.350   3.735  18.379 -0.2567 -0.6525 -0.2157
  544TIP3    H125827   1.365   3.812  18.433  0.9708 -0.8692 -0.2166
  544TIP3    H225828   1.273   3.693  18.417  0.4872 -0.7104  1.2853
  545TIP3   OH225829   3.747   6.266  18.636  0.2756 -0.0642  0.4819
  545TIP3    H125830   3.734   6.186  18.687  1.1043 -0.8842 -0.5561
  545TIP3    H225831   3.791   6.237  18.556 -0.4139  1.2764 -0.4256
  546TIP3   OH225832   1.513   6.984  18.259  0.3407  0.1743  0.4058
  546TIP3    H125833   1.554   7.035  18.329 -0.1232  1.3722 -0.1708
  546TIP3    H225834   1.581   6.974  18.193  0.6487 -0.5865  0.8321
  547TIP3   OH225835   0.633   5.116  18.518 -0.1424  0.2468  0.0030
  547TIP3    H125836   0.570   5.179  18.483  0.9203  1.4989  0.2767
  547TIP3    H225837   0.579   5.043  18.549 -1.5062  1.4750  0.6409
  548TIP3   OH225838   5.960   0.169  17.832  0.0860 -0.4110 -0.5278
  548TIP3    H125839   6.017   0.101  17.797  1.1198  0.3256 -0.2945
  548TIP3    H225840   5.998   0.251  17.802  0.0089  0.1605  0.8704
  549TIP3   OH225841   0.186   1.342  16.739  0.6290 -0.2280 -0.3695
  549TIP3    H125842   0.167   1.430  16.708 -0.4046 -0.5933 -0.8104
  549TIP3    H225843   0.275   1.347  16.774 -0.4945  1.8380  2.6668
  550TIP3   OH225844   6.530   0.725  17.374 -0.6107 -0.3374  0.4208
  550TIP3    H125845   6.547   0.631  17.384  0.3196 -0.2089  0.1076
  550TIP3    H225846   6.468   0.730  17.301  1.0532 -0.5920 -1.0762
  551TIP3   OH225847   4.135   4.911  19.212  0.2245  0.0647  0.1970
  551TIP3    H125848   4.064   4.953  19.162  0.5416 -1.5811 -1.7819
  551TIP3    H225849   4.205   4.977  19.214 -0.4834  0.8455  0.1235
  552TIP3   OH225850   2.928   5.534  19.339 -0.0296 -0.3896 -0.1687
  552TIP3    H125851   2.886   5.451  19.361 -1.0912  0.1322 -0.1502
  552TIP3    H225852   2.980   5.514  19.261 -1.7673 -0.6648 -1.3174
  553TIP3   OH225853   2.828   2.225  17.986  0.4085 -0.6711 -0.6400
  553TIP3    H125854   2.744   2.268  17.969 -0.1800 -1.9581 -1.0709
  553TIP3    H225855   2.805   2.140  18.022  1.5523 -0.7679 -0.0899
  554TIP3   OH225856   2.980   7.327  18.891 -0.2520 -0.0462 -0.3174
  554TIP3    H125857   2.971   7.365  18.803  1.1753  0.2315 -0.3592
  554TIP3    H225858   2.944   7.394  18.949  0.0507  0.3542 -0.5860
  555TIP3   OH225859   4.978   2.427  17.412  0.6684  0.4836  0.0765
  555TIP3    H125860   4.984   2.337  17.444 -0.0061  0.1094 -0.7890
  555TIP3    H225861   4.966   2.418  17.317 -0.0372  1.4582  0.0584
  556TIP3   OH225862   5.285   4.020  19.250  0.5046  0.2564 -0.5397
  556TIP3    H125863   5.306   3.949  19.189  3.5505 -0.0199  0.6569
  556TIP3    H225864   5.341   4.092  19.224  0.2441  0.8959  0.6087
  557TIP3   OH225865   0.861   7.513  18.128 -0.5004 -0.1242  0.7061
  557TIP3    H125866   0.829   7.599  18.156 -1.5532  0.0106 -0.7991
  557TIP3    H225867   0.944   7.531  18.084 -1.3160  0.3129 -0.7062
  558TIP3   OH225868   4.702   6.071  18.216  0.0933  0.1085 -0.1141
  558TIP3    H125869   4.714   6.101  18.125 -1.1354  1.0877  0.0293
  558TIP3    H225870   4.612   6.038  18.219  0.7014 -1.6241  0.3098
  559TIP3   OH225871   5.546   6.747  17.366 -0.2380  0.2201 -0.0756
  559TIP3    H125872   5.578   6.677  17.309  0.1531  0.3984 -0.0804
  559TIP3    H225873   5.521   6.702  17.447  0.6120  0.1492  0.1546
  560TIP3   OH225874   5.325   3.738  19.148  0.4715 -0.3550  0.0827
  560TIP3    H125875   5.385   3.712  19.079 -0.9516 -0.4754 -1.1514
  560TIP3    H225876   5.279   3.658  19.172  0.3405 -0.1408  0.5771
  561TIP3   OH225877   0.657   3.489  17.049  0.5848 -0.6745 -0.1469
  561TIP3    H125878   0.640   3.537  16.967 -0.5949 -1.3945 -0.3450
  561TIP3    H225879   0.651   3.556  17.117 -3.3625 -0.7763 -0.1599
  562TIP3   OH225880   0.226   0.320  17.308  0.6947 -0.0326  0.1496
  562TIP3    H125881   0.195   0.367  17.230  0.3724 -1.4419 -0.6032
  562TIP3    H225882   0.185   0.366  17.381 -0.0843  0.4963 -0.6025
  563TIP3   OH225883   3.407   3.372  17.809  0.2729 -0.3858 -0.0166
  563TIP3    H125884   3.447   3.296  17.853 -1.9948 -0.9082  1.2865
  563TIP3    H225885   3.454   3.378  17.726  2.7411 -1.1757  1.1992
  564TIP3   OH225886   3.492   5.493  17.596  0.2213  0.2729 -0.5292
  564TIP3    H125887   3.424   5.559  17.586  0.6845  1.0120  0.8665
  564TIP3    H225888   3.574   5.540  17.581  0.5177 -0.1947 -0.4119
  565TIP3   OH225889   7.421   7.476  16.478  0.7684 -0.2844 -0.0083
  565TIP3    H125890   7.429   7.428  16.560 -0.6111 -0.5676 -0.0204
  565TIP3    H225891   7.368   7.419  16.422 -0.0248  0.7913 -0.3819
  566TIP3   OH225892   0.454   4.661  16.652 -0.6423 -0.1280 -0.1275
  566TIP3    H125893   0.482   4.748  16.626 -0.8119  0.1797  0.6901
  566TIP3    H225894   0.465   4.607  16.573  1.5648  0.1221 -0.0483
  567TIP3   OH225895   7.166   5.152  16.641 -0.2708 -0.0745  0.1129
  567TIP3    H125896   7.088   5.103  16.616 -0.3050 -0.3121  0.6611
  567TIP3    H225897   7.162   5.232  16.590 -0.9237 -0.0466  0.2016
  568TIP3   OH225898   0.114   1.699  19.293 -0.1604 -0.5299  0.0455
  568TIP3    H125899   0.093   1.628  19.233  1.1940 -0.1158 -0.9740
  568TIP3    H225900   0.178   1.662  19.354 -0.5443 -0.5836  0.4175
  569TIP3   OH225901   3.314   5.847  17.858  0.1040  0.0377  1.0530
  569TIP3    H125902   3.226   5.867  17.890 -0.3134  0.1816 -0.1599
  569TIP3    H225903   3.349   5.931  17.831  0.0198 -0.2389  0.0700
  570TIP3   OH225904   4.472   6.829  17.374 -0.1156  0.4635 -0.6829
  570TIP3    H125905   4.458   6.741  17.339 -1.0351  0.5457 -0.5556
  570TIP3    H225906   4.404   6.838  17.441  0.5473  0.9356 -0.0530
  571TIP3   OH225907   3.919   0.244  18.878 -0.0678  0.2198  0.3374
  571TIP3    H125908   3.969   0.324  18.864  0.0952 -0.1010 -1.0127
  571TIP3    H225909   3.880   0.225  18.793  0.6212 -1.6167  0.3902
  572TIP3   OH225910   1.727   0.541  17.297  0.3077 -0.5335 -0.0682
  572TIP3    H125911   1.763   0.535  17.209  1.1606 -0.3109  0.2479
  572TIP3    H225912   1.799   0.575  17.350 -0.4339  0.0908  0.5681
  573TIP3   OH225913   4.472   6.505  17.494  0.6732  0.9095 -0.1018
  573TIP3    H125914   4.383   6.540  17.499  0.6836  1.2073 -1.5710
  573TIP3    H225915   4.495   6.483  17.585 -0.8512  0.9193  0.3060
  574TIP3   OH225916   3.341   5.978  18.251 -0.4514 -0.1442 -0.1631
  574TIP3    H125917   3.254   5.970  18.289 -0.8756  4.0533  0.2085
  574TIP3    H225918   3.326   6.013  18.164  0.8365  0.5745 -0.1189
  575TIP3   OH225919   4.228   6.646  18.698 -0.0576  0.9324  0.1518
  575TIP3    H125920   4.234   6.598  18.615 -0.2790  1.1531  0.0065
  575TIP3    H225921   4.174   6.722  18.677 -0.8894  0.5137  0.7217
  576TIP3   OH225922   6.709   3.432  17.446  0.4148  0.5658  0.0368
  576TIP3    H125923   6.799   3.400  17.451 -0.0155 -0.9381 -1.0240
  576TIP3    H225924   6.685   3.421  17.354 -0.3871  2.3262  0.0025
  577TIP3   OH225925   5.986   6.052  17.827  0.0723  0.1427 -0.2818
  577TIP3    H125926   6.069   6.024  17.868  0.0694  1.2963  0.5583
  577TIP3    H225927   5.977   5.995  17.751  0.9816 -0.8875  0.3490
  578TIP3   OH225928   5.322   7.578  18.292  0.2576  0.2172  0.0562
  578TIP3    H125929   5.414   7.599  18.272 -0.0744  0.5545 -1.1655
  578TIP3    H225930   5.278   7.663  18.294  0.0397  0.0926  1.0856
  579TIP3   OH225931   4.775   0.263  19.482 -0.5301  0.3026 -0.4496
  579TIP3    H125932   4.861   0.305  19.471 -0.6257  0.5697 -0.1961
  579TIP3    H225933   4.716   0.335  19.504 -0.3105 -0.1653  2.0054
  580TIP3   OH225934   5.077   4.425  18.228  0.3901  0.5404 -0.3262
  580TIP3    H125935   5.060   4.449  18.319 -2.6603 -0.8705 -0.4070
  580TIP3    H225936   5.168   4.393  18.228  0.3021  0.0820  2.3395
  581TIP3   OH225937   0.337   4.190  19.100 -0.1410 -0.5482 -0.1991
  581TIP3    H125938   0.405   4.229  19.155  0.1657  0.4018 -1.2171
  581TIP3    H225939   0.303   4.263  19.049 -1.3121 -1.1837 -0.3635
  582TIP3   OH225940   3.450   6.600  17.826  0.5631 -1.0257  0.3017
  582TIP3    H125941   3.406   6.528  17.870  1.1015 -1.2015  0.5573
  582TIP3    H225942   3.444   6.673  17.887  0.6874 -1.0686  0.3656
  583TIP3   OH225943   7.499   0.849  19.634 -0.0888  0.1147 -0.5858
  583TIP3    H125944   7.521   0.926  19.582  0.7542 -0.7601 -1.5722
  583TIP3    H225945   7.562   0.849  19.705 -0.9122  1.0250  0.1741
  584TIP3   OH225946   4.443   6.756  16.511 -0.3413 -0.0591 -0.0441
  584TIP3    H125947   4.464   6.788  16.599  0.1086  0.6123 -0.3818
  584TIP3    H225948   4.496   6.811  16.452  0.6132 -1.5405 -0.6542
  585TIP3   OH225949   7.374   2.856  17.221  0.0975 -0.1082 -0.3606
  585TIP3    H125950   7.449   2.909  17.250  1.0214 -1.5103 -0.0607
  585TIP3    H225951   7.357   2.886  17.132  0.4877  0.7958 -0.1482
  586TIP3   OH225952   4.382   4.963  16.856  0.0418 -1.0087  0.0651
  586TIP3    H125953   4.306   5.020  16.861  0.9724  0.4000 -0.7835
  586TIP3    H225954   4.354   4.888  16.803 -0.8177 -0.6340 -0.0106
  587TIP3   OH225955   4.950   4.245  18.682 -0.7614  0.5093 -0.1334
  587TIP3    H125956   4.866   4.243  18.637 -0.6741 -0.5091 -0.2869
  587TIP3    H225957   4.931   4.278  18.769 -1.1689  1.1434 -0.4597
  588TIP3   OH225958   3.581   6.011  18.080 -0.1619  0.5660  0.1439
  588TIP3    H125959   3.650   5.966  18.129 -0.0720 -0.0630 -0.5437
  588TIP3    H225960   3.560   6.088  18.133 -0.1356 -0.1448  1.2188
  589TIP3   OH225961   2.900   7.088  18.988 -0.1986 -0.4688  0.8079
  589TIP3    H125962   2.937   7.169  18.953 -0.4618 -0.7385 -0.1329
  589TIP3    H225963   2.873   7.111  19.077  0.8133  0.1454  0.9734
  590TIP3   OH225964   6.031   1.937  19.332  0.0657  0.2975 -0.3159
  590TIP3    H125965   6.070   1.931  19.244  0.9398  1.9792 -0.0802
  590TIP3    H225966   6.075   2.012  19.372 -0.6759 -0.1493  1.3927
  591TIP3   OH225967   1.500   2.267  17.872 -0.3371 -0.0714 -0.1259
  591TIP3    H125968   1.427   2.208  17.890  0.7183 -1.0952  1.0161
  591TIP3    H225969   1.542   2.281  17.957  0.4348  0.9883 -0.6516
  592TIP3   OH225970   7.040   7.556  18.108  0.0301 -0.2232  0.1130
  592TIP3    H125971   7.031   7.485  18.044  0.4640 -1.0281  0.9162
  592TIP3    H225972   6.962   7.610  18.094 -1.7911 -2.3601  1.2815
  593TIP3   OH225973   5.518   1.494  19.009 -0.0427 -0.2433 -0.0528
  593TIP3    H125974   5.481   1.558  19.069 -0.1168  0.2665 -0.6345
  593TIP3    H225975   5.447   1.473  18.949  0.5315  0.6227 -1.0808
  594TIP3   OH225976   5.213   1.886  19.071 -0.0326  0.2223  0.3256
  594TIP3    H125977   5.166   1.855  19.148 -0.0828  1.3924  0.7902
  594TIP3    H225978   5.155   1.952  19.032  0.3831  0.2861 -0.2041
  595TIP3   OH225979   4.122   3.117  16.936  0.3610  0.8012  0.1081
  595TIP3    H125980   4.185   3.055  16.974 -0.6954  0.6005  1.5938
  595TIP3    H225981   4.171   3.159  16.865  1.6113 -0.5862  0.0881
  596TIP3   OH225982   2.074   4.133  16.782  0.2313  0.1327 -0.2536
  596TIP3    H125983   2.018   4.209  16.769 -1.0031 -0.5522  0.8170
  596TIP3    H225984   2.141   4.162  16.844  1.9891  1.3577 -2.5588
  597TIP3   OH225985   1.095   3.518  17.669 -0.6654  0.2055  0.1903
  597TIP3    H125986   1.054   3.500  17.584 -0.0574 -1.3636  0.1868
  597TIP3    H225987   1.186   3.492  17.658 -0.6359 -0.2869  1.3986
  598TIP3   OH225988   3.741   4.024  18.898  0.4378  0.3355 -0.3171
  598TIP3    H125989   3.659   4.004  18.943  1.1123 -1.2559  0.2613
  598TIP3    H225990   3.728   4.113  18.864 -0.4445  1.2716  2.2054
  599TIP3   OH225991   6.047   5.813  17.051  0.5539  0.3883 -0.6972
  599TIP3    H125992   6.069   5.719  17.056  1.8690  0.7232  0.3294
  599TIP3    H225993   5.957   5.818  17.081  0.6811 -0.4794 -0.1303
  600TIP3   OH225994   1.367   6.468  18.580  0.0908 -0.6948  0.1978
  600TIP3    H125995   1.382   6.491  18.488 -1.2255  1.9844  0.5305
  600TIP3    H225996   1.425   6.394  18.596  1.2541 -0.4985 -2.4629
  601TIP3   OH225997   6.209   4.280  18.527 -0.1010 -0.5314 -0.2269
  601TIP3    H125998   6.137   4.263  18.588  0.0341  1.1033  0.4595
  601TIP3    H225999   6.189   4.226  18.451 -1.3665 -1.0904  0.4581
  602TIP3   OH226000   4.596   0.223  17.069  0.4481 -0.5711 -0.1074
  602TIP3    H126001   4.651   0.185  17.001  0.0869 -0.9718 -0.1780
  602TIP3    H226002   4.658   0.259  17.132  0.7793  0.1733 -0.8509
  603TIP3   OH226003   2.397   0.357  18.208 -0.0677 -0.4129 -0.4100
  603TIP3    H126004   2.364   0.275  18.244  1.6772 -1.0346 -0.1296
  603TIP3    H226005   2.492   0.343  18.199  0.3080  1.6553 -0.1010
  604TIP3   OH226006   0.243   6.388  17.977  0.6674 -0.0292 -0.0510
  604TIP3    H126007   0.175   6.451  17.954 -0.4958 -0.5167  1.8072
  604TIP3    H226008   0.219   6.308  17.930 -0.1573 -0.2424  0.7157
  605TIP3   OH226009   3.600   6.064  18.805 -0.5260  0.2937  0.4525
  605TIP3    H126010   3.541   6.023  18.867 -0.4692 -0.3019  0.1186
  605TIP3    H226011   3.632   5.992  18.750  0.9915  0.5000  1.0154
  606TIP3   OH226012   0.535   5.913  18.403 -0.1878  0.0361  0.3396
  606TIP3    H126013   0.564   5.887  18.491  1.3215  1.5071  0.3312
  606TIP3    H226014   0.608   5.963  18.368 -1.5660  1.2233 -0.9732
  607TIP3   OH226015   5.910   4.459  18.367 -0.3775  0.1726 -0.0720
  607TIP3    H126016   5.933   4.501  18.450 -1.2878 -1.6733  1.1834
  607TIP3    H226017   5.848   4.519  18.326  1.2217  1.8326 -0.1802
  608TIP3   OH226018   7.623   2.256  19.008 -0.1877 -0.0524 -0.1428
  608TIP3    H126019   7.594   2.196  19.076  1.4103 -0.3868  0.2776
  608TIP3    H226020   7.652   2.334  19.055 -1.1624  0.6252 -0.6161
  609TIP3   OH226021   4.007   4.446  18.047  0.1104  0.2371  0.4657
  609TIP3    H126022   3.979   4.356  18.059 -0.1324  0.4301  1.4370
  609TIP3    H226023   4.059   4.445  17.966 -0.2627 -0.6744  0.2276
  610TIP3   OH226024   5.190   3.278  18.819 -0.3754  0.2659  0.1724
  610TIP3    H126025   5.164   3.292  18.911 -0.6124  2.7399 -0.2222
  610TIP3    H226026   5.135   3.205  18.791  0.7468 -1.5741  2.3813
  611TIP3   OH226027   2.676   3.409  17.192  0.2475  0.0381  0.0093
  611TIP3    H126028   2.721   3.324  17.196  1.0408  0.4500  0.0186
  611TIP3    H226029   2.635   3.417  17.278  2.3772  0.8229  1.0289
  612TIP3   OH226030   6.162   5.824  17.890  0.0191  0.3699  0.1718
  612TIP3    H126031   6.186   5.794  17.803  1.0931  1.5468  0.0272
  612TIP3    H226032   6.109   5.754  17.927  1.5618 -1.2046 -0.5022
  613TIP3   OH226033   6.032   7.599  18.652  0.4030  0.0797  0.4259
  613TIP3    H126034   6.057   7.688  18.679  0.2104  0.3919 -0.3957
  613TIP3    H226035   5.983   7.612  18.571  0.4271 -0.7895  0.2642
  614TIP3   OH226036   1.033   6.095  18.443 -0.6150 -0.1326  0.1375
  614TIP3    H126037   1.022   6.054  18.357 -1.2885  0.3653 -0.0130
  614TIP3    H226038   1.091   6.169  18.426  0.6473 -1.0135  0.4207
  615TIP3   OH226039   2.723   4.977  19.016 -0.4709 -0.1237 -0.3642
  615TIP3    H126040   2.750   4.923  18.941  1.0352  0.3025 -0.1617
  615TIP3    H226041   2.660   4.923  19.063  1.4452 -2.0364  0.1892
  616TIP3   OH226042   5.650   1.356  18.027 -0.1801  0.4771  0.8190
  616TIP3    H126043   5.599   1.406  18.091 -1.3667  1.3170 -0.6997
  616TIP3    H226044   5.730   1.407  18.014 -0.6318  1.1079  0.5053
  617TIP3   OH226045   1.311   0.438  18.980  0.1470 -0.5539 -0.2060
  617TIP3    H126046   1.247   0.460  18.912 -0.2939 -1.2798 -0.0340
  617TIP3    H226047   1.394   0.474  18.947 -0.8033  2.9782  0.8674
  618TIP3   OH226048   5.426   6.458  17.113 -0.5080 -0.1532 -0.1772
  618TIP3    H126049   5.500   6.519  17.111 -2.3727  2.2365 -1.3250
  618TIP3    H226050   5.415   6.437  17.206  1.7093 -0.8227  0.0054
  619TIP3   OH226051   4.907   3.066  17.360 -0.0540  0.1709 -0.1990
  619TIP3    H126052   4.871   3.008  17.427 -1.3675  0.9893 -0.1595
  619TIP3    H226053   4.990   3.026  17.335 -0.1545 -0.8279  1.0003
  620TIP3   OH226054   5.693   5.290  18.461 -0.4139  0.0756 -0.7439
  620TIP3    H126055   5.756   5.348  18.503  0.7671 -1.0145 -0.9320
  620TIP3    H226056   5.648   5.246  18.533  0.3398 -0.4677 -0.5880
  621TIP3   OH226057   7.252   7.622  17.695  0.0645  0.7187  0.3228
  621TIP3    H126058   7.279   7.544  17.647 -3.5487  0.3822 -1.4717
  621TIP3    H226059   7.239   7.591  17.785 -2.4064 -1.2188 -0.5605
  622TIP3   OH226060   3.096   3.335  18.278 -0.4035  0.3441 -0.4063
  622TIP3    H126061   3.187   3.305  18.281 -0.5114  0.0677  0.0320
  622TIP3    H226062   3.102   3.422  18.237  0.4078  1.6188  2.1779
  623TIP3   OH226063   6.628   2.273  18.175  0.4863  0.0364  0.0209
  623TIP3    H126064   6.617   2.271  18.270 -0.7238 -0.1071 -0.1059
  623TIP3    H226065   6.630   2.181  18.149  1.5041  0.0603 -0.0381
  624TIP3   OH226066   1.382   3.336  18.655  0.3146 -0.6181 -0.0637
  624TIP3    H126067   1.314   3.342  18.722 -0.6423 -3.4442 -0.6562
  624TIP3    H226068   1.371   3.415  18.602 -0.9736  0.1152  1.2484
  625TIP3   OH226069   4.418   5.047  16.460 -0.4884 -0.7879  0.5255
  625TIP3    H126070   4.386   5.083  16.378 -1.3902  1.2546  1.7060
  625TIP3    H226071   4.349   4.986  16.488  0.0333 -1.8444 -0.4044
  626TIP3   OH226072   7.089   0.227  16.733 -0.0861 -0.7088 -0.2646
  626TIP3    H126073   7.158   0.294  16.739 -0.0025 -0.7243 -0.9094
  626TIP3    H226074   7.137   0.144  16.729 -0.2191 -0.9613  1.9933
  627TIP3   OH226075   1.779   1.259  17.863  0.7108  0.4844 -0.5118
  627TIP3    H126076   1.773   1.332  17.803 -1.7132  3.2328  2.6735
  627TIP3    H226077   1.853   1.280  17.920  0.6616 -0.0895 -0.2188
  628TIP3   OH226078   1.579   5.735  19.189  0.2718  0.1455  0.2785
  628TIP3    H126079   1.577   5.778  19.274  3.0114  0.3244  0.3277
  628TIP3    H226080   1.530   5.654  19.202 -0.2181  0.6455  1.7345
  629TIP3   OH226081   3.475   3.084  17.375 -0.5444  0.4464  0.8381
  629TIP3    H126082   3.429   3.001  17.362  2.1004 -0.9623 -0.3468
  629TIP3    H226083   3.494   3.115  17.287  0.8067  0.9247  1.2716
  630TIP3   OH226084   5.671   5.271  18.809  0.0947 -0.3415 -0.3560
  630TIP3    H126085   5.715   5.242  18.889 -1.0770  1.2817  0.9391
  630TIP3    H226086   5.615   5.344  18.837 -0.0758  0.5241 -2.7267
  631TIP3   OH226087   2.129   2.123  16.974 -0.0892  0.1678  0.4823
  631TIP3    H126088   2.154   2.074  16.896  0.4790  0.1453  0.6749
  631TIP3    H226089   2.061   2.070  17.016  0.7184 -0.6030  0.8413
  632TIP3   OH226090   2.187   0.699  17.495 -0.7227  0.0594  0.6473
  632TIP3    H126091   2.238   0.618  17.501 -0.7222  0.1282  1.7323
  632TIP3    H226092   2.204   0.744  17.577  0.1418  1.6956 -0.3684
  633TIP3   OH226093   4.487   4.838  17.533 -0.6435 -0.6542  0.1025
  633TIP3    H126094   4.490   4.901  17.460 -1.4780 -2.3247 -1.4600
  633TIP3    H226095   4.551   4.771  17.509  0.1985 -0.4850  1.7193
  634TIP3   OH226096   7.428   1.836  18.082  0.3770 -0.0998 -0.3630
  634TIP3    H126097   7.432   1.928  18.056 -1.1079  0.0135 -0.2818
  634TIP3    H226098   7.456   1.835  18.173  0.8732  0.1944 -0.5090
  635TIP3   OH226099   4.861   1.112  17.533  0.4879 -0.2779 -0.0994
  635TIP3    H126100   4.768   1.094  17.551  0.2635 -0.3118 -1.2381
  635TIP3    H226101   4.862   1.204  17.505  1.1083  0.3990  1.9740
  636TIP3   OH226102   5.058   0.043  17.996 -0.0170 -0.0685  0.7397
  636TIP3    H126103   5.095  -0.028  17.945  1.7631  0.0627  1.7677
  636TIP3    H226104   4.982   0.072  17.946  0.8331 -0.8676 -1.0971
  637TIP3   OH226105   6.764   4.665  18.868  0.6191 -0.2228  0.3710
  637TIP3    H126106   6.684   4.635  18.910  1.5996 -2.3168  0.8609
  637TIP3    H226107   6.739   4.746  18.823 -1.6954 -0.7363  0.6374
  638TIP3   OH226108   5.792   3.780  18.187 -0.1679 -0.0015 -0.8838
  638TIP3    H126109   5.814   3.687  18.186 -2.4756 -0.6215  0.6708
  638TIP3    H226110   5.803   3.808  18.095 -0.0354 -1.9357 -1.4953
  639TIP3   OH226111   6.287   0.953  18.289 -0.1271  0.2183  0.7633
  639TIP3    H126112   6.338   1.008  18.348  1.9058 -0.2393 -0.4817
  639TIP3    H226113   6.248   1.015  18.226 -0.5051  0.4972  1.2642
  640TIP3   OH226114   5.214   0.405  18.646  0.6348 -0.0593  0.0580
  640TIP3    H126115   5.135   0.452  18.671  0.6911 -0.1172  0.3542
  640TIP3    H226116   5.228   0.342  18.717  0.1351 -1.0511 -0.6939
  641TIP3   OH226117   1.313   7.175  19.010  0.2203  0.1203  0.1794
  641TIP3    H126118   1.356   7.259  18.995  0.0251  0.4586  1.4261
  641TIP3    H226119   1.220   7.196  19.014 -0.0876 -0.5417 -2.0079
  642TIP3   OH226120   3.170   3.216  19.136 -0.2213 -0.9960  0.2669
  642TIP3    H126121   3.122   3.138  19.164 -0.9833 -0.5163  0.3396
  642TIP3    H226122   3.130   3.287  19.186  0.5000 -0.5680  0.2369
  643TIP3   OH226123   4.590   2.291  18.194  0.7274 -0.6832  0.7912
  643TIP3    H126124   4.672   2.257  18.159  0.2236  0.2003 -1.4349
  643TIP3    H226125   4.530   2.216  18.191  0.6539 -0.6025 -0.4998
  644TIP3   OH226126   6.645   2.367  19.438  0.0496 -0.6569 -0.5042
  644TIP3    H126127   6.659   2.445  19.384 -0.7169 -0.2517 -0.1221
  644TIP3    H226128   6.711   2.374  19.507 -1.5446  0.9385  0.9424
  645TIP3   OH226129   0.646   1.359  18.110 -0.5088 -0.6179 -0.0645
  645TIP3    H126130   0.664   1.391  18.022 -2.7490  2.6870  0.4697
  645TIP3    H226131   0.552   1.343  18.111 -0.3789 -1.4661  1.4880
  646TIP3   OH226132   7.493   7.479  18.914 -0.2405 -0.3030  0.1077
  646TIP3    H126133   7.544   7.475  18.834 -1.9477  1.4226 -1.1589
  646TIP3    H226134   7.434   7.554  18.902 -0.8604 -0.2336  2.7966
  647TIP3   OH226135   2.128   3.840  18.653 -0.0410 -0.4561  0.0435
  647TIP3    H126136   2.130   3.876  18.564  0.0683 -0.2839  0.1154
  647TIP3    H226137   2.073   3.901  18.702 -0.4569 -0.7894 -0.0098
  648TIP3   OH226138   3.946   1.652  17.391  0.2568 -0.5851 -0.3260
  648TIP3    H126139   3.852   1.638  17.390  0.1666 -0.0391  0.0025
  648TIP3    H226140   3.963   1.703  17.312  0.2633 -0.6081 -0.3386
  649TIP3   OH226141   5.217   4.923  18.044 -0.2181 -0.7772  0.0159
  649TIP3    H126142   5.259   5.003  18.076 -1.8084 -0.7130  2.2004
  649TIP3    H226143   5.137   4.952  18.002  0.4128 -1.0958 -1.4657
  650TIP3   OH226144   0.856   2.961  17.538 -0.1767  0.1089 -0.2463
  650TIP3    H126145   0.947   2.990  17.529  0.4647 -1.3261  1.1342
  650TIP3    H226146   0.815   3.028  17.593  0.3367  0.2044  0.0291
  651TIP3   OH226147   4.995   3.554  17.796  0.1061 -0.1513 -0.3663
  651TIP3    H126148   4.987   3.458  17.797  1.9076 -0.3737 -1.6893
  651TIP3    H226149   5.014   3.577  17.887  0.1293 -1.0989 -0.1199
  652TIP3   OH226150   6.614   2.221  17.550  0.1985 -0.0378  0.1528
  652TIP3    H126151   6.533   2.246  17.504  0.4591 -0.8714 -0.7909
  652TIP3    H226152   6.683   2.238  17.486  0.7513  0.3601  0.8395
  653TIP3   OH226153   4.894   5.463  18.096  0.7175  0.0818  0.3494
  653TIP3    H126154   4.869   5.543  18.141 -0.0108 -0.4556  0.9149
  653TIP3    H226155   4.989   5.471  18.084  0.6356  1.0735  0.2874
  654TIP3   OH226156   2.177   6.502  17.892  0.2761 -0.8097 -0.5374
  654TIP3    H126157   2.164   6.555  17.971 -1.0142 -1.7605 -0.0827
  654TIP3    H226158   2.270   6.477  17.896  0.2880 -0.6672  0.5674
  655TIP3   OH226159   0.998   5.511  19.223 -0.5475 -0.4072  0.1465
  655TIP3    H126160   0.919   5.484  19.176  0.5059 -0.0946 -1.9414
  655TIP3    H226161   1.069   5.466  19.178  0.6949  1.3421  0.2378
  656TIP3   OH226162   1.343   6.509  18.308  0.1865  0.4348 -0.3124
  656TIP3    H126163   1.285   6.584  18.315 -1.9721 -0.9864 -1.6934
  656TIP3    H226164   1.360   6.501  18.214  0.7296 -0.5399 -0.1426
  657TIP3   OH226165   4.463   3.956  19.163 -0.0636 -0.0570  0.0145
  657TIP3    H126166   4.445   3.914  19.079  0.1819 -0.1308 -0.0017
  657TIP3    H226167   4.458   4.050  19.144 -0.0837 -0.0743 -0.0664
  658TIP3   OH226168   1.245   7.008  18.182  0.1849 -0.2932 -0.1370
  658TIP3    H126169   1.322   6.986  18.236  1.1785 -0.7277 -1.6776
  658TIP3    H226170   1.280   7.020  18.094 -1.3140  1.0942 -0.5843
  659TIP3   OH226171   5.891   1.562  18.266 -0.2420 -0.0890 -0.2850
  659TIP3    H126172   5.981   1.587  18.244  0.1484 -0.9324  0.2969
  659TIP3    H226173   5.896   1.468  18.283 -1.3675 -0.2681 -0.8735
  660TIP3   OH226174   5.482   5.167  16.592 -0.2257 -0.1086 -0.3135
  660TIP3    H126175   5.563   5.120  16.574 -0.8017 -0.7781 -1.2175
  660TIP3    H226176   5.505   5.259  16.578  0.3755 -0.2917 -0.5738
  661TIP3   OH226177   6.588   5.263  17.422  0.0998  0.5591  0.0596
  661TIP3    H126178   6.546   5.180  17.442 -0.1150  0.0336 -2.3467
  661TIP3    H226179   6.674   5.258  17.464 -0.1940 -0.5588  0.5439
  662TIP3   OH226180   4.837   6.920  19.197  0.1097  0.5727 -0.0754
  662TIP3    H126181   4.808   6.909  19.106 -0.4693  1.1207  0.0366
  662TIP3    H226182   4.916   6.974  19.190  0.2029  0.4133 -0.2702
  663TIP3   OH226183   4.164   4.081  19.144  0.0787 -0.1963 -0.0619
  663TIP3    H126184   4.117   4.045  19.220 -0.9337 -1.3401 -1.1954
  663TIP3    H226185   4.131   4.031  19.070  2.0903 -0.0745 -1.0907
  664TIP3   OH226186   6.294   3.188  17.787 -0.1601 -0.2296 -0.1226
  664TIP3    H126187   6.348   3.203  17.864 -1.3375  0.6707  0.5404
  664TIP3    H226188   6.357   3.184  17.714  0.8937 -0.4244  0.7755
  665TIP3   OH226189   5.608   5.251  17.282  0.2339  0.2217  0.2646
  665TIP3    H126190   5.560   5.175  17.315 -0.9771  1.0013  0.3825
  665TIP3    H226191   5.594   5.250  17.187  1.6793 -0.6562  0.0367
  666TIP3   OH226192   7.046   6.767  18.866  0.1473  0.5110 -0.1297
  666TIP3    H126193   7.080   6.798  18.783 -1.8575  0.0407 -1.2074
  666TIP3    H226194   6.990   6.838  18.898 -0.9349 -0.1878 -0.3911
  667TIP3   OH226195   6.948   6.713  17.159  0.6096  0.0974  0.3964
  667TIP3    H126196   7.011   6.785  17.147 -1.1402  1.5100 -0.9071
  667TIP3    H226197   6.890   6.719  17.083 -0.7370 -1.5330  1.2202
  668TIP3   OH226198   4.830   6.721  17.221  0.0384  0.3172  0.3226
  668TIP3    H126199   4.819   6.742  17.128  1.1410 -0.6694 -0.0497
  668TIP3    H226200   4.754   6.666  17.242 -0.9745  1.6861  0.4042
  669TIP3   OH226201   3.221   1.360  18.993 -0.4662 -0.0400 -0.2897
  669TIP3    H126202   3.239   1.362  18.899  1.1588 -0.7994 -0.0311
  669TIP3    H226203   3.277   1.428  19.030  1.4284 -1.9091  0.4581
  670TIP3   OH226204   4.506   5.477  17.845  0.4517  0.1215  0.4015
  670TIP3    H126205   4.432   5.430  17.884  0.1046  0.2562 -0.0939
  670TIP3    H226206   4.575   5.411  17.839 -0.2585 -0.5389 -0.9540
  671TIP3   OH226207   7.311   6.396  17.611  0.1782  1.2609 -0.2400
  671TIP3    H126208   7.323   6.351  17.694 -0.0213  1.2159 -0.2352
  671TIP3    H226209   7.273   6.330  17.553 -1.0271  1.6794  0.0396
  672TIP3   OH226210   6.253   2.847  18.240  0.4362  0.1700  0.8028
  672TIP3    H126211   6.190   2.864  18.309  0.9827 -1.0294  1.6365
  672TIP3    H226212   6.204   2.801  18.172  0.3017 -0.3378  1.2396
  673TIP3   OH226213   0.211   7.617  19.394 -0.2191  0.1811 -0.0423
  673TIP3    H126214   0.167   7.535  19.416 -0.8919  0.5440  0.0080
  673TIP3    H226215   0.160   7.684  19.440  0.2757  0.6348 -0.1425
  674TIP3   OH226216   0.618   4.601  19.610 -0.0211 -0.0067  0.0852
  674TIP3    H126217   0.698   4.560  19.577 -0.4202 -1.1956  0.5723
  674TIP3    H226218   0.649   4.667  19.672  0.6011 -0.1326 -0.0821
  675TIP3   OH226219   2.857   3.872  18.917 -0.5649 -0.3352  0.1386
  675TIP3    H126220   2.858   3.782  18.885 -1.9805 -0.3980  0.2096
  675TIP3    H226221   2.888   3.865  19.008  0.6532 -0.5368 -0.2645
  676TIP3   OH226222   3.463   4.447  18.539 -0.0159  0.6286  0.4274
  676TIP3    H126223   3.413   4.466  18.460  1.2220  1.6627 -0.1607
  676TIP3    H226224   3.555   4.457  18.512  0.5819 -1.7839  1.2986
  677TIP3   OH226225   6.826   5.013  18.123 -0.0564 -0.5015 -0.6112
  677TIP3    H126226   6.864   5.100  18.114 -1.7753  0.3222 -0.2520
  677TIP3    H226227   6.896   4.960  18.162  0.2366  1.3392  1.5301
  678TIP3   OH226228   0.132   3.954  17.430 -0.7437  0.2511 -0.9927
  678TIP3    H126229   0.155   3.958  17.523 -2.8893  3.2396 -0.4195
  678TIP3    H226230   0.141   3.862  17.407  2.3448 -0.2382  1.4329
  679TIP3   OH226231   0.409   6.118  18.106 -0.2948 -0.6109  0.1599
  679TIP3    H126232   0.338   6.132  18.168 -1.3481  1.5825 -1.4320
  679TIP3    H226233   0.370   6.067  18.035 -0.4641  0.9608 -0.9213
  680TIP3   OH226234   5.368   6.648  18.886  0.1234  0.0421  0.3906
  680TIP3    H126235   5.341   6.732  18.924 -1.6974 -0.2500 -0.1235
  680TIP3    H226236   5.343   6.656  18.794  2.5658 -0.0257 -0.3283
  681TIP3   OH226237   6.070   6.062  18.995 -0.9951 -0.1710 -0.1902
  681TIP3    H126238   6.005   6.058  19.064 -0.7388 -1.9035 -0.0208
  681TIP3    H226239   6.154   6.044  19.038 -0.5377  0.7996 -0.6172
  682TIP3   OH226240   1.456   0.335  18.295  0.5341  0.4527 -0.1674
  682TIP3    H126241   1.410   0.282  18.360  1.4999 -0.8330 -0.4969
  682TIP3    H226242   1.549   0.314  18.309  0.8512  1.2162 -1.0501
  683TIP3   OH226243   3.738   5.893  17.716 -0.2287 -0.2938  0.2936
  683TIP3    H126244   3.790   5.918  17.639  3.3904 -0.4592  2.4441
  683TIP3    H226245   3.732   5.797  17.710  2.0920 -0.5792  1.2101
  684TIP3   OH226246   6.550   6.059  17.394 -0.3561  0.0796 -0.1087
  684TIP3    H126247   6.484   6.127  17.407 -0.9708 -0.7623  1.4676
  684TIP3    H226248   6.564   6.056  17.300 -1.7966  0.9993 -0.3775
  685TIP3   OH226249   3.473   7.384  18.321  0.2019 -0.4598  0.5296
  685TIP3    H126250   3.419   7.309  18.346 -0.2234 -0.4717 -0.3671
  685TIP3    H226251   3.498   7.365  18.230 -1.6031  1.4337 -0.4358
  686TIP3   OH226252   7.637   4.173  19.382  0.0241  0.1477  0.3048
  686TIP3    H126253   7.693   4.151  19.308 -0.1862 -0.4700  0.3211
  686TIP3    H226254   7.647   4.099  19.443 -0.4761  0.2314  0.4952
  687TIP3   OH226255   2.386   0.465  18.807  0.1977 -0.2781  0.3001
  687TIP3    H126256   2.346   0.550  18.820 -1.0600 -0.9676  1.1506
  687TIP3    H226257   2.403   0.461  18.713 -0.2912  0.6691  0.1583
  688TIP3   OH226258   4.940   0.190  17.631 -0.2130 -0.0386  0.2722
  688TIP3    H126259   4.972   0.165  17.545 -0.8125 -0.6283  0.2130
  688TIP3    H226260   4.967   0.118  17.688 -2.0080 -0.9083  0.0905
  689TIP3   OH226261   3.252   1.453  18.738  0.4282 -0.5831  0.7865
  689TIP3    H126262   3.329   1.497  18.703  0.1422 -0.7064 -0.0043
  689TIP3    H226263   3.192   1.524  18.761  0.9110 -0.4702  1.7443
  690TIP3   OH226264   0.625   0.395  17.577  0.9559 -0.3259  0.4893
  690TIP3    H126265   0.691   0.432  17.635 -1.5028  0.9518  2.6834
  690TIP3    H226266   0.557   0.463  17.572 -0.6039 -1.8918 -0.9268
  691TIP3   OH226267   6.190   7.342  16.519  0.3984 -0.4422 -0.0462
  691TIP3    H126268   6.165   7.256  16.552  0.0010 -0.0234  0.7685
  691TIP3    H226269   6.275   7.360  16.559  0.0715 -0.0796  0.4956
  692TIP3   OH226270   6.245   5.492  18.019 -0.4353  0.6607 -0.3486
  692TIP3    H126271   6.276   5.423  18.078  2.5617  3.1635  1.2842
  692TIP3    H226272   6.253   5.453  17.932 -1.6577 -1.9666  0.6054
  693TIP3   OH226273   5.292   1.889  18.246 -0.3998  0.9213 -0.0198
  693TIP3    H126274   5.264   1.937  18.323 -2.7394 -0.9578  0.4014
  693TIP3    H226275   5.248   1.934  18.173 -2.8949 -0.6415  0.4089
  694TIP3   OH226276   5.983   4.918  16.963 -0.1034 -0.0001 -0.1841
  694TIP3    H126277   6.062   4.942  16.915  0.4181 -1.2420  0.0085
  694TIP3    H226278   5.991   4.823  16.976 -2.5690 -0.5358 -1.8898
  695TIP3   OH226279   0.246   1.133  19.671  0.1893  0.0846 -0.1031
  695TIP3    H126280   0.152   1.134  19.654 -0.0255 -2.3682  0.5151
  695TIP3    H226281   0.255   1.161  19.762 -0.0694 -0.6048  0.1438
  696TIP3   OH226282   1.907   0.638  17.483 -0.0075  0.1436 -0.1593
  696TIP3    H126283   2.000   0.654  17.466 -0.2754  0.4844 -1.4217
  696TIP3    H226284   1.904   0.602  17.572  1.4072 -0.7306 -0.4479
  697TIP3   OH226285   1.794   3.611  17.558  0.4142  0.0332  0.3494
  697TIP3    H126286   1.854   3.546  17.594  0.4112 -1.0895 -1.5985
  697TIP3    H226287   1.783   3.675  17.629  1.8278 -1.1206  1.6604
  698TIP3   OH226288   6.501   0.963  17.041 -0.2834 -0.1177 -0.3681
  698TIP3    H126289   6.520   0.869  17.036 -0.5024 -0.2149  0.4451
  698TIP3    H226290   6.454   0.982  16.961  2.6481  0.0159 -2.2222
  699TIP3   OH226291   4.562   7.524  18.009  0.5508 -0.5550 -0.3196
  699TIP3    H126292   4.598   7.442  17.977 -1.2673 -1.6285  0.2746
  699TIP3    H226293   4.624   7.552  18.077  0.9712 -1.6603 -0.2316
  700TIP3   OH226294   6.205   6.035  18.194 -0.1912  0.0026  0.2720
  700TIP3    H126295   6.262   5.981  18.249 -0.0215 -1.8581 -1.5783
  700TIP3    H226296   6.247   6.032  18.107 -1.6836  0.8344 -0.5103
  701TIP3   OH226297   1.831   5.609  16.860  0.4382 -0.2020 -0.5335
  701TIP3    H126298   1.799   5.646  16.942  0.9759 -0.6333 -0.1277
  701TIP3    H226299   1.758   5.620  16.799  0.2351  0.6337 -0.1564
  702TIP3   OH226300   7.353   3.660  17.272  0.2379  0.1001  0.3441
  702TIP3    H126301   7.310   3.702  17.197  0.4420 -0.1077  0.1092
  702TIP3    H226302   7.289   3.666  17.343 -0.6610 -1.2729 -0.3212
  703TIP3   OH226303   7.459   5.799  18.747 -0.5301  0.2140  0.2862
  703TIP3    H126304   7.493   5.711  18.730 -1.5021 -0.0958 -0.1405
  703TIP3    H226305   7.365   5.786  18.759 -0.8786  1.3476 -1.0530
  704TIP3   OH226306   3.542   4.672  18.693  1.2009  0.7841 -0.3826
  704TIP3    H126307   3.504   4.604  18.637  0.4233  0.5938  0.3582
  704TIP3    H226308   3.520   4.754  18.650  0.6437  0.6371 -0.3862
  705TIP3   OH226309   1.936   5.250  18.965  0.0525 -0.2154 -0.4210
  705TIP3    H126310   2.013   5.235  18.910 -0.7674  1.2451 -2.0880
  705TIP3    H226311   1.960   5.326  19.018 -0.4026  0.6014 -1.3516
  706TIP3   OH226312   3.352   3.342  18.736 -0.1920 -0.1504  0.2974
  706TIP3    H126313   3.426   3.333  18.797 -0.7258  1.4199  1.2293
  706TIP3    H226314   3.275   3.324  18.789 -0.5100 -2.4009 -0.8129
  707TIP3   OH226315   0.773   5.295  18.624 -0.3367  0.3127 -0.6397
  707TIP3    H126316   0.733   5.224  18.574  0.2060  0.8197 -1.8400
  707TIP3    H226317   0.707   5.319  18.689 -0.9491 -0.5613 -0.9257
  708TIP3   OH226318   5.155   6.263  17.409  0.3832 -0.1556 -0.2363
  708TIP3    H126319   5.097   6.254  17.333  0.1720  0.8685 -0.2044
  708TIP3    H226320   5.095   6.274  17.483  0.6037 -0.2658 -0.0411
  709TIP3   OH226321   3.521   7.502  17.743  0.0274  0.3857  0.1820
  709TIP3    H126322   3.506   7.596  17.752 -1.4733  0.0609  1.6426
  709TIP3    H226323   3.612   7.490  17.770  0.1493  1.3801  0.2502
  710TIP3   OH226324   2.129   3.520  16.484 -0.2564  0.3949 -0.6551
  710TIP3    H126325   2.216   3.559  16.495 -0.5351  1.3659 -1.6526
  710TIP3    H226326   2.118   3.516  16.389 -1.2174  0.0811 -0.5334
  711TIP3   OH226327   2.002   4.725  17.666  0.1282  0.7256 -0.1874
  711TIP3    H126328   1.919   4.686  17.639  0.2713  0.1800  0.1444
  711TIP3    H226329   2.064   4.652  17.664 -0.0403  0.4068  2.4761
  712TIP3   OH226330   1.130   5.135  18.323  0.3271  0.0987  0.5800
  712TIP3    H126331   1.214   5.168  18.353  0.0730  1.5538 -0.2451
  712TIP3    H226332   1.073   5.212  18.318 -0.5238 -0.5661 -0.6439
  713TIP3   OH226333   2.698   6.594  18.062 -0.0627 -0.2805  0.3069
  713TIP3    H126334   2.780   6.636  18.089  0.4049 -1.5234  0.8680
  713TIP3    H226335   2.644   6.594  18.141  0.4363 -1.8641  0.6827
  714TIP3   OH226336   1.259   2.637  17.009 -1.3577 -0.0351 -0.2149
  714TIP3    H126337   1.259   2.671  17.098 -0.0110  0.5338 -0.3979
  714TIP3    H226338   1.201   2.695  16.960 -1.3011  0.2751  0.0870
  715TIP3   OH226339   5.388   6.287  18.037  0.4725  0.6466 -0.1409
  715TIP3    H126340   5.433   6.317  18.116 -1.1516  1.3464  0.5691
  715TIP3    H226341   5.458   6.260  17.977  1.7367 -1.1607  1.9921
  716TIP3   OH226342   4.370   4.249  17.217 -0.0508  0.3331 -0.2933
  716TIP3    H126343   4.392   4.339  17.240 -0.7785  0.8684 -1.6359
  716TIP3    H226344   4.291   4.255  17.164  0.0623 -1.0645 -0.6724
  717TIP3   OH226345   7.405   3.405  17.504 -0.4098  0.2284 -0.5235
  717TIP3    H126346   7.430   3.475  17.564 -1.4165  0.4170 -0.3203
  717TIP3    H226347   7.486   3.385  17.456 -0.0084  1.2110 -0.2720
  718TIP3   OH226348   1.274   4.382  18.549 -0.1330  0.0290 -0.1765
  718TIP3    H126349   1.279   4.325  18.625  0.7495  0.7542  0.3255
  718TIP3    H226350   1.215   4.337  18.489 -1.1126 -0.3928  1.0659
  719TIP3   OH226351   4.838   1.332  18.335  0.1567 -0.1156  0.3735
  719TIP3    H126352   4.929   1.321  18.361  0.3542 -1.4517 -0.7819
  719TIP3    H226353   4.842   1.377  18.251 -0.2550  0.0550  0.4418
  720TIP3   OH226354   0.946   6.031  17.300  0.6662  0.0791  0.2740
  720TIP3    H126355   0.876   6.092  17.278  1.2144  0.7123  0.2689
  720TIP3    H226356   0.987   6.068  17.378  0.7142 -0.5218  0.5362
  721TIP3   OH226357   4.870   4.704  19.280 -0.0855 -0.1848 -0.7552
  721TIP3    H126358   4.907   4.623  19.245 -1.0967 -0.7354 -0.6054
  721TIP3    H226359   4.800   4.675  19.338 -0.9612  0.8270 -1.2729
  722TIP3   OH226360   2.531   5.267  18.299 -0.1219  0.2096 -0.4548
  722TIP3    H126361   2.489   5.346  18.334 -0.9830 -0.3789 -0.1145
  722TIP3    H226362   2.501   5.263  18.208 -0.7916 -0.1895 -0.2224
  723TIP3   OH226363   3.458   4.290  17.760  0.3624 -0.3590 -0.1456
  723TIP3    H126364   3.431   4.316  17.849 -0.8246  0.4837 -0.7216
  723TIP3    H226365   3.547   4.325  17.752 -0.2856  1.4330 -0.0007
  724TIP3   OH226366   1.653   5.260  18.274  0.3489 -0.2109  0.7850
  724TIP3    H126367   1.653   5.254  18.179  1.8315  0.5530  0.7111
  724TIP3    H226368   1.690   5.346  18.294  1.2941 -0.8694  2.0537
  725TIP3   OH226369   3.332   4.801  18.076 -0.0893 -0.3138  0.2035
  725TIP3    H126370   3.424   4.784  18.053  1.3249  1.9917  3.3302
  725TIP3    H226371   3.321   4.761  18.162 -2.0494 -0.5530 -0.1236
  726TIP3   OH226372   7.315   6.124  18.564  0.7833 -0.2712 -0.0120
  726TIP3    H126373   7.247   6.111  18.631  2.0143 -0.9101  1.1584
  726TIP3    H226374   7.269   6.111  18.481 -0.2795 -1.9739  0.7726
  727TIP3   OH226375   5.401   7.517  17.378  0.4044 -0.3449  0.4200
  727TIP3    H126376   5.362   7.594  17.419  1.1268  0.7824 -0.8935
  727TIP3    H226377   5.407   7.452  17.448 -1.4246  0.3264  1.2483
  728TIP3   OH226378   3.432   1.589  18.600  0.4487 -0.2835 -0.0439
  728TIP3    H126379   3.521   1.619  18.613 -0.0950  1.0206  0.8342
  728TIP3    H226380   3.399   1.641  18.527  0.1834 -0.2677  0.0866
  729TIP3   OH226381   2.058   6.202  17.323 -0.2629 -0.2425 -0.3188
  729TIP3    H126382   2.110   6.124  17.342 -0.2629 -0.0151  0.7189
  729TIP3    H226383   1.979   6.170  17.282 -0.5171 -0.8522  0.6148
  730TIP3   OH226384   6.007   2.050  18.190  0.6327  0.0092 -0.1285
  730TIP3    H126385   5.934   2.020  18.136 -0.0440  0.5779  0.4422
  730TIP3    H226386   6.009   1.989  18.264 -1.1416  1.6197  1.3608
  731TIP3   OH226387   1.495   1.862  16.841 -0.5658 -0.1735 -0.3967
  731TIP3    H126388   1.465   1.844  16.931 -0.0136  0.6522 -0.0368
  731TIP3    H226389   1.549   1.787  16.819  1.7725  0.9473  1.1070
  732TIP3   OH226390   6.066   5.970  18.734 -0.1488 -0.6786 -0.1504
  732TIP3    H126391   6.068   5.997  18.826 -1.1290  0.9402 -0.5602
  732TIP3    H226392   6.027   5.883  18.735  1.3565 -1.3907  1.0857
  733TIP3   OH226393   2.930   6.229  18.312 -0.0798 -0.1053 -0.1984
  733TIP3    H126394   2.846   6.271  18.329 -1.8865 -3.7967  1.2548
  733TIP3    H226395   2.971   6.223  18.399  0.5329 -0.4925 -0.5078
  734TIP3   OH226396   5.732   2.390  18.195 -0.5712 -0.3075  0.4774
  734TIP3    H126397   5.685   2.472  18.184 -0.9328 -0.7507 -1.9358
  734TIP3    H226398   5.823   2.416  18.208 -0.6784  0.5046 -0.2834
  735TIP3   OH226399   2.214   1.421  17.577  0.3658  0.3516  0.4246
  735TIP3    H126400   2.248   1.509  17.563 -0.9556  0.7974 -0.0989
  735TIP3    H226401   2.166   1.400  17.497 -1.5227  0.2063  1.5352
  736TIP3   OH226402   5.166   1.696  18.556  0.0086 -0.3037  0.0860
  736TIP3    H126403   5.175   1.693  18.651 -0.0698  1.1159  0.1541
  736TIP3    H226404   5.123   1.780  18.538  0.8217 -0.1457 -1.2642
  737TIP3   OH226405   3.830   2.326  19.675 -0.5559 -0.4190  0.4702
  737TIP3    H126406   3.830   2.365  19.763 -0.7701  1.2366 -0.2426
  737TIP3    H226407   3.749   2.275  19.672 -1.3026  0.7007  0.7459
  738TIP3   OH226408   6.458   0.172  18.222 -0.0940 -0.3986  0.3731
  738TIP3    H126409   6.466   0.101  18.158  0.0960 -0.4219  0.4230
  738TIP3    H226410   6.473   0.130  18.307 -0.4947 -0.3978  0.4500
  739TIP3   OH226411   2.997   2.779  19.349  0.2737 -0.1020 -0.1224
  739TIP3    H126412   2.918   2.780  19.403 -0.8417 -0.4120 -1.7072
  739TIP3    H226413   3.007   2.687  19.322  0.4371  0.1552 -0.9677
  740TIP3   OH226414   2.949   1.128  18.270 -0.0337  0.2497 -0.3804
  740TIP3    H126415   2.861   1.151  18.240 -0.8542  0.5938  2.0769
  740TIP3    H226416   3.000   1.208  18.256  0.1162 -0.1422 -2.3932
  741TIP3   OH226417   7.444   1.861  16.682  0.3143  0.0145 -0.5153
  741TIP3    H126418   7.458   1.779  16.633  2.4465 -1.7634  2.6929
  741TIP3    H226419   7.517   1.917  16.656 -0.4173  0.4288 -1.7481
  742TIP3   OH226420   7.023   2.294  18.560  0.1949 -0.5632 -0.3171
  742TIP3    H126421   7.031   2.220  18.620 -2.4536 -0.6926 -0.0242
  742TIP3    H226422   7.011   2.370  18.618 -1.5968 -0.5818 -0.6152
  743TIP3   OH226423   0.885   0.780  17.513  0.1619 -0.1766 -0.5668
  743TIP3    H126424   0.964   0.831  17.524 -0.0687  0.1339 -0.3551
  743TIP3    H226425   0.837   0.824  17.443 -0.8399  0.9104  0.7462
  744TIP3   OH226426   6.580   7.553  18.472 -0.2107 -0.0021  0.3498
  744TIP3    H126427   6.613   7.493  18.405  0.7449 -0.9346  1.6133
  744TIP3    H226428   6.624   7.636  18.453 -0.6211 -0.0057 -0.6862
  745TIP3   OH226429   2.433   3.242  18.805 -0.3843  0.4176 -0.4917
  745TIP3    H126430   2.371   3.209  18.870  0.8630 -0.7388  0.1600
  745TIP3    H226431   2.443   3.171  18.742  2.7241 -0.8766  1.2034
  746TIP3   OH226432   6.180   5.154  18.020 -0.0268  0.6675  0.8867
  746TIP3    H126433   6.268   5.192  18.014  1.3036 -2.3970 -1.6793
  746TIP3    H226434   6.188   5.085  18.085 -0.6007  0.4870  0.7704
  747TIP3   OH226435   6.389   4.694  18.782 -0.1632  0.4278  0.1293
  747TIP3    H126436   6.402   4.779  18.741  2.8799 -0.4146 -0.9007
  747TIP3    H226437   6.317   4.654  18.733 -0.8258  1.8956 -0.1556
  748TIP3   OH226438   4.731   3.691  17.933 -0.2285  0.0639  0.3537
  748TIP3    H126439   4.651   3.744  17.936  0.0694  0.5110  0.6055
  748TIP3    H226440   4.734   3.648  18.018  0.8544  1.6594  1.1774
  749TIP3   OH226441   3.682   6.861  18.428  0.7285  0.4008  0.0636
  749TIP3    H126442   3.624   6.785  18.436 -1.6278  1.8784 -1.6277
  749TIP3    H226443   3.649   6.909  18.352  3.5748  1.9420 -0.3589
  750TIP3   OH226444   4.769   3.898  17.124  0.1470 -0.3439  0.0229
  750TIP3    H126445   4.770   3.994  17.124 -0.0472 -0.3108 -1.5705
  750TIP3    H226446   4.859   3.872  17.140 -0.0744  0.0508  2.1733
  751TIP3   OH226447   5.291   6.620  18.293  0.0744 -0.4056  0.6779
  751TIP3    H126448   5.340   6.697  18.323 -0.4674  0.1324  0.2080
  751TIP3    H226449   5.357   6.564  18.252  0.2691  0.4617 -0.2424
  752TIP3   OH226450   3.291   1.770  18.337 -0.0102 -0.0321 -0.2869
  752TIP3    H126451   3.350   1.806  18.271  1.3408 -1.2047  0.2390
  752TIP3    H226452   3.274   1.843  18.397  0.8637  0.3325 -0.4787
  753TIP3   OH226453   3.928   5.508  19.386  0.2918 -0.1136 -0.6730
  753TIP3    H126454   3.878   5.441  19.339  0.1548 -0.2446 -0.3393
  753TIP3    H226455   4.019   5.491  19.360  0.1440  0.2687 -1.4586
  754TIP3   OH226456   5.044   3.518  17.111 -0.0790 -0.4188 -0.7159
  754TIP3    H126457   5.090   3.522  17.028 -2.2538 -0.1918 -1.9799
  754TIP3    H226458   5.045   3.425  17.135  0.8350 -0.4376 -0.8094
  755TIP3   OH226459   5.443   2.493  17.409 -0.3297 -0.1150 -0.4602
  755TIP3    H126460   5.400   2.425  17.359 -2.7043  1.0763 -0.1537
  755TIP3    H226461   5.430   2.573  17.358  1.0389  0.4019 -0.0536
  756TIP3   OH226462   5.972   6.319  18.871 -0.0847 -0.1536  0.2588
  756TIP3    H126463   5.992   6.233  18.909  0.0509  0.2198  1.0544
  756TIP3    H226464   5.876   6.322  18.869 -0.1729 -1.5247 -2.5970
  757TIP3   OH226465   1.159   3.435  17.197  0.2880  0.0122 -0.0246
  757TIP3    H126466   1.074   3.430  17.153  0.1994  0.7616  0.0473
  757TIP3    H226467   1.180   3.344  17.219 -0.6645 -0.1460  0.2874
  758TIP3   OH226468   7.540   5.149  17.658 -0.2150 -0.6801 -0.5015
  758TIP3    H126469   7.615   5.099  17.689 -0.4389 -0.9529 -0.3932
  758TIP3    H226470   7.506   5.193  17.736 -0.2052 -0.6057 -0.5380
  759TIP3   OH226471   3.189   1.647  19.232  0.5315 -0.1506 -0.4352
  759TIP3    H126472   3.266   1.621  19.183  1.1128  0.2717  0.2303
  759TIP3    H226473   3.223   1.700  19.304 -0.4544  0.9008 -0.7023
  760TIP3   OH226474   5.081   6.324  17.676  0.0834  0.1600  0.3914
  760TIP3    H126475   5.126   6.408  17.674 -0.6170  0.6558  2.7078
  760TIP3    H226476   5.008   6.337  17.736 -2.4277 -0.9933 -2.1766
  761TIP3   OH226477   1.486   7.002  17.674  0.1980 -0.3923  0.0381
  761TIP3    H126478   1.440   6.929  17.632 -0.8356  0.0367  0.3822
  761TIP3    H226479   1.577   6.992  17.647  0.0171 -1.6260 -0.1708
  762TIP3   OH226480   5.174   7.381  18.045 -0.9806  0.4193  0.1277
  762TIP3    H126481   5.122   7.392  17.965 -1.1606  0.7055  0.2803
  762TIP3    H226482   5.168   7.288  18.065 -0.8833  0.3322 -0.2247
  763TIP3   OH226483   5.593   7.566  16.974  0.5675  0.1595  0.2507
  763TIP3    H126484   5.589   7.471  16.966 -2.0473  0.2749 -0.6713
  763TIP3    H226485   5.561   7.584  17.062 -0.7776  0.2199 -0.2235
  764TIP3   OH226486   7.606   4.449  17.953  0.0910  0.1677  0.5289
  764TIP3    H126487   7.648   4.534  17.965  3.1759 -1.4132  2.1538
  764TIP3    H226488   7.559   4.433  18.035 -0.3738  0.2359  0.2782
  765TIP3   OH226489   7.535   5.874  17.356 -0.0795 -0.2237 -0.1678
  765TIP3    H126490   7.631   5.869  17.353 -0.0759  0.1330 -0.8301
  765TIP3    H226491   7.517   5.966  17.374 -0.2994 -0.3107  0.0551
  766TIP3   OH226492   4.198   2.686  17.054 -0.2455  0.2973  0.0614
  766TIP3    H126493   4.178   2.629  16.980  1.3250  0.8872 -0.8575
  766TIP3    H226494   4.138   2.657  17.123 -0.1231 -1.8497 -0.6606
  767TIP3   OH226495   3.135   5.056  18.362  0.3275 -0.2531 -0.3490
  767TIP3    H126496   3.179   5.032  18.280  0.3275  1.7696 -0.9804
  767TIP3    H226497   3.074   5.125  18.337 -0.1837 -0.0846  1.2579
  768TIP3   OH226498   5.747   5.696  18.163  0.4519 -0.3405 -0.5536
  768TIP3    H126499   5.720   5.749  18.088 -1.7299 -2.7144 -1.6042
  768TIP3    H226500   5.838   5.673  18.145  0.8205  1.3769 -1.0395
  769TIP3   OH226501   4.215   7.486  16.526  0.4663  0.0769  0.2722
  769TIP3    H126502   4.197   7.420  16.459  0.3354 -0.5740  0.9355
  769TIP3    H226503   4.133   7.533  16.537  0.1271 -0.6311  0.8480
  770TIP3   OH226504   6.767   1.014  16.869 -0.1134  0.1805 -0.2337
  770TIP3    H126505   6.761   0.935  16.814 -0.7865  1.5642 -2.2774
  770TIP3    H226506   6.695   1.069  16.839  2.2124  2.9418 -1.2594
  771TIP3   OH226507   5.046   1.919  18.068 -0.0149 -0.1380  0.3542
  771TIP3    H126508   4.971   1.882  18.021  1.4796 -1.7905 -0.8805
  771TIP3    H226509   5.111   1.936  17.999  1.2413 -0.0528  1.5174
  772TIP3   OH226510   3.721   3.019  17.492 -0.2800 -0.6559  0.2748
  772TIP3    H126511   3.627   3.016  17.473 -0.1194 -3.6039 -0.6111
  772TIP3    H226512   3.730   3.085  17.560 -2.4864  2.2258 -1.9598
  773TIP3   OH226513   2.143   1.364  16.940 -0.3896  0.4778 -0.3579
  773TIP3    H126514   2.159   1.456  16.922 -1.0218  0.7666  0.4951
  773TIP3    H226515   2.048   1.355  16.935 -0.2591 -0.3844 -1.5856
  774TIP3   OH226516   6.432   3.053  18.668 -0.3326  0.4307  0.3235
  774TIP3    H126517   6.443   2.959  18.680 -0.0252  0.3589 -0.4792
  774TIP3    H226518   6.513   3.091  18.701 -0.5685  0.4493  0.9098
  775TIP3   OH226519   5.542   3.148  18.962 -0.5919 -0.1738  0.0365
  775TIP3    H126520   5.563   3.084  19.031 -1.6560 -0.8565 -0.2576
  775TIP3    H226521   5.560   3.232  19.003  0.3281 -0.6254  0.6136
  776TIP3   OH226522   5.660   6.630  18.329  0.0984  0.3452  0.3364
  776TIP3    H126523   5.676   6.638  18.423 -0.3175 -0.4645  0.4908
  776TIP3    H226524   5.745   6.603  18.292 -0.4792 -2.7627  0.9839
  777TIP3   OH226525   7.532   0.028  16.569  0.3283 -0.1369  0.3210
  777TIP3    H126526   7.518  -0.034  16.497  0.9943  0.8494 -0.6891
  777TIP3    H226527   7.444   0.059  16.592  0.0138 -1.2559  0.6687
  778TIP3   OH226528   7.060   5.609  18.540  0.0537 -0.2548 -0.1407
  778TIP3    H126529   7.103   5.524  18.551  2.1149  0.4224 -2.2766
  778TIP3    H226530   7.110   5.669  18.595  0.3559  0.0933 -0.7866
  779TIP3   OH226531   1.039   2.481  17.939 -0.2284  0.5553  0.1011
  779TIP3    H126532   1.022   2.555  17.998 -3.9837  0.1160 -0.1949
  779TIP3    H226533   1.008   2.511  17.854  1.4892 -0.2097 -0.8434
  780TIP3   OH226534   3.797   1.474  19.477 -0.2197 -0.1864  0.0882
  780TIP3    H126535   3.815   1.564  19.450  1.0282 -0.2291  0.6778
  780TIP3    H226536   3.881   1.443  19.512 -0.9358 -1.1814  0.9964
  781TIP3   OH226537   1.740   4.829  16.655 -0.0372  0.1650 -0.0939
  781TIP3    H126538   1.771   4.843  16.565 -1.8710 -0.0060 -0.7982
  781TIP3    H226539   1.733   4.733  16.663 -1.9779  0.2026 -0.6065
  782TIP3   OH226540   4.804   0.633  18.547  0.1168  0.2108  0.3652
  782TIP3    H126541   4.786   0.595  18.461  1.6719  1.8806 -0.7917
  782TIP3    H226542   4.808   0.727  18.531 -0.4468  0.6428  2.4706
  783TIP3   OH226543   7.065   1.701  17.709 -0.0295 -0.2177 -0.4852
  783TIP3    H126544   7.073   1.773  17.647  1.3727  1.6321  1.7029
  783TIP3    H226545   7.148   1.655  17.703 -0.7015 -1.3731 -1.4515
  784TIP3   OH226546   7.609   7.646  17.582 -0.1799  0.0610 -0.6325
  784TIP3    H126547   7.614   7.723  17.639  0.3627 -0.1819 -0.3487
  784TIP3    H226548   7.686   7.594  17.604 -0.0604 -0.1306 -1.4594
  785TIP3   OH226549   0.455   7.207  17.636  0.2112 -0.2976 -0.1204
  785TIP3    H126550   0.373   7.184  17.592 -1.4517  1.8414  1.6410
  785TIP3    H226551   0.451   7.161  17.720 -0.2871  1.5265  0.8987
  786TIP3   OH226552   3.592   2.327  19.425 -0.0692 -0.0126 -1.0387
  786TIP3    H126553   3.506   2.305  19.389  0.0912  0.7618 -1.9122
  786TIP3    H226554   3.640   2.367  19.353  0.4466  1.1104 -0.1215
  787TIP3   OH226555   4.415   1.478  17.630 -0.4176  0.4928 -0.5798
  787TIP3    H126556   4.356   1.477  17.554 -1.1098  1.3792 -0.0618
  787TIP3    H226557   4.484   1.539  17.606  0.6079 -0.9276 -1.3935
  788TIP3   OH226558   4.238   5.095  18.853  0.4891  0.3045  0.3842
  788TIP3    H126559   4.302   5.166  18.847  1.6175 -0.7165 -0.0697
  788TIP3    H226560   4.233   5.059  18.765  0.1568 -0.3769  0.6687
  789TIP3   OH226561   2.202   5.923  17.685  0.3277  0.4697 -0.6982
  789TIP3    H126562   2.128   5.976  17.659  0.0149 -0.7253 -2.4017
  789TIP3    H226563   2.165   5.837  17.704  1.0700  0.3065  0.0990
  790TIP3   OH226564   2.377   7.105  17.980 -0.3033 -0.5782 -0.8753
  790TIP3    H126565   2.394   7.194  17.947 -1.2078 -0.2164 -0.3886
  790TIP3    H226566   2.299   7.114  18.035 -0.3466 -1.6617 -0.7412
  791TIP3   OH226567   1.998   2.429  19.543  0.4902 -0.1719  0.7685
  791TIP3    H126568   1.980   2.410  19.451 -0.4174 -0.5339  1.0131
  791TIP3    H226569   2.092   2.416  19.552  0.2094 -2.8581  0.5216
  792TIP3   OH226570   7.197   5.491  17.462 -0.0419 -0.2084  0.4736
  792TIP3    H126571   7.172   5.406  17.499  0.2345 -0.2928  0.4677
  792TIP3    H226572   7.274   5.472  17.408  0.1970  0.0924  0.7033
  793TIP3   OH226573   7.542   5.160  19.029  0.4506 -0.2757  0.2223
  793TIP3    H126574   7.591   5.209  18.963  0.8814 -0.8758  0.0904
  793TIP3    H226575   7.450   5.174  19.006  0.3095  3.4234  2.2485
  794TIP3   OH226576   1.119   3.040  17.521 -0.1078 -0.3144  0.2551
  794TIP3    H126577   1.142   3.101  17.591  0.2252 -1.5895  1.3139
  794TIP3    H226578   1.192   2.979  17.518 -0.7765 -1.1215 -0.2120
  795TIP3   OH226579   0.020   6.339  17.079 -0.0669  0.7123 -0.2314
  795TIP3    H126580  -0.016   6.252  17.096 -1.0519  1.2250  0.4069
  795TIP3    H226581   0.100   6.343  17.133 -0.7905  0.7071  0.8852
  796TIP3   OH226582   4.276   2.305  17.200  0.1012  0.3826 -0.1668
  796TIP3    H126583   4.203   2.354  17.162 -1.0055 -1.6788 -0.8186
  796TIP3    H226584   4.334   2.288  17.126  0.3213  0.4213 -0.0025
  797TIP3   OH226585   1.520   5.539  16.413 -0.0437 -0.0250  0.1559
  797TIP3    H126586   1.484   5.628  16.415  0.0851  0.0188  0.4640
  797TIP3    H226587   1.462   5.492  16.352  1.6472  1.0467 -2.4458
  798TIP3   OH226588   1.244   2.546  16.669  0.1507 -0.3050 -0.8006
  798TIP3    H126589   1.244   2.495  16.588 -1.2786 -0.5693 -0.6694
  798TIP3    H226590   1.229   2.636  16.641 -2.2481 -0.6265 -0.7799
  799TIP3   OH226591   3.461   5.673  17.202  0.5956  0.6793  0.0030
  799TIP3    H126592   3.443   5.732  17.275  1.9301  1.1888 -0.0606
  799TIP3    H226593   3.385   5.615  17.200  0.0620  1.2936  1.1564
  800TIP3   OH226594   5.509   6.867  18.196  0.0231  0.6683 -0.5207
  800TIP3    H126595   5.508   6.962  18.192 -0.4522  0.7199  0.5872
  800TIP3    H226596   5.574   6.846  18.263 -0.1978  0.2280 -0.4421
  801TIP3   OH226597   1.338   6.153  18.053  0.2292  0.3551 -0.1459
  801TIP3    H126598   1.357   6.089  17.984 -0.0457  2.3449 -2.1909
  801TIP3    H226599   1.424   6.184  18.081  0.3458 -0.5278  0.5166
  802TIP3   OH226600   6.690   2.917  18.162  0.1415  0.4172 -0.0003
  802TIP3    H126601   6.781   2.892  18.180  0.5778  1.8432 -0.0922
  802TIP3    H226602   6.648   2.836  18.134  1.3560 -0.2951  0.1543
  803TIP3   OH226603   0.695   5.627  16.392  0.3863 -0.2822 -0.0048
  803TIP3    H126604   0.755   5.580  16.449  2.9468  2.0611 -0.5599
  803TIP3    H226605   0.714   5.594  16.304 -0.0163 -0.3940 -0.0512
  804TIP3   OH226606   3.380   4.877  17.591  0.1449 -0.0832 -0.1156
  804TIP3    H126607   3.411   4.898  17.679 -0.4710  2.0390 -0.3433
  804TIP3    H226608   3.450   4.824  17.553  1.2587  0.5077  1.0355
  805TIP3   OH226609   2.271   0.968  18.740  0.0893  0.1104 -0.1050
  805TIP3    H126610   2.181   0.956  18.711 -0.7009 -0.6996  2.3964
  805TIP3    H226611   2.268   1.043  18.799  1.1914  0.5083 -0.5383
  806TIP3   OH226612   1.959   6.757  16.959  0.1927  0.2758 -0.2989
  806TIP3    H126613   1.951   6.732  16.866 -2.6870  1.0818 -0.3719
  806TIP3    H226614   1.952   6.852  16.958  0.7518  0.3302  0.7266
  807TIP3   OH226615   2.942   0.980  18.806  0.1113  0.0853 -0.1019
  807TIP3    H126616   2.970   1.067  18.836  0.4050  0.2257 -0.7425
  807TIP3    H226617   2.977   0.975  18.716 -0.2816 -0.5182 -0.2202
  808TIP3   OH226618   6.449   5.252  18.375  0.4612  0.3663  0.2852
  808TIP3    H126619   6.400   5.170  18.382  0.4824  0.1673 -1.4534
  808TIP3    H226620   6.500   5.256  18.456  1.0211 -1.7240  0.1078
  809TIP3   OH226621   1.638   7.318  18.796 -0.0499 -0.7324  0.2109
  809TIP3    H126622   1.618   7.238  18.845  1.4294 -2.3323 -1.6458
  809TIP3    H226623   1.649   7.385  18.864 -1.2120 -2.0764  1.8412
  810TIP3   OH226624   3.289   6.843  18.969  0.2013 -0.0636  0.4532
  810TIP3    H126625   3.354   6.780  18.999  1.6067  0.6328 -0.9485
  810TIP3    H226626   3.302   6.920  19.024 -0.0322 -0.2274  0.7388
  811TIP3   OH226627   3.372   4.754  19.075 -0.4729 -0.8250 -0.6384
  811TIP3    H126628   3.302   4.791  19.022 -0.1218 -0.9340 -1.1890
  811TIP3    H226629   3.411   4.830  19.119 -1.3260 -0.8368  0.1583
  812TIP3   OH226630   5.477   0.690  18.394 -0.3177 -0.6267 -0.6034
  812TIP3    H126631   5.569   0.701  18.372 -0.3295 -1.4509 -1.1225
  812TIP3    H226632   5.445   0.778  18.410  0.0798 -0.1200 -2.3816
  813TIP3   OH226633   0.637   1.885  17.847  0.3227  0.0448 -0.7151
  813TIP3    H126634   0.561   1.827  17.843 -0.0071  0.5002 -1.2931
  813TIP3    H226635   0.604   1.965  17.887  0.5387  0.1802 -0.8065
  814TIP3   OH226636   6.572   1.946  17.559  0.0997 -0.2904 -0.2690
  814TIP3    H126637   6.531   1.972  17.477 -1.7854  1.0002  1.0100
  814TIP3    H226638   6.590   2.028  17.605  1.2630 -0.9759  0.5472
  815TIP3   OH226639   7.670   3.835  17.802  0.0902  0.2434  0.3725
  815TIP3    H126640   7.695   3.923  17.773  1.4707 -0.1268  0.3337
  815TIP3    H226641   7.696   3.832  17.894  0.3802 -0.2328  0.2789
  816TIP3   OH226642   4.414   5.857  16.669 -0.2091 -0.1008  1.0147
  816TIP3    H126643   4.425   5.946  16.702 -0.5877 -0.0316  0.9596
  816TIP3    H226644   4.501   5.832  16.638  0.0650 -0.0246  1.7031
  817TIP3   OH226645   1.763   1.936  19.151 -0.4942 -0.7254 -0.3491
  817TIP3    H126646   1.739   2.027  19.135  0.2611 -0.3716  0.4437
  817TIP3    H226647   1.773   1.898  19.064 -0.7902 -0.0434 -0.6843
  818TIP3   OH226648   6.541   3.994  18.239 -0.0031  0.0371  0.3638
  818TIP3    H126649   6.635   3.992  18.222 -0.3048  1.0599 -1.7638
  818TIP3    H226650   6.521   4.087  18.252 -1.2089  0.4324 -3.1003
  819TIP3   OH226651   3.786   5.491  18.924 -0.1136  0.1001  0.4608
  819TIP3    H126652   3.828   5.517  18.842 -0.3128  1.2691  0.7157
  819TIP3    H226653   3.693   5.487  18.903 -0.3128  1.6970  0.9289
  820TIP3   OH226654   2.401   6.924  17.423  0.2955 -0.1336  0.1248
  820TIP3    H126655   2.323   6.883  17.462  0.2479 -0.3947 -0.2461
  820TIP3    H226656   2.386   7.018  17.435  0.2347 -0.2052  0.6501
  821TIP3   OH226657   3.869   1.003  18.493 -0.1332  0.3122 -0.7311
  821TIP3    H126658   3.793   1.040  18.447 -2.2858 -2.0449  0.6716
  821TIP3    H226659   3.890   0.923  18.445  0.0934 -0.1469  0.1233
  822TIP3   OH226660   5.628   1.769  17.513 -0.2447  0.0314 -0.6592
  822TIP3    H126661   5.593   1.849  17.473 -0.1033  0.5751  0.2866
  822TIP3    H226662   5.567   1.748  17.583  0.7428  0.4120  0.3454
  823TIP3   OH226663   0.835   2.010  19.045 -0.4580  0.0586  0.1007
  823TIP3    H126664   0.873   2.028  18.959 -2.3773 -0.3179 -0.8717
  823TIP3    H226665   0.798   2.094  19.073  2.6550  0.9724  1.9809
  824TIP3   OH226666   4.670   5.492  18.914 -0.1062  0.4632 -0.2577
  824TIP3    H126667   4.682   5.560  18.981  0.2338 -0.1358  0.3051
  824TIP3    H226668   4.588   5.515  18.871 -0.2516  0.9456  0.2648
  825TIP3   OH226669   5.315   1.176  19.175 -0.3366 -0.0877 -0.3876
  825TIP3    H126670   5.304   1.132  19.090 -0.9701 -0.1838 -0.2562
  825TIP3    H226671   5.404   1.212  19.171  0.6623 -2.3291 -0.0696
  826TIP3   OH226672   2.681   7.053  18.546 -0.5230  0.5633 -0.1804
  826TIP3    H126673   2.673   7.130  18.603  0.6608  0.5051  0.0915
  826TIP3    H226674   2.761   7.009  18.576  0.4313  0.8088 -2.2136
  827TIP3   OH226675   7.677   7.471  18.672 -0.5399 -0.0178 -0.7037
  827TIP3    H126676   7.772   7.475  18.680 -0.5423 -0.6696 -0.3082
  827TIP3    H226677   7.658   7.382  18.644 -1.1710 -0.6782  1.6026
  828TIP3   OH226678   3.957   1.635  18.925  0.1781 -0.0849  0.4655
  828TIP3    H126679   4.027   1.637  18.991  1.2077  0.9737 -0.6214
  828TIP3    H226680   3.996   1.589  18.851 -0.6205 -0.3491  0.2074
  829TIP3   OH226681   1.886   5.929  17.812 -0.0704 -0.3380  0.4644
  829TIP3    H126682   1.837   5.851  17.787 -0.2202 -0.3610  0.8283
  829TIP3    H226683   1.913   5.968  17.729  0.9279 -1.3588  0.2819
  830TIP3   OH226684   6.997   5.705  16.918 -0.2935 -0.0975  0.5898
  830TIP3    H126685   7.050   5.637  16.877 -0.2588 -0.9830  2.0391
  830TIP3    H226686   6.938   5.735  16.849  0.9543 -0.2763 -0.5778
  831TIP3   OH226687   2.137   3.573  17.950 -0.1005  0.0305  0.7056
  831TIP3    H126688   2.169   3.621  17.874  0.4582 -1.6092 -0.1582
  831TIP3    H226689   2.055   3.616  17.973 -0.0889  0.8123 -0.5910
  832TIP3   OH226690   0.810   1.750  18.022  0.2862  0.7608 -0.0730
  832TIP3    H126691   0.899   1.781  18.040  0.4762 -0.5015  1.3724
  832TIP3    H226692   0.763   1.829  17.996  1.2494  1.9127  1.4535
  833TIP3   OH226693   5.356   4.232  17.862 -0.0450  0.4425 -0.3499
  833TIP3    H126694   5.331   4.161  17.803 -3.0656  0.9175  0.1863
  833TIP3    H226695   5.319   4.311  17.822  1.5936  1.4443  0.0361
  834TIP3   OH226696   0.880   5.837  18.726  0.2010 -0.4453  0.0111
  834TIP3    H126697   0.902   5.781  18.800 -1.3578 -0.1291  0.7603
  834TIP3    H226698   0.941   5.811  18.657  1.5043 -0.9478  1.2928
  835TIP3   OH226699   4.633   2.236  17.545  0.2039  0.6403  0.5018
  835TIP3    H126700   4.648   2.233  17.451 -0.4093  1.2232  0.3803
  835TIP3    H226701   4.619   2.145  17.570 -0.0141  0.5242 -0.0305
  836TIP3   OH226702   2.055   6.037  18.017 -0.1382  0.1668  0.3489
  836TIP3    H126703   2.053   5.978  18.092 -0.3506 -0.5775 -0.2322
  836TIP3    H226704   2.001   5.994  17.951 -0.2570  0.9956 -0.1006
  837TIP3   OH226705   7.487   3.936  17.046  0.0150 -0.0260 -0.3967
  837TIP3    H126706   7.504   4.028  17.027  0.4605 -0.1376 -0.5600
  837TIP3    H226707   7.486   3.931  17.142  3.3139 -0.3840 -0.2656
  838TIP3   OH226708   4.439   1.925  17.421  0.0255  0.1093 -0.1333
  838TIP3    H126709   4.414   1.843  17.377  1.9017  0.2474 -1.5843
  838TIP3    H226710   4.372   1.987  17.394  1.1350  0.2251 -3.1013
  839TIP3   OH226711   5.533   0.459  18.599 -0.1703 -0.4303 -0.3743
  839TIP3    H126712   5.538   0.364  18.600  0.8214 -0.4113 -1.2039
  839TIP3    H226713   5.610   0.488  18.648 -0.7953 -0.0464  0.4027
  840TIP3   OH226714   4.196   1.483  17.358 -0.3620 -0.0216  0.4075
  840TIP3    H126715   4.122   1.514  17.410 -1.0418 -0.8071 -0.0683
  840TIP3    H226716   4.157   1.450  17.277  0.5213 -0.3041  0.0823
  841TIP3   OH226717   4.198   5.609  18.455  0.3024 -0.0400  0.7024
  841TIP3    H126718   4.267   5.543  18.441  0.4151 -0.2960  2.2771
  841TIP3    H226719   4.221   5.680  18.395  0.2558 -1.3578 -0.9401
  842TIP3   OH226720   6.178   7.537  16.879  0.2878 -0.1724  0.1853
  842TIP3    H126721   6.198   7.444  16.883  0.7576 -0.1327 -0.7977
  842TIP3    H226722   6.118   7.545  16.805 -1.9536 -0.0352  1.9244
  843TIP3   OH226723   0.308   4.500  17.129 -0.5741 -0.8538  0.2280
  843TIP3    H126724   0.354   4.418  17.113 -0.6140 -0.8746  0.2166
  843TIP3    H226725   0.367   4.568  17.096 -0.7210 -0.9073 -0.1535
  844TIP3   OH226726   0.755   4.816  17.083 -0.0429  0.3510 -0.4156
  844TIP3    H126727   0.744   4.911  17.079  0.6752  0.4216 -1.2533
  844TIP3    H226728   0.705   4.788  17.159 -2.5840  1.0598 -1.7391
  845TIP3   OH226729   1.084   1.692  18.793 -0.2552  0.7190  0.1773
  845TIP3    H126730   0.992   1.702  18.769 -0.9168 -2.6074  0.7743
  845TIP3    H226731   1.081   1.654  18.881  1.6010 -0.6127 -0.2762
  846TIP3   OH226732   0.327   5.241  18.171 -0.1050  0.1303  0.7226
  846TIP3    H126733   0.385   5.182  18.123 -0.3747  0.9146 -0.6269
  846TIP3    H226734   0.285   5.294  18.103 -1.2311  0.6416  1.7747
  847TIP3   OH226735   6.920   1.326  19.277 -0.1790 -0.1712 -0.0484
  847TIP3    H126736   6.999   1.378  19.292 -1.6628  2.0085  0.7780
  847TIP3    H226737   6.923   1.303  19.184 -1.6996  5.7860 -2.0641
  848TIP3   OH226738   4.631   0.516  16.835  0.1051 -0.1730  0.0725
  848TIP3    H126739   4.588   0.436  16.807 -0.7681 -0.3744  1.8443
  848TIP3    H226740   4.569   0.557  16.895 -0.3683  2.8896 -2.2410
  849TIP3   OH226741   3.385   3.225  18.373  0.3822 -0.1641  0.6028
  849TIP3    H126742   3.293   3.209  18.395  0.0813 -0.5445 -0.8331
  849TIP3    H226743   3.381   3.273  18.291  1.4690  0.4572  0.8982
  850TIP3   OH226744   0.808   2.569  19.461 -0.4049 -0.2102 -0.2307
  850TIP3    H126745   0.903   2.575  19.467 -0.4009 -0.6125  0.1748
  850TIP3    H226746   0.776   2.649  19.502 -0.2447 -0.1539 -0.2159
  851TIP3   OH226747   4.968   5.188  17.740 -0.3953  0.0042  0.0167
  851TIP3    H126748   5.050   5.229  17.766  0.7923 -2.4163  0.3743
  851TIP3    H226749   4.899   5.241  17.781  1.0137  1.4729  0.5605
  852TIP3   OH226750   6.886   3.031  18.402 -0.5255 -0.0535 -0.1878
  852TIP3    H126751   6.870   3.119  18.368  0.1603 -0.0652 -0.5730
  852TIP3    H226752   6.799   2.998  18.425 -0.8547  0.4921 -0.6109
  853TIP3   OH226753   6.661   3.784  18.060 -0.1640 -1.2553  0.4469
  853TIP3    H126754   6.566   3.780  18.053 -0.1298 -0.2267 -0.7395
  853TIP3    H226755   6.679   3.749  18.148 -1.7286 -0.1814  1.2554
  854TIP3   OH226756   5.187   3.356  18.515  0.1248 -0.0216  0.5036
  854TIP3    H126757   5.225   3.429  18.564 -0.5886  0.7046 -0.0058
  854TIP3    H226758   5.102   3.340  18.556 -1.0934  1.4740 -1.2407
  855TIP3   OH226759   3.873   0.274  17.610 -0.0514 -0.4119 -0.4468
  855TIP3    H126760   3.902   0.205  17.551  2.8370 -0.0925  0.4514
  855TIP3    H226761   3.865   0.352  17.554  0.3580 -0.6268 -0.8054
  856TIP3   OH226762   1.094   0.284  17.569  0.2908 -0.0656  0.2122
  856TIP3    H126763   1.158   0.239  17.625  1.2535  0.7600 -0.2000
  856TIP3    H226764   1.082   0.370  17.610  1.0652  0.5773 -0.8774
  857TIP3   OH226765   4.065   4.018  17.270 -0.0557 -0.0911  0.5303
  857TIP3    H126766   4.106   4.077  17.207 -0.3920  0.0248  0.4158
  857TIP3    H226767   4.132   3.952  17.289  0.3331  0.3523  0.6941
  858TIP3   OH226768   4.281   4.465  19.031  0.5356  0.1584 -0.1148
  858TIP3    H126769   4.352   4.530  19.039  0.0995  1.1018 -2.9040
  858TIP3    H226770   4.202   4.514  19.051  0.3374  0.1031 -0.7528
  859TIP3   OH226771   4.070   6.318  17.577  0.5238  0.2196  0.0124
  859TIP3    H126772   3.994   6.313  17.520 -0.7479 -2.0689  1.7079
  859TIP3    H226773   4.037   6.354  17.659  1.0567 -1.3460  0.9685
  860TIP3   OH226774   7.186   5.793  17.088 -0.0229 -0.9000  0.5961
  860TIP3    H126775   7.129   5.767  17.015 -0.3231 -0.5625  0.7037
  860TIP3    H226776   7.273   5.762  17.063 -0.3078 -1.7020  0.5763
  861TIP3   OH226777   1.256   1.947  18.305  0.5643 -0.1108  0.1464
  861TIP3    H126778   1.323   1.940  18.373  0.7329  0.4573  0.0447
  861TIP3    H226779   1.213   2.031  18.323  0.3787 -0.1247 -0.2382
  862TIP3   OH226780   3.079   2.975  17.294 -0.0949 -0.3292  0.0223
  862TIP3    H126781   3.054   2.886  17.270  0.6105 -0.7213  0.6900
  862TIP3    H226782   3.151   2.964  17.356  0.3850  0.7195 -0.3237
  863TIP3   OH226783   1.550   4.268  18.175 -0.1502 -0.0066 -0.9211
  863TIP3    H126784   1.635   4.310  18.166  0.4653 -1.0672 -0.2892
  863TIP3    H226785   1.511   4.274  18.088 -0.0456  1.7469 -0.8683
  864TIP3   OH226786   6.108   5.284  16.824  0.3245 -0.5534  0.2823
  864TIP3    H126787   6.162   5.232  16.765  1.2328  1.0772 -0.3991
  864TIP3    H226788   6.171   5.338  16.871 -0.5138 -0.8083  1.7277
  865TIP3   OH226789   6.674   2.863  16.940  0.0247  0.2576 -0.4175
  865TIP3    H126790   6.735   2.935  16.925  1.3229 -0.4070  1.3878
  865TIP3    H226791   6.591   2.907  16.962  0.0868  1.1661 -1.8448
  866TIP3   OH226792   6.271   3.515  19.583  0.2219 -0.0961 -0.5051
  866TIP3    H126793   6.249   3.455  19.512  0.2234 -0.2830 -0.3491
  866TIP3    H226794   6.345   3.473  19.627  0.3120  0.0892 -0.4789
  867TIP3   OH226795   2.048   0.492  18.660  0.6533 -0.0362 -0.0368
  867TIP3    H126796   2.108   0.476  18.588 -0.8755 -0.2831 -1.3159
  867TIP3    H226797   2.048   0.587  18.672  2.4147 -0.1239  1.0380
  868TIP3   OH226798   5.914   7.424  19.662 -0.1516  0.5824 -0.3344
  868TIP3    H126799   5.982   7.488  19.644 -1.2379  1.7722 -0.3723
  868TIP3    H226800   5.893   7.436  19.755  1.0283 -1.1464  0.2025
  869TIP3   OH226801   3.646   1.840  18.857  0.1350  0.5946 -0.5558
  869TIP3    H126802   3.635   1.923  18.905  0.9094  0.3927 -0.0024
  869TIP3    H226803   3.733   1.847  18.817  0.1901  0.0650 -0.5350
  870TIP3   OH226804   0.205   2.537  19.368  0.0175  0.4473 -0.2004
  870TIP3    H126805   0.198   2.446  19.398  0.2389  0.1707 -0.9682
  870TIP3    H226806   0.279   2.573  19.417  0.4173 -0.0148 -0.4667
  871TIP3   OH226807   6.601   5.854  17.637  0.3941  0.0928 -0.2988
  871TIP3    H126808   6.552   5.901  17.569  0.4831 -0.1867 -0.5593
  871TIP3    H226809   6.591   5.908  17.715 -1.0534 -0.3791 -0.1212
  872TIP3   OH226810   3.429   1.448  17.453 -0.0328  0.1535 -0.0116
  872TIP3    H126811   3.499   1.493  17.406  0.3304  0.9228  1.2501
  872TIP3    H226812   3.354   1.452  17.393  0.5421  0.7200 -0.7111
  873TIP3   OH226813   5.524   4.836  18.389  0.1658 -0.2746 -0.1872
  873TIP3    H126814   5.492   4.788  18.313 -1.1748 -1.0732  0.8554
  873TIP3    H226815   5.451   4.890  18.418 -0.1512 -1.6774  1.8718
  874TIP3   OH226816   2.081   3.360  18.604  0.2484  0.2953  0.0349
  874TIP3    H126817   2.129   3.442  18.600 -0.1200  0.6110  1.4132
  874TIP3    H226818   2.045   3.357  18.693 -2.9809  0.4523 -1.1287
  875TIP3   OH226819   2.519   5.362  18.655 -0.3498 -0.0604  0.3662
  875TIP3    H126820   2.454   5.359  18.585 -0.0017  0.1013  0.0341
  875TIP3    H226821   2.501   5.284  18.708 -1.7048  0.7079  1.0838
  876TIP3   OH226822   2.263   4.795  19.152 -0.5942  0.3650 -0.3162
  876TIP3    H126823   2.204   4.868  19.172 -1.5566 -0.4757 -0.0450
  876TIP3    H226824   2.223   4.719  19.193  0.7834 -0.2010  0.0281
  877TIP3   OH226825   1.041   4.463  18.768  0.9114 -0.0709 -0.6721
  877TIP3    H126826   1.038   4.388  18.828 -1.7855 -0.2019 -0.8733
  877TIP3    H226827   1.005   4.429  18.686  1.4839  0.9623 -1.3667
  878TIP3   OH226828   0.180   4.933  16.963  0.1957 -0.1051 -0.4329
  878TIP3    H126829   0.148   5.017  16.930  1.0509 -0.2386 -1.6503
  878TIP3    H226830   0.106   4.897  17.013 -0.6660  0.7150 -1.0915
  879TIP3   OH226831   2.323   3.255  16.819  0.0842  0.1057  0.3877
  879TIP3    H126832   2.367   3.306  16.887 -0.8033 -0.3729  1.3646
  879TIP3    H226833   2.392   3.205  16.777  1.0692  2.4324 -0.9393
  880TIP3   OH226834   0.474   7.314  18.756  0.2552 -0.3028 -0.1807
  880TIP3    H126835   0.472   7.242  18.693  0.7738  1.1698 -1.9844
  880TIP3    H226836   0.550   7.366  18.730  0.2904  0.5435  1.5004
  881TIP3   OH226837   0.173   2.019  19.481  0.0226  0.2534 -0.8805
  881TIP3    H126838   0.243   1.961  19.512 -0.5939 -0.1277 -0.1679
  881TIP3    H226839   0.177   2.012  19.386  0.8984  0.1790 -0.8538
  882TIP3   OH226840   0.320   6.211  18.516  0.8475 -0.3384  0.3099
  882TIP3    H126841   0.286   6.255  18.438  1.5924 -0.5313 -0.1287
  882TIP3    H226842   0.415   6.221  18.510  0.9027 -0.2139  1.2781
  883TIP3   OH226843   3.059   6.824  17.435  0.2786  0.1405 -0.1525
  883TIP3    H126844   3.046   6.736  17.471 -1.4577  0.8152  1.0229
  883TIP3    H226845   3.004   6.827  17.357  1.4488 -0.2512 -1.0095
  884TIP3   OH226846   5.029   3.293  17.884 -0.1442 -0.4063  0.4897
  884TIP3    H126847   5.032   3.200  17.909  0.3270 -0.8673 -1.1051
  884TIP3    H226848   5.107   3.331  17.924  1.6332 -1.5349 -1.6328
  885TIP3   OH226849   2.146   3.717  17.718 -0.3592  0.0594 -0.0376
  885TIP3    H126850   2.116   3.627  17.704  3.3841 -0.9570 -3.8905
  885TIP3    H226851   2.091   3.770  17.660 -0.9053 -0.1504  0.2844
  886TIP3   OH226852   4.468   1.285  17.253  0.2595 -0.3305 -0.7955
  886TIP3    H126853   4.491   1.360  17.198  2.1814 -0.1284  0.2286
  886TIP3    H226854   4.430   1.221  17.192  0.2229  0.7703 -1.9639
  887TIP3   OH226855   2.850   2.379  19.058  0.1183 -0.2170  0.1904
  887TIP3    H126856   2.898   2.445  19.009 -3.3932  0.7555 -2.3119
  887TIP3    H226857   2.861   2.298  19.008 -0.3797 -0.1221 -0.0770
  888TIP3   OH226858   5.846   7.559  16.840  0.1062 -0.0587 -0.2668
  888TIP3    H126859   5.768   7.579  16.892  0.2144  1.3438 -0.6092
  888TIP3    H226860   5.815   7.499  16.773  0.0276 -2.2031  1.5570
  889TIP3   OH226861   0.425   0.167  19.334  0.2763 -0.1055 -0.3484
  889TIP3    H126862   0.499   0.109  19.316 -1.1893 -1.3695 -2.8876
  889TIP3    H226863   0.348   0.110  19.331 -0.9952  1.5104 -0.0632
  890TIP3   OH226864   7.053   2.375  19.361  0.4301 -0.1398 -0.3039
  890TIP3    H126865   7.147   2.383  19.380  0.4643 -0.5142 -0.3096
  890TIP3    H226866   7.033   2.283  19.379  0.1535 -0.1571 -0.6977
  891TIP3   OH226867   0.243   2.754  16.879  0.3401 -0.0606 -0.0933
  891TIP3    H126868   0.218   2.692  16.947  2.5831 -0.3241  0.5545
  891TIP3    H226869   0.209   2.838  16.910 -0.5231 -0.5309  0.2748
  892TIP3   OH226870   3.631   5.488  18.188 -0.0147  0.6269 -0.4046
  892TIP3    H126871   3.570   5.552  18.150 -0.9427  0.4049  0.6457
  892TIP3    H226872   3.649   5.522  18.276 -1.8945 -1.3586  0.8627
  893TIP3   OH226873   3.182   5.326  17.868  0.0800 -0.1735  0.0906
  893TIP3    H126874   3.114   5.277  17.913  1.3398 -2.5413 -0.3977
  893TIP3    H226875   3.247   5.345  17.935  0.9516 -1.8199 -0.2353
  894TIP3   OH226876   5.284   6.508  17.886  0.3283 -0.0181 -0.0112
  894TIP3    H126877   5.333   6.574  17.935 -0.2332 -0.9280  1.8508
  894TIP3    H226878   5.308   6.425  17.927 -2.0765 -0.5894  0.3833
  895TIP3   OH226879   2.615   5.932  18.445 -0.3541 -0.3181 -0.2654
  895TIP3    H126880   2.699   5.885  18.451  0.4233  1.1524  1.1072
  895TIP3    H226881   2.640   6.024  18.433 -1.7512  0.2215  0.6804
  896TIP3   OH226882   2.355   7.203  17.416 -0.2310 -0.6746  0.3129
  896TIP3    H126883   2.432   7.227  17.467  0.3108 -0.0114 -0.7719
  896TIP3    H226884   2.342   7.277  17.356 -2.8073  0.0946  1.6699
  897TIP3   OH226885   2.728   6.052  18.147  0.5474 -0.2899 -0.0100
  897TIP3    H126886   2.765   6.126  18.195 -1.2827  0.0857  0.9077
  897TIP3    H226887   2.700   6.090  18.064 -0.4882  0.0934  0.5037
  898TIP3   OH226888   1.861   0.433  17.094  0.2038 -0.5511  0.1990
  898TIP3    H126889   1.809   0.356  17.070 -0.1108  0.0343 -1.0742
  898TIP3    H226890   1.921   0.445  17.021 -0.0075  0.6235  0.2070
  899TIP3   OH226891   0.921   6.755  19.016  0.0829  0.0313  0.2240
  899TIP3    H126892   0.919   6.849  18.999 -1.2276 -0.1302 -0.6007
  899TIP3    H226893   0.834   6.724  18.991  0.6604 -1.4806  0.0116
  900TIP3   OH226894   2.167   7.175  17.641 -0.4652 -0.4924 -0.1341
  900TIP3    H126895   2.198   7.193  17.552 -0.8903  1.0330 -0.0077
  900TIP3    H226896   2.210   7.093  17.665  1.2451  0.0858 -1.0039
  901TIP3   OH226897   7.566   0.429  17.418  0.1228  0.2349  0.0012
  901TIP3    H126898   7.547   0.483  17.341  2.1262 -1.2765 -1.6671
  901TIP3    H226899   7.556   0.339  17.387 -0.9376 -0.4318  2.0984
  902TIP3   OH226900   1.879   6.008  17.318  0.2501 -0.0098 -0.4814
  902TIP3    H126901   1.791   6.031  17.349  0.6072  0.1784  0.4026
  902TIP3    H226902   1.867   5.923  17.275 -0.5652  0.5249 -1.3519
  903TIP3   OH226903   0.448   5.464  17.990  0.2737 -0.0362  0.4818
  903TIP3    H126904   0.442   5.513  17.908  1.4693  0.3350  0.6038
  903TIP3    H226905   0.446   5.530  18.058  0.8144 -0.2310  0.6909
  904TIP3   OH226906   2.373   1.992  18.470 -0.1725  0.1771 -0.1723
  904TIP3    H126907   2.316   2.068  18.458  0.4385  0.5195 -1.0410
  904TIP3    H226908   2.317   1.926  18.510 -1.5502  0.0836 -2.0991
  905TIP3   OH226909   0.347   1.209  17.569 -0.3488  0.0791 -0.5178
  905TIP3    H126910   0.396   1.138  17.527  0.9359  1.5319 -1.6101
  905TIP3    H226911   0.400   1.287  17.552 -1.4073  1.2176  1.1607
  906TIP3   OH226912   1.823   4.586  18.234 -0.3052 -0.1893 -0.0832
  906TIP3    H126913   1.889   4.634  18.283  1.1668 -1.8789 -0.3132
  906TIP3    H226914   1.751   4.648  18.224  0.6997  1.2845  1.3015
  907TIP3   OH226915   5.514   3.973  18.165 -0.5474 -0.1751  0.1509
  907TIP3    H126916   5.533   3.891  18.211  0.4258 -0.6251 -0.9874
  907TIP3    H226917   5.572   4.037  18.206  0.8711 -0.7382 -0.8561
  908TIP3   OH226918   5.977   2.553  17.529  0.0418 -0.1259 -0.3437
  908TIP3    H126919   5.941   2.531  17.444 -0.2421 -1.9421  0.1907
  908TIP3    H226920   5.903   2.590  17.578  0.2746  1.1744 -0.9543
  909TIP3   OH226921   3.996   2.226  19.226 -0.3760  0.3904 -0.1015
  909TIP3    H126922   3.952   2.291  19.170 -1.0804  0.7854  0.8766
  909TIP3    H226923   3.957   2.239  19.312 -0.0530 -0.9063  0.2582
  910TIP3   OH226924   4.892   6.311  17.883 -0.6341 -0.0654  0.3653
  910TIP3    H126925   4.895   6.324  17.978  0.9869 -0.4686  0.3874
  910TIP3    H226926   4.838   6.233  17.871 -1.4935  0.4314  0.8947
  911TIP3   OH226927   5.589   3.446  19.611 -0.0340  0.2239  0.4805
  911TIP3    H126928   5.627   3.511  19.552  0.2025 -1.9261 -1.9682
  911TIP3    H226929   5.578   3.491  19.694  1.3515  2.9438 -0.6936
  912TIP3   OH226930   1.343   0.183  18.975 -0.1478  0.1699 -0.0116
  912TIP3    H126931   1.327   0.277  18.987 -1.2873 -0.0675  0.4665
  912TIP3    H226932   1.367   0.174  18.883  0.7230  1.0182  0.1145
  913TIP3   OH226933   3.587   4.729  18.026  0.5775  0.2657  0.5045
  913TIP3    H126934   3.662   4.681  18.062  1.8671  0.3393 -1.8983
  913TIP3    H226935   3.625   4.811  17.994 -0.9095  1.1718  0.9805
  914TIP3   OH226936   1.479   5.888  18.646 -0.6358  0.3226  0.3555
  914TIP3    H126937   1.392   5.920  18.623 -0.5953 -0.3172 -0.7609
  914TIP3    H226938   1.507   5.944  18.718 -1.8378  0.7435  0.5118
  915TIP3   OH226939   2.737   4.199  19.010 -0.2476 -0.3097  0.0126
  915TIP3    H126940   2.662   4.217  18.955  0.7779 -1.0628 -1.7130
  915TIP3    H226941   2.728   4.107  19.034  1.0922 -1.0076 -1.8955
  916TIP3   OH226942   7.657   6.448  18.675 -0.5229 -0.2928  0.0545
  916TIP3    H126943   7.674   6.360  18.639 -1.6065  0.1575 -1.7245
  916TIP3    H226944   7.727   6.502  18.639 -1.0493 -0.0341 -0.6046
  917TIP3   OH226945   7.591   0.486  19.094  0.2942 -0.2750  0.3652
  917TIP3    H126946   7.510   0.509  19.048  0.8414 -1.1575 -1.1234
  917TIP3    H226947   7.632   0.570  19.114 -0.0195  0.1456 -0.6844
  918TIP3   OH226948   1.065   4.158  16.355  0.0648  0.2070 -0.2198
  918TIP3    H126949   1.149   4.199  16.335 -0.3277  0.8595 -0.5636
  918TIP3    H226950   1.059   4.085  16.294  1.3586 -1.2214  1.2538
  919TIP3   OH226951   7.456   6.822  17.676 -0.1778 -0.2554  0.0184
  919TIP3    H126952   7.436   6.785  17.763  2.4056  0.1754  0.8733
  919TIP3    H226953   7.457   6.746  17.618 -1.3433 -0.6336  0.4554
  920TIP3   OH226954   5.819   1.987  17.350  0.2621  0.3605  0.5042
  920TIP3    H126955   5.871   1.925  17.299 -1.8263 -1.9779  1.0065
  920TIP3    H226956   5.816   1.951  17.438  0.7994  2.4163  1.4355
  921TIP3   OH226957   3.278   6.376  18.392  0.1000 -0.2398 -0.1106
  921TIP3    H126958   3.326   6.405  18.470  1.5126 -0.7812 -0.7355
  921TIP3    H226959   3.230   6.299  18.420  0.9444 -0.6897  0.1338
  922TIP3   OH226960   4.331   5.862  19.348  0.4333 -0.0965 -0.4112
  922TIP3    H126961   4.386   5.882  19.273  0.5798  2.3552  0.2572
  922TIP3    H226962   4.355   5.927  19.414  0.2848 -2.0985  1.7859
  923TIP3   OH226963   4.201   4.070  18.687  0.3485  0.7859 -0.1268
  923TIP3    H126964   4.258   4.067  18.610  1.6697 -0.3299  0.8336
  923TIP3    H226965   4.136   4.137  18.666  0.5874  0.4438 -2.2502
  924TIP3   OH226966   0.802   7.202  18.627 -0.0955 -0.2123 -0.4830
  924TIP3    H126967   0.837   7.177  18.542 -0.1768  1.0049 -0.8901
  924TIP3    H226968   0.719   7.155  18.634  0.8399 -1.8912 -0.1817
  925TIP3   OH226969   2.590   3.986  17.892  0.0513  0.6159  0.1831
  925TIP3    H126970   2.544   3.977  17.975  1.3617 -0.1434  0.8393
  925TIP3    H226971   2.651   4.059  17.905 -1.1164  1.8423 -0.7941
  926TIP3   OH226972   6.961   2.310  18.000 -0.3522 -0.3106  0.9546
  926TIP3    H126973   6.905   2.266  17.937 -0.6330  1.6712 -0.2614
  926TIP3    H226974   6.902   2.369  18.047  0.4283  0.6530  0.7492
  927TIP3   OH226975   7.677   0.441  18.828  0.1300  0.0598  0.0101
  927TIP3    H126976   7.646   0.501  18.760  0.0888 -1.1646 -1.0906
  927TIP3    H226977   7.642   0.477  18.910 -0.6464  1.0164 -0.7191
  928TIP3   OH226978   2.361   5.395  17.292  0.4813  0.8114 -0.5116
  928TIP3    H126979   2.349   5.399  17.197 -1.0094  1.4721 -0.3209
  928TIP3    H226980   2.307   5.320  17.320 -1.7370  2.5385  0.1300
  929TIP3   OH226981   2.739   0.116  16.887 -0.0590 -0.0562  0.3305
  929TIP3    H126982   2.785   0.111  16.803 -1.2561 -1.2690 -0.2954
  929TIP3    H226983   2.721   0.209  16.900  0.7255  0.2046 -0.4350
  930TIP3   OH226984   2.660   7.439  17.291 -0.4057  0.0938  0.6505
  930TIP3    H126985   2.688   7.522  17.252  2.4220 -0.8190  0.5062
  930TIP3    H226986   2.598   7.402  17.228 -1.0799  1.7026  0.3339
  931TIP3   OH226987   6.092   1.593  19.407 -0.2505 -0.2313  0.0388
  931TIP3    H126988   6.187   1.606  19.401  0.0131 -2.1724 -0.5775
  931TIP3    H226989   6.067   1.556  19.322 -1.1416 -1.9751  0.9985
  932TIP3   OH226990   1.128   2.211  19.228  0.1438  0.5048  0.3642
  932TIP3    H126991   1.108   2.202  19.321  3.4268  3.1362  1.5095
  932TIP3    H226992   1.043   2.228  19.187 -1.2134  0.9773  3.1311
  933TIP3   OH226993   4.362   4.503  18.690  0.1720 -0.0369 -0.1616
  933TIP3    H126994   4.375   4.433  18.753 -0.3620  0.2875  0.3160
  933TIP3    H226995   4.318   4.573  18.739  1.3394  0.9275 -0.4471
  934TIP3   OH226996   0.404   3.774  17.766  0.3232  0.7063  0.0479
  934TIP3    H126997   0.488   3.736  17.789 -1.0394 -1.3180  2.1426
  934TIP3    H226998   0.357   3.781  17.849 -2.1493  0.2937 -1.2116
  935TIP3   OH226999   4.864   4.955  19.189  0.2080 -0.1440  0.3897
  935TIP3    H127000   4.868   4.880  19.249  0.1890 -0.3948  0.0786
  935TIP3    H227001   4.951   4.959  19.149 -0.2266 -0.8920 -0.6699
  936TIP3   OH227002   6.980   3.054  17.614 -0.1550  0.5361 -0.3439
  936TIP3    H127003   6.962   3.089  17.701  1.0101 -0.0005  0.1353
  936TIP3    H227004   7.034   3.121  17.572 -1.7100  1.3499 -1.1334
  937TIP3   OH227005   0.374   0.015  18.040 -0.2572  0.1426 -0.0042
  937TIP3    H127006   0.436   0.005  17.968  1.0109  0.0208  1.0691
  937TIP3    H227007   0.348   0.107  18.036  1.9303  0.8764  0.9997
  938TIP3   OH227008   0.681   4.077  16.783  0.2825 -0.4102  0.2176
  938TIP3    H127009   0.691   4.000  16.728  1.0897  0.7557 -1.3695
  938TIP3    H227010   0.589   4.078  16.808  0.3707 -2.1248  0.6820
  939TIP3   OH227011   0.185   5.659  17.958  0.1958 -0.7567 -0.3655
  939TIP3    H127012   0.179   5.568  17.987 -1.6819 -0.8352 -0.8748
  939TIP3    H227013   0.190   5.654  17.863  0.3091 -0.3301 -0.3840
  940TIP3   OH227014   7.246   0.986  17.864  0.4621 -0.3831  0.4537
  940TIP3    H127015   7.211   0.932  17.934 -1.6745  1.3937  0.8875
  940TIP3    H227016   7.293   1.056  17.910 -0.4052  0.4271  0.1625
  941TIP3   OH227017   4.484   5.114  19.092 -0.4116 -0.0457 -0.8262
  941TIP3    H127018   4.495   5.075  19.005  0.5149 -0.0248 -0.7202
  941TIP3    H227019   4.391   5.137  19.096 -0.6394 -0.8272 -1.4842
  942TIP3   OH227020   1.025   0.979  18.843 -0.0449 -0.1343  0.6564
  942TIP3    H127021   1.034   1.058  18.789  0.9924 -0.7766 -0.1477
  942TIP3    H227022   1.050   1.008  18.931 -2.0077  0.9899  0.9060
  943TIP3   OH227023   5.141   2.555  18.012 -1.0201 -0.4996  0.7840
  943TIP3    H127024   5.071   2.496  18.040 -1.1414 -0.6667  0.1353
  943TIP3    H227025   5.108   2.595  17.931 -0.6708 -0.0232  0.8714
  944TIP3   OH227026   1.283   6.960  17.335 -0.1592 -0.2357 -0.3399
  944TIP3    H127027   1.222   6.975  17.407 -1.7955 -0.3356 -1.6452
  944TIP3    H227028   1.268   7.033  17.275  1.5736  0.1501 -0.3531
  945TIP3   OH227029   6.359   0.091  18.788 -0.4513 -0.1639  0.2877
  945TIP3    H127030   6.312   0.015  18.825  0.1343 -0.4708  0.4131
  945TIP3    H227031   6.379   0.065  18.698  0.8538 -0.6867  0.7024
  946TIP3   OH227032   1.885   3.636  17.298  0.3390 -0.0956 -0.4552
  946TIP3    H127033   1.941   3.573  17.344 -0.3640 -1.0578 -0.8831
  946TIP3    H227034   1.816   3.657  17.361 -0.0382 -0.5983 -0.7046
  947TIP3   OH227035   6.129   0.519  18.769 -0.3606  0.8109 -0.4237
  947TIP3    H127036   6.085   0.480  18.845 -0.8975  2.5043  0.1908
  947TIP3    H227037   6.221   0.525  18.795 -0.6819  2.2415  0.5374
  948TIP3   OH227038   7.665   0.569  16.870  0.1744 -0.2130  0.0313
  948TIP3    H127039   7.689   0.648  16.820  1.6874 -0.4997  0.2465
  948TIP3    H227040   7.584   0.592  16.914  0.3083  1.0392 -0.3319
  949TIP3   OH227041   7.116   6.862  17.481  0.3402  0.5273 -0.3877
  949TIP3    H127042   7.195   6.907  17.452  0.3820  0.3157 -0.6062
  949TIP3    H227043   7.141   6.770  17.487  0.2864  0.5449  0.1727
  950TIP3   OH227044   2.055   0.987  17.625  0.1425  0.5810 -0.1211
  950TIP3    H127045   2.121   0.920  17.638 -0.4326  0.1603  0.7681
  950TIP3    H227046   2.091   1.065  17.668  0.3603  0.5543 -0.2537
  951TIP3   OH227047   6.280   0.738  18.988  0.4037 -0.7081 -0.3742
  951TIP3    H127048   6.270   0.651  19.025  0.2610 -0.5905 -0.1270
  951TIP3    H227049   6.318   0.724  18.902  0.0678 -1.0335 -0.4699
  952TIP3   OH227050   1.033   3.484  17.925  0.1799  0.3125 -0.2310
  952TIP3    H127051   1.110   3.531  17.957 -0.2233  1.2060 -0.5422
  952TIP3    H227052   1.043   3.484  17.829  0.5176 -0.8422 -0.2087
  953TIP3   OH227053   0.464   0.604  17.566  0.4003  0.1354  0.1269
  953TIP3    H127054   0.439   0.677  17.623 -0.2751  0.0029  0.0193
  953TIP3    H227055   0.538   0.636  17.515  1.6466 -0.0676  1.7346
  954TIP3   OH227056   6.094   2.257  18.840  0.0317 -0.0720 -0.0461
  954TIP3    H127057   6.149   2.246  18.918  0.0669 -0.4310 -0.1185
  954TIP3    H227058   6.011   2.216  18.863  0.5453 -1.5991 -0.7341
  955TIP3   OH227059   2.251   4.193  18.156  0.2147  0.1018 -0.1508
  955TIP3    H127060   2.299   4.173  18.236 -1.0864 -1.4725  0.2838
  955TIP3    H227061   2.170   4.143  18.163 -0.0439  0.1110 -2.3369
  956TIP3   OH227062   4.693   1.900  18.233 -0.2381 -0.4209  0.0558
  956TIP3    H127063   4.624   1.880  18.169 -1.2834 -1.4241  1.4430
  956TIP3    H227064   4.650   1.954  18.299  0.7916  0.4644  0.0446
  957TIP3   OH227065   5.271   3.569  18.678 -0.2189 -0.1804  0.3696
  957TIP3    H127066   5.214   3.608  18.745 -1.1902  0.1157 -0.5899
  957TIP3    H227067   5.334   3.638  18.657 -1.1681  0.4774 -0.4398
  958TIP3   OH227068   6.502   2.609  18.299 -0.5953  0.1317 -0.7724
  958TIP3    H127069   6.448   2.687  18.294 -1.6871 -0.6705 -2.3582
  958TIP3    H227070   6.448   2.539  18.263  1.2273 -0.8467 -1.7967
  959TIP3   OH227071   6.773   7.265  17.667  0.0556  0.0626 -0.5406
  959TIP3    H127072   6.801   7.353  17.643  1.9054  0.3414  2.1884
  959TIP3    H227073   6.782   7.213  17.587  1.8951  1.6853 -1.4491
  960TIP3   OH227074   2.139   4.936  18.118 -0.3133  0.4146 -0.0090
  960TIP3    H127075   2.085   4.872  18.071  0.3085  0.2127 -0.4533
  960TIP3    H227076   2.221   4.891  18.136  0.3007  1.2148 -0.7104
  961TIP3   OH227077   6.012   0.667  17.246 -0.3263  0.1791 -0.2370
  961TIP3    H127078   6.083   0.606  17.226 -0.6837 -0.7428  1.1418
  961TIP3    H227079   5.932   0.616  17.230 -0.6266 -0.0954  1.8620
  962TIP3   OH227080   1.247   4.130  18.649 -0.5611  0.0857  0.0269
  962TIP3    H127081   1.292   4.046  18.657 -0.8586 -0.1441 -0.5958
  962TIP3    H227082   1.154   4.107  18.643 -0.7062  0.5074  0.6104
  963TIP3   OH227083   7.085   0.547  17.935  0.4577  0.5889 -0.5269
  963TIP3    H127084   7.024   0.586  17.998 -0.8132  1.2628 -2.1134
  963TIP3    H227085   7.114   0.621  17.881  2.3041  0.1870 -0.1471
  964TIP3   OH227086   2.074   0.051  17.363  0.2237 -0.3273 -0.6378
  964TIP3    H127087   2.115   0.086  17.284  0.7834  0.6064  0.0633
  964TIP3    H227088   2.006   0.114  17.385 -0.6892 -1.1525 -0.9885
  965TIP3   OH227089   6.890   3.532  16.647  0.4065  0.4912  1.2438
  965TIP3    H127090   6.830   3.566  16.580  2.5379  0.0411 -1.0555
  965TIP3    H227091   6.894   3.438  16.630  2.2578  0.6092  0.8352
  966TIP3   OH227092   0.192   2.558  17.039  0.0906  0.6738  0.3630
  966TIP3    H127093   0.105   2.571  17.075 -0.6271  0.2177 -1.1205
  966TIP3    H227094   0.228   2.484  17.089 -1.5917 -1.1727 -0.9865
  967TIP3   OH227095   6.279   1.807  17.378  0.3382 -0.0517  0.1558
  967TIP3    H127096   6.213   1.804  17.447  0.3366  0.1830  0.1669
  967TIP3    H227097   6.312   1.897  17.382  1.7877 -0.5812  1.2363
  968TIP3   OH227098   4.666   1.219  18.482 -0.4313 -0.0097  0.1910
  968TIP3    H127099   4.738   1.250  18.427 -0.7628  0.8821  0.2454
  968TIP3    H227100   4.590   1.218  18.423 -0.7972  0.9925  0.6336
  969TIP3   OH227101   3.149   2.430  18.452  0.1040  0.3864 -0.4375
  969TIP3    H127102   3.237   2.413  18.418  0.0265  1.1166 -1.0058
  969TIP3    H227103   3.159   2.507  18.508 -0.2608  0.7450 -0.8632
  970TIP3   OH227104   1.765   6.956  17.644  0.1428  0.3697 -1.2569
  970TIP3    H127105   1.783   7.045  17.611 -1.0084  0.3211 -2.0530
  970TIP3    H227106   1.772   6.900  17.567  2.8544 -0.5979 -0.4580
  971TIP3   OH227107   6.734   0.881  18.998  0.0527 -0.1536  0.0215
  971TIP3    H127108   6.756   0.788  19.004 -0.2134 -0.2761 -0.8107
  971TIP3    H227109   6.678   0.888  18.920  0.2096  0.7277 -0.0233
  972TIP3   OH227110   6.673   4.868  18.690 -0.0399  0.2692  0.9130
  972TIP3    H127111   6.589   4.916  18.684  0.3341  1.0614  1.7621
  972TIP3    H227112   6.703   4.863  18.599 -0.4395  1.0458  0.7200
  973TIP3   OH227113   5.849   6.515  18.132 -0.0277 -0.3245  0.1745
  973TIP3    H127114   5.925   6.570  18.149  0.2217 -0.3372 -0.8391
  973TIP3    H227115   5.884   6.426  18.127 -0.0914 -0.3201 -0.3888
  974TIP3   OH227116   1.296   3.246  17.407  0.0316  0.0079 -0.1998
  974TIP3    H127117   1.360   3.175  17.410  1.0070  0.8848  1.4441
  974TIP3    H227118   1.214   3.206  17.435  0.5405 -0.5125  0.5906
  975TIP3   OH227119   7.210   0.189  19.700  0.1921  0.1353  0.1591
  975TIP3    H127120   7.288   0.197  19.755  0.1699  0.3272  0.1651
  975TIP3    H227121   7.137   0.190  19.763  0.1127  1.3860  0.0687
  976TIP3   OH227122   5.769   5.389  17.953 -0.5175 -0.5218  0.1119
  976TIP3    H127123   5.811   5.415  18.035  0.2137  1.9193 -0.9280
  976TIP3    H227124   5.834   5.335  17.909 -0.4133 -0.7976  0.6007
  977TIP3   OH227125   2.843   6.702  19.403  0.7999  0.2208 -0.2822
  977TIP3    H127126   2.830   6.645  19.328  0.4630  1.8167 -1.4940
  977TIP3    H227127   2.761   6.749  19.413  1.6599  1.8781 -0.5664
  978TIP3   OH227128   0.907   1.583  17.655 -0.3445 -0.1874  0.0048
  978TIP3    H127129   0.940   1.538  17.577 -0.1662  0.4627 -0.2990
  978TIP3    H227130   0.984   1.588  17.713 -0.5992 -1.1264  0.4502
  979TIP3   OH227131   2.690   0.628  18.365  0.6266  0.2646  1.0522
  979TIP3    H127132   2.759   0.562  18.365  2.1434  1.6406 -2.2787
  979TIP3    H227133   2.735   0.711  18.381 -0.3399  1.0945 -0.3341
  980TIP3   OH227134   1.734   4.692  18.724  0.0995  0.0879 -1.0633
  980TIP3    H127135   1.689   4.772  18.750  0.5058 -0.1625  0.5042
  980TIP3    H227136   1.827   4.714  18.728  0.4599 -1.2567  2.7456
  981TIP3   OH227137   0.536   4.071  17.414 -0.6267  0.0771 -0.7163
  981TIP3    H127138   0.470   4.082  17.482 -0.7134 -0.6132 -0.6874
  981TIP3    H227139   0.588   4.152  17.417  0.2925 -0.5364  1.1512
  982TIP3   OH227140   0.470   0.341  18.807 -0.1166  0.3791 -0.4702
  982TIP3    H127141   0.382   0.309  18.790 -0.5733  0.8571  0.8852
  982TIP3    H227142   0.462   0.395  18.885  1.3532  0.5573 -0.4038
  983TIP3   OH227143   2.697   6.953  16.498  0.4036  0.6572 -0.1753
  983TIP3    H127144   2.607   6.985  16.502 -0.4019 -1.4395 -0.2993
  983TIP3    H227145   2.692   6.872  16.447  2.4654  0.7613 -0.6641
  984TIP3   OH227146   2.702   2.718  19.431 -0.5450 -0.4357  0.3642
  984TIP3    H127147   2.714   2.644  19.490 -1.5716 -0.4462  0.5696
  984TIP3    H227148   2.625   2.697  19.380 -0.0956 -0.0916 -0.4905
  985TIP3   OH227149   0.481   7.347  18.008 -0.1664  0.6862 -0.1044
  985TIP3    H127150   0.504   7.381  18.094 -1.6178  1.2514  0.1000
  985TIP3    H227151   0.416   7.409  17.974  0.9748  0.9245 -1.9742
  986TIP3   OH227152   1.311   0.490  18.119 -0.0885  0.3823 -0.9107
  986TIP3    H127153   1.345   0.436  18.191 -4.0923  2.2442  2.8492
  986TIP3    H227154   1.271   0.428  18.058  1.9254 -1.1792 -0.7405
  987TIP3   OH227155   0.207   0.087  17.412 -0.4969 -0.3827 -0.3457
  987TIP3    H127156   0.235   0.172  17.379  0.0986 -0.4615 -0.0529
  987TIP3    H227157   0.115   0.081  17.386 -1.2432  1.3362  1.6168
  988TIP3   OH227158   5.579   7.456  19.153 -0.1710 -0.4828 -0.1948
  988TIP3    H127159   5.669   7.484  19.140  0.6591 -2.7771  0.1650
  988TIP3    H227160   5.529   7.538  19.158  1.7729  0.8297 -0.9807
  989TIP3   OH227161   3.382   0.121  18.548  0.1244  0.0900  0.0989
  989TIP3    H127162   3.454   0.181  18.529  1.0591 -1.0446  0.0133
  989TIP3    H227163   3.330   0.120  18.467  0.2513  0.5671  0.0092
  990TIP3   OH227164   3.029   6.252  16.879  0.3614 -0.2475  0.4870
  990TIP3    H127165   3.008   6.188  16.810 -1.1299 -0.5034  1.1301
  990TIP3    H227166   3.099   6.305  16.842 -1.4586  0.6901 -1.9417
  991TIP3   OH227167   4.667   2.022  18.788  0.1051  0.2201  0.5309
  991TIP3    H127168   4.617   1.972  18.853  0.5142 -0.0825  0.6122
  991TIP3    H227169   4.697   1.957  18.725  1.8457  0.1347  1.3985
  992TIP3   OH227170   4.258   4.361  18.300  0.0388 -0.2247  0.4172
  992TIP3    H127171   4.238   4.447  18.265 -0.5935 -0.8982 -0.9906
  992TIP3    H227172   4.201   4.352  18.377 -1.3791 -0.1235 -0.5780
  993TIP3   OH227173   7.372   2.826  17.490 -0.2268 -0.1850  0.0049
  993TIP3    H127174   7.316   2.769  17.542 -0.6377  0.4655  0.2933
  993TIP3    H227175   7.362   2.794  17.400 -0.3788 -0.6184  0.1752
  994TIP3   OH227176   0.612   0.161  18.401  0.5300 -0.2820 -0.0102
  994TIP3    H127177   0.518   0.179  18.393  0.8317  1.3392 -0.3058
  994TIP3    H227178   0.617   0.091  18.466 -0.8567 -0.0608  0.3806
  995TIP3   OH227179   3.046   0.051  18.989  0.0020 -0.5889  0.3821
  995TIP3    H127180   3.096   0.066  18.908 -0.4485  0.5550  0.2991
  995TIP3    H227181   3.080   0.117  19.050 -1.4238  0.2464  0.3024
  996TIP3   OH227182   4.799   3.140  18.726  0.0188  0.7326 -0.3308
  996TIP3    H127183   4.777   3.097  18.643 -1.9356  0.6539  0.1985
  996TIP3    H227184   4.885   3.104  18.749  1.1590  1.5887 -2.8517
  997TIP3   OH227185   6.777   1.717  19.226  0.0574 -0.2364 -0.4066
  997TIP3    H127186   6.787   1.681  19.314 -0.7266  0.5392  0.0229
  997TIP3    H227187   6.827   1.659  19.170 -0.9369 -1.8117  0.2846
  998TIP3   OH227188   4.500   6.980  18.893  0.1203 -0.5947  0.2569
  998TIP3    H127189   4.534   6.997  18.981 -2.5783 -0.6570  1.4095
  998TIP3    H227190   4.504   6.884  18.884 -0.8722 -0.7215  0.9334
  999TIP3   OH227191   3.287   7.104  19.113  0.0397 -0.2030  0.2777
  999TIP3    H127192   3.201   7.114  19.154 -0.1368  0.1223 -0.1656
  999TIP3    H227193   3.319   7.193  19.100 -0.9796 -0.1432 -2.4987
 1000TIP3   OH227194   3.611   3.388  19.184  0.8150 -0.2079  0.1288
 1000TIP3    H127195   3.592   3.481  19.198  1.2093  0.5987 -3.6501
 1000TIP3    H227196   3.698   3.375  19.220  0.0822  0.3726  2.2548
 1001TIP3   OH227197   1.734   6.796  18.857  0.0579  0.5791 -0.1964
 1001TIP3    H127198   1.698   6.712  18.830  0.6439  0.7642 -1.6179
 1001TIP3    H227199   1.740   6.847  18.776 -0.9416  2.2580  0.7285
 1002TIP3   OH227200   0.286   5.236  19.230 -0.0193  0.0756  0.1108
 1002TIP3    H127201   0.211   5.294  19.243  1.7853  3.0717 -1.8252
 1002TIP3    H227202   0.285   5.215  19.137  0.7234 -1.1404  0.3507
 1003TIP3   OH227203   0.361   4.666  18.362 -0.1662  0.0370  0.9149
 1003TIP3    H127204   0.389   4.575  18.354 -0.9714 -0.1992  0.6912
 1003TIP3    H227205   0.266   4.663  18.350 -0.0582  1.0665 -0.5837
 1004TIP3   OH227206   1.945   5.189  18.574 -0.6030  0.6462 -0.5991
 1004TIP3    H127207   1.937   5.237  18.492  0.6894 -2.1712 -2.5359
 1004TIP3    H227208   1.997   5.112  18.552 -0.6737 -0.5524  2.7767
 1005TIP3   OH227209   6.059   1.524  17.760  0.0985  0.1028  0.4555
 1005TIP3    H127210   5.985   1.478  17.719  0.4805  0.1135 -0.2715
 1005TIP3    H227211   6.067   1.484  17.846  0.6470 -1.4627 -0.2922
 1006TIP3   OH227212   5.733   6.900  18.453 -0.3922  0.2047  0.4825
 1006TIP3    H127213   5.663   6.878  18.514  0.0448 -1.0407  0.5855
 1006TIP3    H227214   5.764   6.986  18.481 -0.8798  0.1047  1.3652
 1007TIP3   OH227215   4.310   5.737  17.299 -0.2199 -0.2199 -0.1486
 1007TIP3    H127216   4.346   5.649  17.308 -2.0765 -0.8293  2.6766
 1007TIP3    H227217   4.381   5.795  17.325  0.8366 -0.8681 -1.4704
 1008TIP3   OH227218   4.273   3.867  17.233  0.0540  0.1061 -0.1496
 1008TIP3    H127219   4.297   3.874  17.141 -0.8453  0.3627 -0.3771
 1008TIP3    H227220   4.304   3.780  17.260  0.6413  0.1781 -0.5934
 1009TIP3   OH227221   2.189   6.807  17.599 -0.4168 -0.6183  0.5640
 1009TIP3    H127222   2.102   6.798  17.639 -0.6541 -0.8231  0.0152
 1009TIP3    H227223   2.250   6.793  17.671 -0.8316 -1.3720  0.7832
 1010TIP3   OH227224   5.706   3.463  18.585  0.6170  0.0632  0.2824
 1010TIP3    H127225   5.675   3.380  18.619 -2.1512  0.8010 -0.2010
 1010TIP3    H227226   5.685   3.527  18.653  1.8079  0.5378  0.2360
 1011TIP3   OH227227   5.055   7.108  18.464 -0.2086 -0.0869  0.9654
 1011TIP3    H127228   4.971   7.061  18.456  0.4764 -1.3203  0.7659
 1011TIP3    H227229   5.033   7.199  18.443 -1.3753 -0.5059  0.2402
 1012TIP3   OH227230   6.999   3.580  17.230 -0.2400  0.0972  0.2146
 1012TIP3    H127231   7.073   3.639  17.225 -0.9621  0.9936 -0.2521
 1012TIP3    H227232   7.010   3.534  17.313  2.0813 -1.5181 -0.8736
 1013TIP3   OH227233   4.525   1.967  18.454  0.7529 -0.2264 -0.2652
 1013TIP3    H127234   4.594   2.033  18.448  0.2863  0.1355 -2.3221
 1013TIP3    H227235   4.450   2.006  18.409 -1.3630 -0.0332  3.1025
 1014TIP3   OH227236   0.116   0.344  17.638  0.4491 -0.0156  0.3583
 1014TIP3    H127237   0.067   0.396  17.574 -0.1948 -0.7783  0.2055
 1014TIP3    H227238   0.052   0.280  17.670  1.1373 -0.5161  0.7598
 1015TIP3   OH227239   6.393   5.767  17.370  0.0421 -0.2984 -0.1662
 1015TIP3    H127240   6.435   5.846  17.402 -1.4700  0.5630 -0.2209
 1015TIP3    H227241   6.300   5.790  17.363 -1.1841 -3.1654  3.4128
 1016TIP3   OH227242   2.018   2.599  17.928  0.0836  0.4835 -0.0671
 1016TIP3    H127243   2.000   2.628  17.838  1.0076  1.2651 -0.0167
 1016TIP3    H227244   2.114   2.604  17.935 -0.0907  2.4236  1.6109
 1017TIP3   OH227245   2.369   3.616  17.275 -0.0383  0.2107 -0.1895
 1017TIP3    H127246   2.286   3.579  17.307 -0.3128  1.1140  0.1820
 1017TIP3    H227247   2.436   3.565  17.320 -0.3364 -1.4017 -1.4674
 1018TIP3   OH227248   4.457   2.074  17.861  0.0361 -0.8691  0.2615
 1018TIP3    H127249   4.398   2.132  17.909 -0.4291 -1.5619  0.5493
 1018TIP3    H227250   4.417   2.065  17.775 -0.6475 -1.8537  0.6636
 1019TIP3   OH227251   3.872   1.541  17.145 -0.4779  0.0608 -0.2687
 1019TIP3    H127252   3.893   1.633  17.128  0.6839  0.5257  2.9786
 1019TIP3    H227253   3.955   1.495  17.131 -0.3169 -0.0098  0.8259
 1020TIP3   OH227254   3.440   6.466  17.143  0.0522  0.2231 -0.4184
 1020TIP3    H127255   3.404   6.516  17.217 -0.1266  0.4885 -0.6832
 1020TIP3    H227256   3.412   6.514  17.065  0.5599  0.1520 -0.6490
 1021TIP3   OH227257   2.220   6.545  18.495 -0.0160  0.3095  0.3513
 1021TIP3    H127258   2.163   6.540  18.419  1.2879  1.4129 -0.7438
 1021TIP3    H227259   2.161   6.538  18.570 -1.6545  1.8511 -0.7213
 1022TIP3   OH227260   5.385   6.397  17.365 -0.1475  0.5447 -0.7036
 1022TIP3    H127261   5.298   6.359  17.359 -0.4234  0.9992  0.2235
 1022TIP3    H227262   5.421   6.362  17.447  0.0092  1.4031 -0.3911
 1023TIP3   OH227263   3.891   0.592  19.156  0.4395 -0.4399  0.4552
 1023TIP3    H127264   3.904   0.662  19.092  0.8857  0.4399  1.4899
 1023TIP3    H227265   3.801   0.604  19.186  0.6199 -0.1042  0.8677
 1024TIP3   OH227266   1.146   1.174  18.668 -0.0728 -0.0345  0.6301
 1024TIP3    H127267   1.235   1.146  18.686  0.0897 -0.3301 -0.5327
 1024TIP3    H227268   1.130   1.146  18.578 -0.5187  2.0583  0.0036
 1025TIP3   OH227269   3.734   1.193  18.012  0.5343  0.0506 -0.0952
 1025TIP3    H127270   3.671   1.228  18.074 -1.2814  0.2106 -1.9220
 1025TIP3    H227271   3.777   1.121  18.059 -2.1470 -1.1189  0.7563
 1026TIP3   OH227272   2.892   6.062  17.554 -0.2380  0.4303  0.5936
 1026TIP3    H127273   2.912   5.972  17.580 -0.9687 -0.2750 -1.1371
 1026TIP3    H227274   2.888   6.111  17.636 -1.1327 -1.3752  1.6655
 1027TIP3   OH227275   3.831   2.690  18.906 -0.3624 -0.2632 -0.1813
 1027TIP3    H127276   3.876   2.618  18.863  1.2240  0.7889 -0.3573
 1027TIP3    H227277   3.894   2.762  18.905 -1.1035  0.4804  1.8999
 1028TIP3   OH227278   0.252   5.139  17.502 -0.1470  0.0846 -0.2689
 1028TIP3    H127279   0.319   5.195  17.541  0.2047 -0.0258 -0.7157
 1028TIP3    H227280   0.219   5.087  17.575  0.1326  0.2580 -0.0185
 1029TIP3   OH227281   6.650   5.190  18.614 -0.3939  0.5898 -0.4209
 1029TIP3    H127282   6.589   5.116  18.620 -0.8931  0.6307 -3.5950
 1029TIP3    H227283   6.632   5.241  18.693 -1.9545 -1.2345  0.5006
 1030TIP3   OH227284   1.589   2.444  16.746 -0.8311 -0.2332 -0.0085
 1030TIP3    H127285   1.601   2.360  16.703  0.5451  0.7033 -1.5727
 1030TIP3    H227286   1.655   2.446  16.815 -1.0105 -0.5049  0.1750
 1031TIP3   OH227287   1.934   6.774  17.757 -0.5123  0.2902  0.5995
 1031TIP3    H127288   1.870   6.835  17.721 -0.0537  0.7351  0.5110
 1031TIP3    H227289   1.928   6.785  17.852  0.8123  1.8225  0.5472
 1032TIP3   OH227290   3.445   5.071  17.825 -0.0097 -0.2964 -0.3586
 1032TIP3    H127291   3.508   5.005  17.854 -1.1637 -0.3197  2.4285
 1032TIP3    H227292   3.492   5.154  17.829  0.0359 -0.3814  1.1381
 1033TIP3   OH227293   2.689   5.823  18.819 -0.1672 -0.0575  0.2069
 1033TIP3    H127294   2.664   5.731  18.827  0.0518 -0.2095 -0.7359
 1033TIP3    H227295   2.772   5.829  18.866 -1.4233  0.2509  2.5470
 1034TIP3   OH227296   5.430   5.593  17.146  0.1735 -0.1940 -0.0176
 1034TIP3    H127297   5.379   5.674  17.133 -1.9302 -1.4841 -0.2224
 1034TIP3    H227298   5.474   5.579  17.062  1.7625  1.4539  0.4594
 1035TIP3   OH227299   2.613   3.979  18.852  0.2550  0.3124  0.5091
 1035TIP3    H127300   2.697   3.935  18.847  0.6237  0.9843  0.7227
 1035TIP3    H227301   2.558   3.919  18.904  0.7502  0.1178  0.8171
 1036TIP3   OH227302   0.486   2.137  18.971 -0.2846 -0.2260  0.0642
 1036TIP3    H127303   0.403   2.185  18.970 -0.1184  0.1104 -1.9240
 1036TIP3    H227304   0.551   2.202  18.998 -0.7173 -0.6982  2.4664
 1037TIP3   OH227305   0.166   1.182  19.424  0.1400 -0.3639  0.5522
 1037TIP3    H127306   0.245   1.208  19.472  1.0052  1.3011 -1.5916
 1037TIP3    H227307   0.194   1.108  19.370  0.1156 -0.0786  0.1459
 1038TIP3   OH227308   4.589   2.622  18.253 -0.3433 -1.6203  0.0133
 1038TIP3    H127309   4.543   2.608  18.335 -1.0675 -0.3592 -0.1503
 1038TIP3    H227310   4.681   2.604  18.273 -0.1125  0.9949  1.7852
 1039TIP3   OH227311   3.556   2.741  17.089 -0.0338 -0.4179 -0.3249
 1039TIP3    H127312   3.621   2.804  17.119 -0.5956  0.8068 -1.5611
 1039TIP3    H227313   3.483   2.795  17.057 -1.0451 -1.7209 -0.2984
 1040TIP3   OH227314   2.741   1.553  17.804 -0.6030 -0.3428  0.3131
 1040TIP3    H127315   2.656   1.571  17.844  0.3073  0.1076  2.1476
 1040TIP3    H227316   2.804   1.570  17.873  0.9332 -1.7530 -0.6740
 1041TIP3   OH227317   2.728   4.821  17.876  0.0506  0.3666 -0.0526
 1041TIP3    H127318   2.817   4.818  17.841  0.2646  0.0114  0.5001
 1041TIP3    H227319   2.684   4.745  17.838 -0.4147  1.2502 -1.3368
 1042TIP3   OH227320   2.282   2.212  17.300 -0.5013 -0.2180 -0.0103
 1042TIP3    H127321   2.374   2.230  17.318 -0.3741  2.1167 -2.3536
 1042TIP3    H227322   2.245   2.186  17.384  1.5087  2.3453  1.7994
 1043TIP3   OH227323   0.535   4.406  16.810 -0.1250 -0.0997  0.6302
 1043TIP3    H127324   0.460   4.359  16.773  0.7832 -0.7061 -0.5158
 1043TIP3    H227325   0.537   4.488  16.762  1.1229 -0.9347 -0.8522
 1044TIP3   OH227326   5.009   3.935  18.624  0.9124  0.1377  0.2207
 1044TIP3    H127327   5.039   4.026  18.624  1.3756  0.0388 -2.1056
 1044TIP3    H227328   4.914   3.941  18.610  0.7622  0.2714  1.2289
 1045TIP3   OH227329   1.357   5.628  19.536 -0.2820 -0.4243  0.0676
 1045TIP3    H127330   1.284   5.593  19.486  0.1796 -1.0193 -0.2088
 1045TIP3    H227331   1.338   5.603  19.627 -1.3018  0.9707  0.2634
 1046TIP3   OH227332   5.615   1.741  18.862  0.3995 -0.3251 -0.3379
 1046TIP3    H127333   5.646   1.789  18.939  1.4540 -0.3461 -0.7257
 1046TIP3    H227334   5.579   1.659  18.897 -0.6866  0.3997  0.2591
 1047TIP3   OH227335   5.754   2.473  17.798 -0.4061  0.3175 -0.3995
 1047TIP3    H127336   5.750   2.544  17.734 -1.2310 -0.1332 -0.8654
 1047TIP3    H227337   5.695   2.406  17.764  1.4320 -1.2451 -0.7571
 1048TIP3   OH227338   0.734   5.545  19.083 -0.2846 -0.0066 -0.5394
 1048TIP3    H127339   0.639   5.551  19.091 -0.2783  0.5207 -0.7985
 1048TIP3    H227340   0.763   5.636  19.083  0.3920 -0.1768  1.4426
 1049TIP3   OH227341   7.649   5.674  18.243  0.6363 -0.3605 -0.1950
 1049TIP3    H127342   7.695   5.696  18.324 -0.5256  1.0695  0.1134
 1049TIP3    H227343   7.566   5.721  18.249  1.5996  2.1102 -3.4312
 1050TIP3   OH227344   1.769   3.702  19.036  0.3901  0.6813  0.4545
 1050TIP3    H127345   1.815   3.643  18.977 -0.8745  1.2694 -1.1804
 1050TIP3    H227346   1.677   3.694  19.013  0.0583  2.3533  1.0277
 1051TIP3   OH227347   4.944   4.287  17.758  0.2313 -0.1176 -0.1070
 1051TIP3    H127348   4.991   4.220  17.808 -0.3295  0.2540  0.9497
 1051TIP3    H227349   4.999   4.302  17.680  0.9022 -1.0206  0.1787
 1052TIP3   OH227350   1.630   2.667  19.471  0.1021  0.9360  0.2113
 1052TIP3    H127351   1.658   2.601  19.535 -0.4536  1.5050  1.0630
 1052TIP3    H227352   1.604   2.616  19.394 -0.3986  0.1403  0.8869
 1053TIP3   OH227353   1.012   7.496  17.066  0.4283 -0.2038 -0.4451
 1053TIP3    H127354   1.055   7.464  17.145  0.4063 -0.1058 -0.3930
 1053TIP3    H227355   1.077   7.484  16.997  0.5251 -0.0886 -0.3744
 1054TIP3   OH227356   1.133   0.801  17.898  0.0737 -0.3999 -0.1196
 1054TIP3    H127357   1.116   0.708  17.914  0.7138 -0.4046  0.5910
 1054TIP3    H227358   1.051   0.834  17.860  0.4055 -1.5950 -1.9925
 1055TIP3   OH227359   2.387   1.207  16.911 -0.2237 -0.1717  0.1798
 1055TIP3    H127360   2.316   1.266  16.885 -1.5450 -1.7519  0.0518
 1055TIP3    H227361   2.354   1.162  16.988  1.2027  0.0259  0.9319
 1056TIP3   OH227362   4.541   1.753  18.940 -0.2904 -0.1448  0.0395
 1056TIP3    H127363   4.498   1.799  19.012  0.9185  1.3236 -0.1158
 1056TIP3    H227364   4.506   1.794  18.861 -0.3220 -0.5545 -0.1631
 1057TIP3   OH227365   1.977   6.674  18.931 -0.1893  0.0808  0.6593
 1057TIP3    H127366   1.958   6.733  19.004 -1.7575  0.1024  0.2785
 1057TIP3    H227367   1.909   6.693  18.867  0.1355 -1.1475 -0.0764
 1058TIP3   OH227368   1.270   6.280  17.269  0.4087 -0.2306  0.4159
 1058TIP3    H127369   1.291   6.339  17.341  0.6281  1.1884 -0.7591
 1058TIP3    H227370   1.193   6.320  17.227  1.1210 -0.2398 -0.9526
 1059TIP3   OH227371   2.849   7.137  18.132  0.3294 -0.0465 -0.1407
 1059TIP3    H127372   2.776   7.094  18.088  1.6564 -2.5257 -0.0937
 1059TIP3    H227373   2.865   7.216  18.080 -1.1843 -0.4141 -1.2355
 1060TIP3   OH227374   0.507   2.432  16.881  0.0540  0.2779  0.2602
 1060TIP3    H127375   0.425   2.409  16.836  0.2571  0.2552 -0.1045
 1060TIP3    H227376   0.514   2.369  16.952  0.0439 -0.0853 -0.0553
 1061TIP3   OH227377   2.946   7.356  18.026  0.1857 -0.0908  0.1539
 1061TIP3    H127378   2.949   7.449  18.049 -0.2422 -0.1694  0.5299
 1061TIP3    H227379   2.991   7.351  17.942 -2.3029  0.8973 -1.3232
 1062TIP3   OH227380   2.013   5.986  18.905 -0.7340  0.4782  0.4581
 1062TIP3    H127381   2.070   5.952  18.836  1.5574  0.0209  2.4072
 1062TIP3    H227382   1.975   5.907  18.945  0.0356  0.5316  1.3346
 1063TIP3   OH227383   6.647   5.606  19.270  0.4453  0.6406 -0.2647
 1063TIP3    H127384   6.733   5.622  19.309 -0.6770  1.9053  1.8737
 1063TIP3    H227385   6.643   5.667  19.196  1.7020 -0.1018 -0.9938
 1064TIP3   OH227386   7.305   6.586  16.470  0.0130 -0.3134  0.3182
 1064TIP3    H127387   7.227   6.593  16.525  0.4372  0.5046  0.8278
 1064TIP3    H227388   7.378   6.581  16.531  0.3678 -1.3268 -0.1506
 1065TIP3   OH227389   4.822   2.970  18.507  0.0591  0.3447  0.0576
 1065TIP3    H127390   4.741   2.978  18.457 -2.0701 -0.7528  3.0876
 1065TIP3    H227391   4.874   2.906  18.458 -1.5239 -0.0839 -1.1576
 1066TIP3   OH227392   7.322   3.649  16.876  0.1700  0.1359 -0.0874
 1066TIP3    H127393   7.379   3.710  16.829 -1.1988  0.2521 -1.6666
 1066TIP3    H227394   7.240   3.650  16.827 -0.7832 -0.9648  1.4145
 1067TIP3   OH227395   4.769   7.306  18.036 -0.1661  0.3295 -0.8613
 1067TIP3    H127396   4.765   7.318  17.941 -2.0303 -1.5702 -1.0874
 1067TIP3    H227397   4.781   7.212  18.048  1.2150  0.6646  0.8286
 1068TIP3   OH227398   5.059   3.843  19.335 -0.2979  1.0341  0.2620
 1068TIP3    H127399   5.152   3.858  19.315 -0.5705 -1.1000 -3.5637
 1068TIP3    H227400   5.022   3.931  19.344  1.1899  2.2416 -3.5177
 1069TIP3   OH227401   0.401   5.260  16.331  0.0195 -0.1097 -0.1854
 1069TIP3    H127402   0.311   5.229  16.323 -0.2563  0.4036  0.7974
 1069TIP3    H227403   0.455   5.183  16.311 -0.6391 -0.6603  0.1200
 1070TIP3   OH227404   3.969   2.400  19.444 -0.4662  0.2940  0.0222
 1070TIP3    H127405   3.954   2.351  19.524 -1.5565 -1.3047 -1.0945
 1070TIP3    H227406   3.910   2.474  19.449 -0.5722  0.1694  0.6632
 1071TIP3   OH227407   2.867   3.615  16.498  0.1288  0.2426  0.3447
 1071TIP3    H127408   2.799   3.568  16.546  0.0920 -0.5172 -0.4140
 1071TIP3    H227409   2.827   3.699  16.476 -0.7375 -0.3534 -0.4508
 1072TIP3   OH227410   3.929   0.125  18.561 -0.1650 -0.2174 -0.2851
 1072TIP3    H127411   3.874   0.200  18.541 -1.8439 -1.2269  0.2907
 1072TIP3    H227412   4.017   0.160  18.568 -0.8450  1.6102 -0.4688
 1073TIP3   OH227413   3.521   6.327  19.191 -0.1494  0.0092  0.4387
 1073TIP3    H127414   3.571   6.305  19.112  1.7031 -0.5548  1.7168
 1073TIP3    H227415   3.434   6.348  19.158  0.5134 -0.3737 -1.7446
 1074TIP3   OH227416   1.067   7.567  17.928 -0.0647  0.1875  0.1336
 1074TIP3    H127417   0.985   7.570  17.879  1.0017  1.5025 -1.7662
 1074TIP3    H227418   1.131   7.534  17.864  0.8369 -1.1948  1.6817
 1075TIP3   OH227419   1.774   6.317  17.630  0.5954  0.4598 -0.4104
 1075TIP3    H127420   1.848   6.378  17.631  0.1929  0.9607 -0.7115
 1075TIP3    H227421   1.699   6.370  17.660  0.2740  0.0720 -0.5180
 1076TIP3   OH227422   5.879   3.149  19.378  0.3462  0.2653 -0.2471
 1076TIP3    H127423   5.875   3.233  19.333  0.3068  0.8811  0.8720
 1076TIP3    H227424   5.824   3.161  19.456  0.3557 -0.7924 -0.0609
 1077TIP3   OH227425   1.963   1.709  18.684 -0.2147  0.2097  0.1805
 1077TIP3    H127426   1.909   1.744  18.613 -1.8514  1.4111  1.9142
 1077TIP3    H227427   1.912   1.726  18.763  1.7496 -0.6469  1.7156
 1078TIP3   OH227428   4.852   5.549  17.622  0.2838  0.1224 -0.3884
 1078TIP3    H127429   4.814   5.464  17.601 -2.1286  1.2988 -1.1194
 1078TIP3    H227430   4.945   5.531  17.637 -0.1860 -2.6395 -0.3335
 1079TIP3   OH227431   0.288   4.642  18.074 -0.4363  0.3487 -0.0679
 1079TIP3    H127432   0.227   4.594  18.130  0.2267  0.6519  0.9315
 1079TIP3    H227433   0.357   4.579  18.055  0.0884  0.6957  0.6806
 1080TIP3   OH227434   2.364   4.052  18.641 -0.3812 -0.1055  0.2528
 1080TIP3    H127435   2.331   4.126  18.693  0.3488  0.2409  0.2406
 1080TIP3    H227436   2.385   3.985  18.707 -0.6563 -0.1537  0.2952
 1081TIP3   OH227437   4.629   7.638  18.494 -0.2400  0.1297 -0.6065
 1081TIP3    H127438   4.564   7.573  18.521  0.5948 -0.6843 -0.5172
 1081TIP3    H227439   4.587   7.722  18.512 -0.9208 -0.3845  0.3065
 1082TIP3   OH227440   7.423   2.719  18.495 -0.0266 -0.7317  1.2536
 1082TIP3    H127441   7.509   2.678  18.479 -0.7707 -2.4766  1.4594
 1082TIP3    H227442   7.412   2.781  18.423  0.5774 -1.9173  0.1066
 1083TIP3   OH227443   5.007   7.167  18.724  0.0914  0.6804  0.0491
 1083TIP3    H127444   5.051   7.139  18.644  0.2074 -1.5955  0.8298
 1083TIP3    H227445   4.917   7.186  18.698  0.5537  1.6722 -0.8911
 1084TIP3   OH227446   0.170   2.333  18.596  0.0268 -0.7255  0.0441
 1084TIP3    H127447   0.220   2.262  18.556  1.1750  1.0556 -1.9017
 1084TIP3    H227448   0.235   2.384  18.645 -0.2432  0.4228 -0.7519
 1085TIP3   OH227449   1.988   2.719  17.184 -0.3180 -0.3260 -0.3515
 1085TIP3    H127450   2.005   2.806  17.148  0.0946 -1.1505 -2.2886
 1085TIP3    H227451   1.944   2.735  17.267  2.3821  1.7715  0.8019
 1086TIP3   OH227452   4.189   4.678  18.842  0.5824 -0.1069  0.6496
 1086TIP3    H127453   4.156   4.750  18.789  3.7612  1.5633  0.6706
 1086TIP3    H227454   4.149   4.691  18.928  0.9789  1.6517  0.6176
 1087TIP3   OH227455   6.507   1.931  18.592  0.1548  0.0488 -0.3343
 1087TIP3    H127456   6.577   1.983  18.552 -1.7028  0.9090 -2.7264
 1087TIP3    H227457   6.495   1.856  18.533 -0.2819 -0.6208  0.5792
 1088TIP3   OH227458   5.482   6.180  17.165  0.4617 -0.2979  0.2575
 1088TIP3    H127459   5.453   6.234  17.239 -0.5631 -0.7514  0.2096
 1088TIP3    H227460   5.466   6.233  17.088  1.1094  0.0005  0.3214
 1089TIP3   OH227461   6.412   6.458  19.299  0.5078 -0.0170 -0.2861
 1089TIP3    H127462   6.344   6.399  19.332  0.5696 -1.3154 -2.2509
 1089TIP3    H227463   6.476   6.399  19.259  1.4332  1.3214 -0.8315
 1090TIP3   OH227464   5.343   4.046  17.656  0.1824  0.3044 -0.2180
 1090TIP3    H127465   5.301   4.065  17.572  1.3996  0.6607 -0.7679
 1090TIP3    H227466   5.302   3.965  17.686 -1.1291  0.8178 -0.5529
 1091TIP3   OH227467   1.603   6.577  18.728  0.1217 -0.4385 -0.0897
 1091TIP3    H127468   1.550   6.534  18.661 -0.5384  0.2603 -0.0382
 1091TIP3    H227469   1.541   6.595  18.799  0.7206 -0.7821  0.5265
 1092TIP3   OH227470   1.250   3.619  18.026 -0.0560 -0.5895 -0.2129
 1092TIP3    H127471   1.202   3.688  18.073  0.8051 -0.1702  0.0703
 1092TIP3    H227472   1.341   3.632  18.051  0.3734 -0.6433 -1.6381
 1093TIP3   OH227473   3.482   2.806  17.526 -0.0045 -0.0519  0.2206
 1093TIP3    H127474   3.415   2.810  17.458 -0.7122 -0.5342  0.8608
 1093TIP3    H227475   3.462   2.879  17.585 -0.2938 -0.4946  0.6867
 1094TIP3   OH227476   5.942   1.092  19.174 -0.6337 -0.5485 -0.2341
 1094TIP3    H127477   5.904   1.038  19.104 -0.7177 -0.0466 -0.5808
 1094TIP3    H227478   5.883   1.166  19.182 -0.1135 -0.1261 -0.2776
 1095TIP3   OH227479   1.827   5.531  17.239 -0.8955 -0.1471 -0.0579
 1095TIP3    H127480   1.791   5.451  17.201 -1.3643  1.0364 -2.2974
 1095TIP3    H227481   1.915   5.508  17.267 -1.3238 -1.6342  0.1575
 1096TIP3   OH227482   5.574   6.130  17.537 -0.2038  0.5198 -0.1343
 1096TIP3    H127483   5.610   6.051  17.577  1.9374  2.1861  1.5227
 1096TIP3    H227484   5.536   6.179  17.611  0.0160  1.7658 -0.8178
 1097TIP3   OH227485   2.480   1.377  18.524 -0.4508  0.8232 -0.2392
 1097TIP3    H127486   2.471   1.462  18.482 -1.2277  0.4813 -0.7808
 1097TIP3    H227487   2.408   1.373  18.587 -0.2882  0.6533 -0.0595
 1098TIP3   OH227488   4.609   7.232  18.859  0.5686  0.6579 -0.0375
 1098TIP3    H127489   4.604   7.280  18.942 -0.3615 -1.5445  1.2929
 1098TIP3    H227490   4.598   7.140  18.885  0.6496 -0.1379 -2.5906
 1099TIP3   OH227491   3.400   5.327  18.723 -0.0231  0.1921 -0.7138
 1099TIP3    H127492   3.484   5.285  18.740 -0.2444 -0.5447 -1.3376
 1099TIP3    H227493   3.337   5.254  18.723 -1.0774  0.9581  2.1542
 1100TIP3   OH227494   4.761   3.410  18.724 -0.0658  0.5543 -0.2432
 1100TIP3    H127495   4.838   3.422  18.779 -1.7635  0.7800  2.2271
 1100TIP3    H227496   4.747   3.316  18.722  0.0865  0.5350 -0.4355
 1101TIP3   OH227497   3.951   0.749  18.323 -0.4904 -0.3667 -0.1153
 1101TIP3    H127498   4.033   0.757  18.274 -0.6799 -2.1186 -0.8018
 1101TIP3    H227499   3.973   0.689  18.395 -0.8904  0.0650  0.3683
 1102TIP3   OH227500   4.242   5.894  17.754 -0.6524  0.3514 -0.0730
 1102TIP3    H127501   4.273   5.807  17.729  0.0791  0.5024  0.2628
 1102TIP3    H227502   4.198   5.880  17.838  0.4097  0.4461  0.5311
 1103TIP3   OH227503   6.353   3.165  16.812  0.2107 -0.5163  0.0990
 1103TIP3    H127504   6.368   3.259  16.811  3.4177 -0.8929 -1.2682
 1103TIP3    H227505   6.329   3.143  16.722  1.2123 -1.1553 -0.0352
 1104TIP3   OH227506   1.215   0.297  17.306  0.4235  0.8959 -0.2616
 1104TIP3    H127507   1.150   0.302  17.377  0.9659  0.0083  0.3195
 1104TIP3    H227508   1.188   0.221  17.255  1.1137  0.3898  0.1099
 1105TIP3   OH227509   0.584   6.115  18.782  0.0772  0.3287 -0.3687
 1105TIP3    H127510   0.604   6.028  18.748 -2.2456 -0.1613 -0.6645
 1105TIP3    H227511   0.598   6.174  18.708  0.0202 -0.0315 -0.6671
 1106TIP3   OH227512   5.002   4.488  18.490 -0.1324  0.2331  0.4253
 1106TIP3    H127513   5.002   4.578  18.522  1.0759  0.5287 -0.3338
 1106TIP3    H227514   4.957   4.438  18.558 -1.2124  1.4672  0.6549
 1107TIP3   OH227515   2.640   2.710  17.216 -0.4180  0.0151 -0.1385
 1107TIP3    H127516   2.611   2.749  17.133  1.3269  1.3546 -0.1994
 1107TIP3    H227517   2.657   2.786  17.272  0.4289 -0.7903  0.7171
 1108TIP3   OH227518   0.969   2.591  17.681 -0.1396  0.1245  0.4742
 1108TIP3    H127519   0.877   2.581  17.706 -0.2010  1.6864  1.0142
 1108TIP3    H227520   0.993   2.508  17.640 -1.8486 -0.2189  0.1315
 1109TIP3   OH227521   5.626   7.458  17.820 -0.0748 -0.2102  0.0789
 1109TIP3    H127522   5.688   7.389  17.844 -1.2867 -1.6446 -0.7103
 1109TIP3    H227523   5.549   7.440  17.874 -0.8982 -0.2959 -1.0875
 1110TIP3   OH227524   4.556   2.956  18.355  0.5641 -0.0078 -0.2847
 1110TIP3    H127525   4.555   2.928  18.264  0.9472  2.1500 -1.0045
 1110TIP3    H227526   4.530   3.048  18.353 -0.9385 -0.2976  1.9628
 1111TIP3   OH227527   4.746   2.559  18.756  0.2978  0.5082  0.5220
 1111TIP3    H127528   4.733   2.464  18.746 -0.4407  0.5451  1.0472
 1111TIP3    H227529   4.729   2.575  18.849 -0.5416  1.3027  0.2357
 1112TIP3   OH227530   6.322   7.517  17.323  0.2043 -0.0575  0.3594
 1112TIP3    H127531   6.274   7.488  17.245 -0.1388  2.3657 -0.4317
 1112TIP3    H227532   6.259   7.570  17.372  1.5274  1.8604  0.1247
 1113TIP3   OH227533   5.288   7.251  18.325  0.3065  0.2479 -0.0545
 1113TIP3    H127534   5.247   7.338  18.329  0.0702  0.2084 -1.3169
 1113TIP3    H227535   5.289   7.221  18.416  1.6100  2.1369  0.6319
 1114TIP3   OH227536   4.089   0.473  18.318  0.3742  0.5335  0.2283
 1114TIP3    H127537   4.133   0.553  18.288 -0.7123  1.1112  0.1306
 1114TIP3    H227538   4.082   0.419  18.239 -1.6434  1.6600 -0.4415
 1115TIP3   OH227539   1.643   3.418  17.874  0.1442 -0.4365  0.4017
 1115TIP3    H127540   1.694   3.451  17.948  1.4066 -0.2315 -0.5303
 1115TIP3    H227541   1.551   3.432  17.900  0.5733  0.3509  1.5839
 1116TIP3   OH227542   0.819   3.062  17.287 -0.0402 -0.7548 -0.0874
 1116TIP3    H127543   0.793   3.018  17.367 -1.6993 -0.3174 -0.3507
 1116TIP3    H227544   0.775   3.013  17.217 -2.0212  1.3092 -0.3816
 1117TIP3   OH227545   1.418   4.800  19.357  0.3158 -0.3147 -0.1730
 1117TIP3    H127546   1.413   4.764  19.445  1.7359  0.2152  0.1504
 1117TIP3    H227547   1.430   4.894  19.370 -1.2474  0.0427 -0.9788
 1118TIP3   OH227548   6.888   4.043  18.440 -0.0406 -0.1343  0.6087
 1118TIP3    H127549   6.850   4.118  18.486 -0.2535 -0.2093  0.5591
 1118TIP3    H227550   6.929   3.991  18.509 -1.1926 -0.7484  0.8553
 1119TIP3   OH227551   2.085   7.474  16.529  0.1933 -0.0154  0.2859
 1119TIP3    H127552   2.143   7.457  16.603 -2.9145  1.0743  3.2401
 1119TIP3    H227553   2.051   7.387  16.506  1.0744 -0.3499  0.2136
 1120TIP3   OH227554   1.301   3.035  19.251 -0.4448  0.4735 -0.4095
 1120TIP3    H127555   1.384   3.071  19.282 -0.9971  0.4206  1.2331
 1120TIP3    H227556   1.256   3.006  19.331 -1.5075 -0.6549 -1.3743
 1121TIP3   OH227557   6.107   1.710  19.039  0.0155 -0.0067  0.1079
 1121TIP3    H127558   6.062   1.653  19.101  1.0878  0.8233  1.7229
 1121TIP3    H227559   6.167   1.652  18.992 -1.2480 -0.7538 -0.6402
 1122TIP3   OH227560   2.175   3.073  16.956  0.6968  0.0925 -0.2119
 1122TIP3    H127561   2.225   3.147  16.921  2.6677 -1.0827 -0.0089
 1122TIP3    H227562   2.231   2.997  16.940  0.2735 -0.9034  2.5966
 1123TIP3   OH227563   2.917   6.031  16.690 -0.1783 -0.0334 -0.2536
 1123TIP3    H127564   2.865   6.092  16.636 -0.0627  0.6404  0.3806
 1123TIP3    H227565   2.859   5.956  16.704 -0.5181  0.1579 -0.6019
 1124TIP3   OH227566   7.587   1.938  18.286  0.4913  0.3971  0.1299
 1124TIP3    H127567   7.668   1.918  18.239  0.6482 -0.9144  0.9031
 1124TIP3    H227568   7.616   1.964  18.374  0.1561  1.8485 -0.1707
 1125TIP3   OH227569   7.274   6.297  16.319 -0.2483 -0.1582  0.7740
 1125TIP3    H127570   7.313   6.382  16.337 -1.4810  0.3743  1.0420
 1125TIP3    H227571   7.206   6.287  16.386 -0.8494 -0.8667  0.0837
 1126TIP3   OH227572   3.175   4.866  18.901  0.3426 -0.4910  0.3813
 1126TIP3    H127573   3.154   4.845  18.810  0.9250  1.5207 -0.2757
 1126TIP3    H227574   3.091   4.860  18.947 -0.3578  0.4877 -0.7278
 1127TIP3   OH227575   0.541   0.927  18.343  0.2942  0.3918 -0.2107
 1127TIP3    H127576   0.456   0.970  18.348  0.4630  1.1153 -2.5750
 1127TIP3    H227577   0.540   0.864  18.415 -2.6919 -0.4631 -0.8749
 1128TIP3   OH227578   2.238   2.813  18.551 -0.0380  0.4458 -0.0800
 1128TIP3    H127579   2.215   2.805  18.643  0.3473 -0.9090 -0.0685
 1128TIP3    H227580   2.261   2.723  18.524  0.0290  0.8382 -1.4397
 1129TIP3   OH227581   1.465   0.018  17.920 -0.5094 -0.6219  0.2087
 1129TIP3    H127582   1.547   0.012  17.968 -1.4967  1.4413  2.3373
 1129TIP3    H227583   1.446   0.112  17.915 -2.5191 -1.0021 -0.6160
 1130TIP3   OH227584   2.032   3.474  17.659 -0.1997 -0.0138 -0.2430
 1130TIP3    H127585   2.069   3.397  17.704 -1.2439 -0.1349  0.4300
 1130TIP3    H227586   2.076   3.474  17.574  1.7951  0.1936  0.7138
 1131TIP3   OH227587   6.801   6.987  17.854 -0.2691 -0.5389 -0.2664
 1131TIP3    H127588   6.735   7.027  17.797 -0.9665 -0.9530  0.2391
 1131TIP3    H227589   6.854   6.933  17.795 -2.1726 -2.5275 -0.2939
 1132TIP3   OH227590   3.981   6.484  18.458 -0.5758  0.5141 -0.5346
 1132TIP3    H127591   3.926   6.520  18.527  0.4986  1.2349 -0.0412
 1132TIP3    H227592   3.959   6.535  18.380 -1.4758 -0.0137 -0.6376
 1133TIP3   OH227593   3.530   7.044  19.223 -0.0036 -0.4611  0.2973
 1133TIP3    H127594   3.436   7.054  19.217  0.0946 -0.4689 -1.6842
 1133TIP3    H227595   3.558   7.116  19.280 -1.0919  0.1613  0.0666
 1134TIP3   OH227596   5.646   5.033  18.711  0.2565  0.6937 -0.0940
 1134TIP3    H127597   5.655   5.115  18.759 -1.2815 -0.3638  2.1863
 1134TIP3    H227598   5.560   5.040  18.669 -0.0968  0.0821  0.5096
 1135TIP3   OH227599   7.634   1.995  17.361 -0.2012  0.7567  0.0662
 1135TIP3    H127600   7.712   1.958  17.404  0.1122  0.5810 -0.6436
 1135TIP3    H227601   7.668   2.071  17.312 -0.6128  1.1603  0.3995
 1136TIP3   OH227602   6.504   6.281  16.896 -0.1516  0.0590  0.2522
 1136TIP3    H127603   6.539   6.242  16.816  1.4637  0.4404  0.7255
 1136TIP3    H227604   6.534   6.223  16.966  0.9080  1.2223  0.8131
 1137TIP3   OH227605   0.675   0.677  18.796 -0.4274 -0.1530  0.1433
 1137TIP3    H127606   0.704   0.588  18.777  0.4899 -0.3236  2.1077
 1137TIP3    H227607   0.635   0.707  18.714 -0.7222 -2.3365 -0.5819
 1138TIP3   OH227608   2.391   7.384  17.976 -0.1846  0.4387  0.1087
 1138TIP3    H127609   2.385   7.420  18.064 -1.7016  2.0193 -0.5616
 1138TIP3    H227610   2.395   7.461  17.919 -0.1600 -0.5267 -1.2456
 1139TIP3   OH227611   6.231   0.484  19.132 -0.3390 -0.3322  0.0126
 1139TIP3    H127612   6.283   0.409  19.103  1.1668  0.5916  0.2259
 1139TIP3    H227613   6.184   0.452  19.209  0.1160 -1.1130 -0.0226
 1140TIP3   OH227614   6.587   2.902  18.897  1.0047  0.5376 -0.0434
 1140TIP3    H127615   6.606   2.808  18.904 -1.1936 -0.1248 -1.7864
 1140TIP3    H227616   6.501   2.912  18.937  1.2366  1.8239  0.1540
 1141TIP3   OH227617   4.328   7.431  16.780  0.1912 -0.1053 -0.1385
 1141TIP3    H127618   4.325   7.445  16.685  0.6973  1.1694  0.0101
 1141TIP3    H227619   4.411   7.387  16.795  0.3214  0.0997 -0.2488
 1142TIP3   OH227620   1.243   3.643  18.747  0.2133 -0.2071 -0.3167
 1142TIP3    H127621   1.244   3.604  18.834 -0.5543  1.7334  0.5922
 1142TIP3    H227622   1.181   3.589  18.698 -0.2997 -0.5538  0.6870
 1143TIP3   OH227623   2.662   0.315  17.409 -0.0478 -0.5169 -0.1455
 1143TIP3    H127624   2.612   0.268  17.342 -1.5266  0.2095  0.3954
 1143TIP3    H227625   2.605   0.387  17.435  1.8569  1.2283 -0.4855
 1144TIP3   OH227626   5.854   6.710  17.686 -0.1357  0.2297  0.0819
 1144TIP3    H127627   5.818   6.624  17.709  1.7145 -0.4661  0.5743
 1144TIP3    H227628   5.944   6.692  17.658  1.5028  2.2438  3.3560
 1145TIP3   OH227629   0.572   3.009  18.577  0.1788  0.1031 -0.4099
 1145TIP3    H127630   0.559   3.016  18.672  1.3160 -1.8798 -0.0511
 1145TIP3    H227631   0.634   3.079  18.557 -1.1089  1.4248  0.0270
 1146TIP3   OH227632   4.971   5.720  18.262 -0.3294  0.2162 -0.4240
 1146TIP3    H127633   4.911   5.784  18.301 -0.7088  0.8150 -1.9143
 1146TIP3    H227634   5.057   5.760  18.269 -0.4555  0.5198 -0.6222
 1147TIP3   OH227635   3.537   3.882  18.445  0.0456 -0.1140  0.5787
 1147TIP3    H127636   3.535   3.961  18.499 -0.5363  0.4066 -0.2020
 1147TIP3    H227637   3.471   3.896  18.378  1.4388 -0.3436 -0.8824
 1148TIP3   OH227638   3.015   2.499  18.810  0.1540  0.6794  0.4260
 1148TIP3    H127639   3.039   2.537  18.725 -0.6093  2.7101  1.0550
 1148TIP3    H227640   2.922   2.479  18.802 -0.2374  2.1098  1.1806
 1149TIP3   OH227641   4.576   3.592  18.828 -0.2532  0.1606  0.5347
 1149TIP3    H127642   4.626   3.533  18.771 -1.1438 -0.8237  0.7456
 1149TIP3    H227643   4.638   3.616  18.897  0.0246 -0.8008  0.6306
 1150TIP3   OH227644   5.589   7.023  17.296 -0.5731  0.0148 -0.2535
 1150TIP3    H127645   5.658   7.017  17.230 -1.3393  0.5365 -1.1332
 1150TIP3    H227646   5.592   6.940  17.342  0.0408 -0.3206 -0.8786
 1151TIP3   OH227647   5.753   3.851  17.465  0.2534 -0.2852 -0.0531
 1151TIP3    H127648   5.793   3.897  17.539 -2.2292  0.6255  0.8319
 1151TIP3    H227649   5.740   3.762  17.497  0.7693 -0.3529 -0.0261
 1152TIP3   OH227650   6.783   0.030  18.694  0.3817  0.3617  0.4269
 1152TIP3    H127651   6.818   0.045  18.606 -1.4934 -3.3266 -1.2152
 1152TIP3    H227652   6.814  -0.057  18.718 -2.8815 -0.7611  1.2312
 1153TIP3   OH227653   5.262   0.026  19.538 -0.3917 -0.1222 -0.3225
 1153TIP3    H127654   5.218   0.098  19.584 -2.7114 -1.8589  0.3553
 1153TIP3    H227655   5.355   0.049  19.540 -0.9432  2.2565  0.8849
 1154TIP3   OH227656   2.838   0.397  18.408 -0.0206 -0.1102 -0.1289
 1154TIP3    H127657   2.918   0.351  18.386  0.0870  0.8213 -1.8430
 1154TIP3    H227658   2.778   0.329  18.440  0.0539 -1.5069 -2.7542
 1155TIP3   OH227659   2.593   6.102  17.813  0.0328 -0.0658 -0.1996
 1155TIP3    H127660   2.589   6.116  17.718  0.1943 -1.1873 -0.3833
 1155TIP3    H227661   2.504   6.074  17.836  0.0599 -0.0324 -0.0558
 1156TIP3   OH227662   5.660   6.113  18.034  0.2930  0.6537  0.0837
 1156TIP3    H127663   5.691   6.039  17.981 -1.2684  1.7685 -2.5810
 1156TIP3    H227664   5.612   6.071  18.105  0.0902 -0.9460 -0.9235
 1157TIP3   OH227665   3.576   0.527  17.796  0.6081 -0.1242  0.8808
 1157TIP3    H127666   3.513   0.582  17.843 -0.9191 -0.2975 -0.8355
 1157TIP3    H227667   3.652   0.584  17.781 -0.4772  1.1861  0.1492
 1158TIP3   OH227668   5.300   2.339  17.646  0.0877  0.1733  0.3972
 1158TIP3    H127669   5.300   2.397  17.722 -1.4897  0.5334  0.1660
 1158TIP3    H227670   5.212   2.349  17.608  0.1848 -1.4505 -0.3587
 1159TIP3   OH227671   2.127   1.099  18.452 -0.4320 -0.3264  0.5064
 1159TIP3    H127672   2.133   1.021  18.397 -2.9687 -1.2084  1.3379
 1159TIP3    H227673   2.103   1.066  18.538  1.9380  1.1487  1.8254
 1160TIP3   OH227674   4.797   4.736  16.891 -0.0618  0.2991 -0.3758
 1160TIP3    H127675   4.803   4.654  16.941 -0.3142  0.7718  0.4335
 1160TIP3    H227676   4.888   4.756  16.867 -0.1824 -1.7888 -3.2201
 1161TIP3   OH227677   6.249   0.316  18.010 -0.1720  0.1762  0.7560
 1161TIP3    H127678   6.160   0.336  17.981 -0.3039  2.0452  2.2980
 1161TIP3    H227679   6.241   0.232  18.056 -1.1340  0.3317  0.8883
 1162TIP3   OH227680   6.535   7.060  17.711  0.1111  0.8747  0.2632
 1162TIP3    H127681   6.497   7.137  17.668 -1.9111 -1.0557 -1.6216
 1162TIP3    H227682   6.473   7.038  17.779  1.4102  1.6628  1.7705
 1163TIP3   OH227683   1.120   4.286  18.990 -0.3731 -0.1512  0.1342
 1163TIP3    H127684   1.072   4.252  19.065 -0.8853 -0.3300 -0.2589
 1163TIP3    H227685   1.187   4.343  19.027 -0.1849 -0.7725  0.7530
 1164TIP3   OH227686   1.722   0.322  18.317  0.1314  0.1440 -0.1147
 1164TIP3    H127687   1.775   0.248  18.348  0.7350  0.4567 -0.3909
 1164TIP3    H227688   1.712   0.378  18.394  0.5460  0.2904 -0.1710
 1165TIP3   OH227689   0.200   6.934  19.170 -0.0054  0.6992  0.2421
 1165TIP3    H127690   0.200   6.992  19.246 -0.9160  0.1572  0.6765
 1165TIP3    H227691   0.140   6.863  19.194 -0.6973  0.7748 -1.1777
 1166TIP3   OH227692   4.471   2.120  19.361  0.0053 -0.1768 -0.1867
 1166TIP3    H127693   4.553   2.166  19.341  0.2038 -1.5183 -2.8498
 1166TIP3    H227694   4.404   2.189  19.362  0.7621  0.5875 -0.8153
 1167TIP3   OH227695   4.729   2.040  17.836 -0.2432  0.1435 -0.2630
 1167TIP3    H127696   4.668   2.023  17.764 -0.7510  0.0953  0.1738
 1167TIP3    H227697   4.677   2.090  17.900 -0.0305 -0.5040  0.4261
 1168TIP3   OH227698   6.183   2.225  19.141  0.0586  0.3107 -0.1601
 1168TIP3    H127699   6.212   2.136  19.163 -1.0643 -0.6216 -2.1397
 1168TIP3    H227700   6.264   2.270  19.116  0.7442  0.1065  1.5814
 1169TIP3   OH227701   0.422   3.694  18.642 -0.3814 -0.1463 -0.3197
 1169TIP3    H127702   0.393   3.693  18.734  3.0315  1.0326  0.9094
 1169TIP3    H227703   0.340   3.700  18.592 -2.3801 -0.6740  2.5945
 1170TIP3   OH227704   0.942   3.656  16.481 -0.3029  0.2334  0.4675
 1170TIP3    H127705   1.012   3.676  16.543 -1.0493  3.7422  0.3864
 1170TIP3    H227706   0.864   3.647  16.536 -0.1983 -1.5438  0.3748
 1171TIP3   OH227707   2.712   0.252  19.228 -0.2824 -0.5342 -0.9499
 1171TIP3    H127708   2.737   0.177  19.282 -1.1302 -0.3585 -0.2829
 1171TIP3    H227709   2.658   0.215  19.158 -0.2795 -0.6106 -0.9116
 1172TIP3   OH227710   4.083   3.164  17.409 -0.4067  0.1761  0.2903
 1172TIP3    H127711   4.019   3.231  17.434 -0.5764 -0.4617  1.5961
 1172TIP3    H227712   4.043   3.120  17.334 -1.6988 -0.4822  1.3357
 1173TIP3   OH227713   4.799   6.247  17.285  0.5515 -0.5169  0.0781
 1173TIP3    H127714   4.793   6.212  17.374  1.9684  0.7492  0.7139
 1173TIP3    H227715   4.886   6.222  17.255  0.8849  0.8496 -0.1438
 1174TIP3   OH227716   2.839   7.301  18.381  0.0806 -0.0465 -0.3705
 1174TIP3    H127717   2.757   7.302  18.430  0.6096  0.8131  0.5283
 1174TIP3    H227718   2.822   7.242  18.307 -1.9949  1.6176 -1.3437
 1175TIP3   OH227719   6.187   1.486  18.937 -0.4838 -0.0687  0.3334
 1175TIP3    H127720   6.121   1.465  18.871 -0.4255  1.0277 -0.0869
 1175TIP3    H227721   6.192   1.407  18.991 -1.9308 -0.2847  0.2041
 1176TIP3   OH227722   6.838   7.503  17.538  0.0071 -0.2868 -0.2346
 1176TIP3    H127723   6.821   7.548  17.455 -3.2935  1.1465  1.0564
 1176TIP3    H227724   6.923   7.536  17.566  0.2387  0.7895 -2.0377
 1177TIP3   OH227725   5.742   0.179  17.673  0.1722  0.5640 -0.3984
 1177TIP3    H127726   5.815   0.158  17.731  0.2175  1.2189 -0.2051
 1177TIP3    H227727   5.776   0.247  17.615 -0.7977  2.2841  0.9324
 1178TIP3   OH227728   1.061   1.849  18.058 -0.1942  0.1308 -0.0052
 1178TIP3    H127729   1.091   1.846  17.967 -3.2045  1.4319 -1.1899
 1178TIP3    H227730   1.120   1.911  18.101  0.8677  0.0376 -1.2736
 1179TIP3   OH227731   0.841   4.074  17.358  0.0938 -0.2308  0.3237
 1179TIP3    H127732   0.930   4.054  17.385  1.5984 -0.2309 -3.9481
 1179TIP3    H227733   0.795   3.990  17.361  0.2005 -0.2665  2.3257
 1180TIP3   OH227734   5.105   1.075  18.260  0.0628  0.0316  0.4663
 1180TIP3    H127735   5.070   1.038  18.341 -2.6480 -0.1749 -0.6891
 1180TIP3    H227736   5.136   0.999  18.211 -2.1338 -0.4029 -0.3654
 1181TIP3   OH227737   3.647   5.197  18.207  0.2616  0.3980 -0.1054
 1181TIP3    H127738   3.641   5.289  18.182  0.4209  0.6037  0.6073
 1181TIP3    H227739   3.736   5.171  18.182 -0.2888 -0.0171 -1.7803
 1182TIP3   OH227740   7.145   0.792  17.688  0.3034  0.1879 -0.0687
 1182TIP3    H127741   7.159   0.843  17.768  0.8207  1.3961 -0.8914
 1182TIP3    H227742   7.226   0.743  17.675  0.5497  0.6481 -0.2966
 1183TIP3   OH227743   0.888   5.563  16.603 -0.0556  0.7688 -0.1562
 1183TIP3    H127744   0.937   5.638  16.637  0.8355  0.1004  0.0720
 1183TIP3    H227745   0.850   5.522  16.681  1.3086 -0.2881 -0.0046
 1184TIP3   OH227746   2.393   4.485  18.970 -0.0812 -0.0425  0.6690
 1184TIP3    H127747   2.300   4.507  18.983  0.1628  0.7707  1.1201
 1184TIP3    H227748   2.393   4.391  18.951 -1.0186 -0.0059  0.4204
 1185TIP3   OH227749   5.374   3.609  17.979  0.4846  0.8240  0.2083
 1185TIP3    H127750   5.419   3.594  18.062  1.3225 -2.2281 -0.6678
 1185TIP3    H227751   5.286   3.573  17.993 -0.2378  2.5800  0.4742
 1186TIP3   OH227752   1.576   5.637  17.015  0.3129 -0.4096 -0.2128
 1186TIP3    H127753   1.549   5.688  17.091 -1.9620 -0.6319 -0.8122
 1186TIP3    H227754   1.600   5.552  17.050 -0.6811 -0.4985  0.2585
 1187TIP3   OH227755   6.970   1.195  19.000  0.0431 -0.0106 -0.6496
 1187TIP3    H127756   7.030   1.256  18.958  1.3871 -1.3703 -0.7945
 1187TIP3    H227757   6.937   1.140  18.929  1.8228 -1.8978 -0.0979
 1188TIP3   OH227758   6.615   0.666  18.087 -0.1351  0.0064 -0.2395
 1188TIP3    H127759   6.621   0.573  18.108  0.8495  0.3776  1.3032
 1188TIP3    H227760   6.583   0.707  18.168 -1.1660  0.9517 -1.0827
 1189TIP3   OH227761   3.511   3.073  18.120  0.0899 -0.0176  0.5316
 1189TIP3    H127762   3.474   3.001  18.171  0.7027  0.7207  2.0481
 1189TIP3    H227763   3.462   3.150  18.148 -0.9493  0.1367 -1.4784
 1190TIP3   OH227764   5.319   7.307  19.161  0.2039  0.3644  0.4800
 1190TIP3    H127765   5.394   7.364  19.146 -0.1803  0.5366 -0.8763
 1190TIP3    H227766   5.263   7.356  19.221  0.4013  0.9416  0.1992
 1191TIP3   OH227767   6.250   6.217  19.297 -0.3116 -0.3255  0.5152
 1191TIP3    H127768   6.286   6.140  19.342 -0.5253 -0.5367  0.3341
 1191TIP3    H227769   6.247   6.191  19.205  1.1591  0.5058  0.2061
 1192TIP3   OH227770   1.940   4.395  19.246 -0.2786  0.4349  0.6042
 1192TIP3    H127771   1.874   4.343  19.201  0.7229 -0.3254 -0.0534
 1192TIP3    H227772   1.993   4.330  19.293  0.7432  0.8730  0.1035
 1193TIP3   OH227773   6.976   0.079  18.482 -0.2137  0.2841 -0.0337
 1193TIP3    H127774   7.023  -0.005  18.476 -1.5697 -0.6491  1.4872
 1193TIP3    H227775   7.044   0.143  18.502  0.9151 -0.3587 -1.6551
 1194TIP3   OH227776   6.063   3.247  17.666  0.8232 -0.1614 -0.3135
 1194TIP3    H127777   6.145   3.211  17.699  0.5023  0.1895  0.9107
 1194TIP3    H227778   6.087   3.331  17.628  1.0432 -0.1137 -0.0698
 1195TIP3   OH227779   4.843   0.596  19.198 -0.0910 -0.3496 -0.3926
 1195TIP3    H127780   4.831   0.503  19.220  1.5536 -0.4060  0.4503
 1195TIP3    H227781   4.840   0.598  19.102  0.4480 -1.3820 -0.4506
 1196TIP3   OH227782   3.086   5.602  17.385  0.1217 -0.3637 -0.2063
 1196TIP3    H127783   3.048   5.575  17.469 -1.1507 -0.0871 -0.6732
 1196TIP3    H227784   3.137   5.527  17.357  0.2627 -0.5972  0.6412
 1197TIP3   OH227785   4.921   5.975  17.545 -0.2632 -0.2291 -0.1728
 1197TIP3    H127786   4.857   6.046  17.546  1.1049  1.1174  2.5150
 1197TIP3    H227787   4.907   5.929  17.627  1.6901 -0.3279  0.1590
 1198TIP3   OH227788   1.301   5.476  18.932 -0.0463 -0.5997 -0.2578
 1198TIP3    H127789   1.388   5.515  18.921  0.6502 -1.9390  0.3027
 1198TIP3    H227790   1.287   5.425  18.852  0.1014 -1.1601  0.0728
 1199TIP3   OH227791   3.742   2.335  17.126  0.0356 -0.6687  0.4262
 1199TIP3    H127792   3.699   2.262  17.170 -2.6645 -1.0163 -2.4567
 1199TIP3    H227793   3.791   2.295  17.054 -0.5719  0.2409 -0.5206
 1200TIP3   OH227794   3.354   0.807  19.028 -0.2726  0.3120 -0.0472
 1200TIP3    H127795   3.332   0.714  19.034 -1.3200  0.5695  0.2400
 1200TIP3    H227796   3.270   0.852  19.025  0.2045  1.1755 -1.8988
 1201TIP3   OH227797   3.024   2.004  17.686  0.2413 -0.3025  0.1131
 1201TIP3    H127798   2.929   2.007  17.692  0.3213  0.1623  1.2136
 1201TIP3    H227799   3.043   1.913  17.662 -0.4351 -0.6068  0.7154
 1202TIP3   OH227800   1.365   2.309  19.175  0.6759  0.2937 -0.1674
 1202TIP3    H127801   1.294   2.267  19.225 -0.3253 -0.3486 -1.9985
 1202TIP3    H227802   1.323   2.384  19.133  0.7949 -0.6051 -1.9908
 1203TIP3   OH227803   5.119   0.716  18.862  0.2128  0.0973 -0.2953
 1203TIP3    H127804   5.191   0.658  18.884  1.3198  1.1889 -0.9116
 1203TIP3    H227805   5.115   0.779  18.935 -0.2396 -0.0588 -0.1782
 1204TIP3   OH227806   1.091   7.050  17.094 -0.0669  0.1248  0.2386
 1204TIP3    H127807   1.083   6.955  17.100 -1.7065  0.1963 -0.2700
 1204TIP3    H227808   1.091   7.069  17.000 -0.9910  0.6805  0.3342
 1205TIP3   OH227809   3.524   0.928  17.415 -0.2124 -0.1811  0.6234
 1205TIP3    H127810   3.494   1.003  17.363 -0.9303 -1.1105 -0.3594
 1205TIP3    H227811   3.447   0.872  17.422  0.2778 -0.7655  1.4678
 1206TIP3   OH227812   0.244   2.189  17.961 -0.7965  0.0736 -0.1632
 1206TIP3    H127813   0.285   2.272  17.986 -1.1249  0.0984  0.2959
 1206TIP3    H227814   0.157   2.192  18.000 -0.7035 -0.6151  0.1185
 1207TIP3   OH227815   1.351   7.237  17.566 -0.0191 -0.6164  0.5029
 1207TIP3    H127816   1.430   7.277  17.528 -0.0316 -0.4000  0.7038
 1207TIP3    H227817   1.385   7.166  17.620 -0.0504 -1.5534 -0.6583
 1208TIP3   OH227818   3.067   0.931  17.472  0.1366 -0.6663  0.1054
 1208TIP3    H127819   3.080   1.023  17.496 -0.1139 -0.0884 -1.7981
 1208TIP3    H227820   2.978   0.928  17.438 -0.2871 -1.8932  1.2448
 1209TIP3   OH227821   2.195   2.193  18.382 -0.1019 -0.1533 -0.2668
 1209TIP3    H127822   2.115   2.226  18.422 -0.4748 -1.6851  0.3294
 1209TIP3    H227823   2.254   2.268  18.379 -0.2393  0.1935  2.6985
 1210TIP3   OH227824   3.382   2.181  19.297  0.6021 -0.1279 -0.5641
 1210TIP3    H127825   3.291   2.202  19.316  1.4304  2.8508  0.7938
 1210TIP3    H227826   3.399   2.224  19.213  0.5491 -1.4817 -1.2875
 1211TIP3   OH227827   1.867   5.688  18.057 -0.7533  0.0262  0.2291
 1211TIP3    H127828   1.795   5.751  18.068 -0.4206  1.3742 -3.8627
 1211TIP3    H227829   1.854   5.652  17.970  3.1735 -0.1245 -0.4614
 1212TIP3   OH227830   0.196   0.174  18.492  0.7590 -0.4918  0.1092
 1212TIP3    H127831   0.136   0.155  18.420 -1.1030 -0.4105  1.5853
 1212TIP3    H227832   0.259   0.102  18.490 -0.4796 -1.5892 -0.3418
 1213TIP3   OH227833   2.210   6.035  18.396 -0.1263 -0.2204 -0.0617
 1213TIP3    H127834   2.120   6.022  18.366 -0.0948  0.0189 -0.2706
 1213TIP3    H227835   2.203   6.100  18.466  0.0555  1.1661 -1.2710
 1214TIP3   OH227836   0.524   2.208  18.176  0.2251 -0.4605  0.3002
 1214TIP3    H127837   0.465   2.283  18.169  0.6122 -0.2684 -1.2033
 1214TIP3    H227838   0.612   2.247  18.177  0.3791 -0.7829  1.7992
 1215TIP3   OH227839   2.126   7.461  17.640  0.0962 -0.6043 -0.1316
 1215TIP3    H127840   2.214   7.497  17.635  0.2459 -1.0393 -0.6021
 1215TIP3    H227841   2.136   7.368  17.622 -0.7094 -0.3215 -2.4099
 1216TIP3   OH227842   1.305   0.213  18.479 -0.1768  0.5067  0.2542
 1216TIP3    H127843   1.307   0.124  18.515 -2.9055  1.3778  3.0461
 1216TIP3    H227844   1.340   0.268  18.550 -0.4289  1.8498 -0.6261
 1217TIP3   OH227845   7.416   1.902  17.529 -0.0703 -0.5394  0.3345
 1217TIP3    H127846   7.473   1.906  17.452 -0.2346  0.5095  0.2550
 1217TIP3    H227847   7.371   1.817  17.520  0.8556 -1.0114 -0.0310
 1218TIP3   OH227848   3.604   2.645  18.007 -0.4169 -0.2308  0.4628
 1218TIP3    H127849   3.690   2.649  18.049  0.1928 -0.2165 -0.7543
 1218TIP3    H227850   3.620   2.669  17.916 -1.7588  0.0452  0.2720
 1219TIP3   OH227851   2.903   5.827  17.704  1.0329  0.5606 -0.3995
 1219TIP3    H127852   2.839   5.797  17.769  1.6893  2.1913  1.0764
 1219TIP3    H227853   2.970   5.758  17.702  0.1133 -0.3472 -0.7044
 1220TIP3   OH227854   1.702   4.906  16.935  0.0696  0.0364  0.5748
 1220TIP3    H127855   1.686   4.885  16.843  0.1924 -1.6316  0.9006
 1220TIP3    H227856   1.686   4.824  16.981 -2.1123  1.3454  2.3391
 1221TIP3   OH227857   6.849   0.353  18.897  0.2380 -0.0782 -0.5626
 1221TIP3    H127858   6.864   0.361  18.991  0.4384  0.0125 -0.6007
 1221TIP3    H227859   6.754   0.340  18.889 -0.0494  1.6005 -0.4328
 1222TIP3   OH227860   1.575   6.204  16.580  0.1608 -0.3902 -0.3204
 1222TIP3    H127861   1.584   6.246  16.666  1.7056  0.3428 -0.7994
 1222TIP3    H227862   1.481   6.200  16.564 -0.1153  0.1434  1.0724
 1223TIP3   OH227863   2.579   1.238  17.783  0.4835 -0.2286  0.2397
 1223TIP3    H127864   2.552   1.272  17.868  3.1767 -1.2542  1.6308
 1223TIP3    H227865   2.674   1.229  17.790  0.6396 -1.6543 -2.4124
 1224TIP3   OH227866   7.111   1.900  17.522  0.2127 -0.3218  0.7438
 1224TIP3    H127867   7.204   1.881  17.534  0.0349 -1.0255  1.1192
 1224TIP3    H227868   7.101   1.914  17.428  0.2386 -3.1362  0.2246
 1225TIP3   OH227869   4.202   4.099  16.822 -0.1090  0.1227 -0.3060
 1225TIP3    H127870   4.295   4.081  16.808  0.3510  1.7553  0.4723
 1225TIP3    H227871   4.167   4.111  16.733  0.5503  0.1200 -0.5758
 1226TIP3   OH227872   7.528   3.986  17.320 -0.7028 -0.2084 -0.0398
 1226TIP3    H127873   7.618   3.970  17.347 -0.3741  1.2572 -0.1616
 1226TIP3    H227874   7.476   3.978  17.400 -0.3793 -0.4428  0.1445
 1227TIP3   OH227875   7.213   4.103  18.461  0.3157 -0.5703 -0.1445
 1227TIP3    H127876   7.292   4.094  18.514 -0.2450 -1.3582  0.5898
 1227TIP3    H227877   7.147   4.053  18.508 -0.7259  0.3778 -0.5422
 1228TIP3   OH227878   6.841   5.363  16.854  0.0672  0.4394 -0.1326
 1228TIP3    H127879   6.845   5.298  16.784 -0.2676 -0.3368  0.5542
 1228TIP3    H227880   6.916   5.420  16.837  0.1019  0.1480 -1.0123
 1229TIP3   OH227881   3.419   2.131  18.470  0.4205  0.5925  0.1831
 1229TIP3    H127882   3.342   2.164  18.423  0.6763 -0.6673 -1.1913
 1229TIP3    H227883   3.401   2.038  18.483  0.5698  0.7960  2.2286
 1230TIP3   OH227884   3.207   0.312  17.850  0.1449  0.3145  0.1652
 1230TIP3    H127885   3.281   0.317  17.790  0.5487  0.7682  0.6791
 1230TIP3    H227886   3.189   0.219  17.859  2.2190 -0.0144  1.8669
 1231TIP3   OH227887   3.372   0.825  18.694 -0.1791 -0.0905 -0.5044
 1231TIP3    H127888   3.362   0.756  18.760 -1.7881  0.7179  0.1503
 1231TIP3    H227889   3.463   0.851  18.702  0.0612 -1.0724  0.3227
 1232TIP3   OH227890   4.181   6.032  16.528 -0.1576  0.1949  0.5240
 1232TIP3    H127891   4.253   6.077  16.484 -0.3446  0.1865  0.2108
 1232TIP3    H227892   4.224   5.973  16.590  0.1379 -0.6661 -0.4849
 1233TIP3   OH227893   1.418   1.098  17.713  0.3648  0.4055  0.3564
 1233TIP3    H127894   1.441   1.179  17.758 -1.3281  1.6239 -0.8654
 1233TIP3    H227895   1.342   1.065  17.761 -0.3042  0.7295 -0.4628
 1234TIP3   OH227896   4.297   2.855  17.881  0.7930 -0.0502  0.2625
 1234TIP3    H127897   4.330   2.822  17.797  1.8172  1.0664  0.2065
 1234TIP3    H227898   4.268   2.944  17.862 -0.1476 -0.2196  0.8323
 1235TIP3   OH227899   5.431   2.922  17.550 -0.2093 -0.2296 -0.0984
 1235TIP3    H127900   5.462   2.867  17.478 -0.7186  1.8175 -1.9747
 1235TIP3    H227901   5.512   2.953  17.592  0.0926 -1.4344  0.2589
 1236TIP3   OH227902   0.736   0.695  17.113  0.2225  0.7731  0.4198
 1236TIP3    H127903   0.753   0.609  17.076 -0.9160  0.6552  0.1570
 1236TIP3    H227904   0.811   0.748  17.086  1.0897 -0.2049  0.8465
 1237TIP3   OH227905   1.406   5.146  18.359 -0.0246 -0.1657 -0.2730
 1237TIP3    H127906   1.401   5.054  18.385 -0.8851  0.3076  1.3869
 1237TIP3    H227907   1.499   5.162  18.346  0.0468 -1.5837 -1.9523
 1238TIP3   OH227908   3.928   2.689  17.218 -0.9137  0.1577  0.0735
 1238TIP3    H127909   3.896   2.736  17.141 -1.5738 -0.6542 -0.1800
 1238TIP3    H227910   3.850   2.646  17.253 -0.0930 -2.1012 -0.6953
 1239TIP3   OH227911   2.770   3.240  19.122  0.3114 -0.4625  0.0726
 1239TIP3    H127912   2.700   3.250  19.186  1.3725  0.0845  1.1747
 1239TIP3    H227913   2.742   3.165  19.068 -1.0899 -0.2724  0.4907
 1240TIP3   OH227914   6.892   1.929  18.202 -0.0937 -0.6807  0.4180
 1240TIP3    H127915   6.984   1.903  18.217 -0.0805  0.1768  2.0820
 1240TIP3    H227916   6.895   2.024  18.198 -0.9490 -0.6328  0.7977
 1241TIP3   OH227917   3.357   0.205  16.577 -0.2362  0.2719  0.1484
 1241TIP3    H127918   3.428   0.226  16.516 -0.1749  0.7313  0.3750
 1241TIP3    H227919   3.307   0.136  16.533 -0.2099  0.6166 -0.4362
 1242TIP3   OH227920   3.046   1.289  17.639  0.9361 -0.4026 -0.2822
 1242TIP3    H127921   3.139   1.268  17.637  1.6211  2.1203  1.5359
 1242TIP3    H227922   3.038   1.369  17.587  0.1568  0.5004  1.1607
 1243TIP3   OH227923   0.678   6.602  18.926  0.5784  0.3481 -0.0213
 1243TIP3    H127924   0.649   6.632  18.840  2.0446  0.7370 -0.4131
 1243TIP3    H227925   0.598   6.578  18.972 -0.6389  3.5760 -0.1820
 1244TIP3   OH227926   1.169   2.242  17.847 -0.4513 -0.1670  0.1849
 1244TIP3    H127927   1.103   2.269  17.784 -1.3304 -1.8356  0.3355
 1244TIP3    H227928   1.151   2.295  17.925 -0.4566  0.6535 -0.3574
 1245TIP3   OH227929   4.935   5.071  18.687 -0.6863 -0.1727 -0.2328
 1245TIP3    H127930   5.004   5.127  18.722 -0.2536  0.5765 -2.1814
 1245TIP3    H227931   4.975   4.985  18.680 -1.0089 -0.5370  1.7039
 1246TIP3   OH227932   3.849   3.851  18.144  0.1928  0.8469 -0.1206
 1246TIP3    H127933   3.885   3.900  18.218 -0.3654  0.6534  0.2841
 1246TIP3    H227934   3.925   3.828  18.091  0.4266  2.6247 -0.6328
 1247TIP3   OH227935   4.086   2.885  19.147  0.0506 -0.0031 -0.2482
 1247TIP3    H127936   4.054   2.974  19.162  0.3507  0.2216 -0.9073
 1247TIP3    H227937   4.053   2.861  19.060  0.7301 -0.1921 -0.4585
 1248TIP3   OH227938   0.682   1.541  17.366  0.2129  0.2128  0.4725
 1248TIP3    H127939   0.729   1.485  17.305 -0.6182  0.7741 -0.7280
 1248TIP3    H227940   0.722   1.628  17.355 -0.2378  0.4140  0.3791
 1249TIP3   OH227941   2.232   6.223  17.649  0.3972  0.0765  1.2691
 1249TIP3    H127942   2.260   6.212  17.740 -0.7482 -0.1427  1.6130
 1249TIP3    H227943   2.141   6.195  17.648  0.4396 -0.0883  0.0058
 1250TIP3   OH227944   7.129   1.330  18.717  0.1201  1.1167 -0.6992
 1250TIP3    H127945   7.063   1.338  18.648 -1.5326 -0.5150  0.5901
 1250TIP3    H227946   7.211   1.314  18.670 -1.0885 -0.7941 -2.3129
 1251TIP3   OH227947   0.844   1.708  18.656  0.0719  0.0472  0.0019
 1251TIP3    H127948   0.875   1.777  18.597 -0.9844 -0.2470 -0.9271
 1251TIP3    H227949   0.761   1.679  18.618  0.3837 -1.6051  0.4699
 1252TIP3   OH227950   1.640   1.917  18.260  0.1033 -0.4246  0.4743
 1252TIP3    H127951   1.624   1.853  18.191 -0.4706 -0.3846  0.5632
 1252TIP3    H227952   1.557   1.963  18.269  0.7497  0.9520 -0.2097
 1253TIP3   OH227953   6.953   6.922  18.178 -0.0982 -0.1987  0.5744
 1253TIP3    H127954   6.887   6.891  18.240 -0.3985  0.4179  0.5732
 1253TIP3    H227955   6.916   6.902  18.092  0.0915 -0.5991  0.5853
 1254TIP3   OH227956   0.824   3.000  16.548 -0.0606 -0.0022  0.3244
 1254TIP3    H127957   0.794   3.042  16.467 -1.1458  1.2986  1.3508
 1254TIP3    H227958   0.918   3.012  16.548 -0.1612  0.8485 -0.2788
 1255TIP3   OH227959   4.661   6.963  18.574 -0.3334  0.1956  0.1463
 1255TIP3    H127960   4.703   7.049  18.567  0.5692 -0.1161  1.4816
 1255TIP3    H227961   4.603   6.971  18.649 -0.5335 -0.2483  0.0376
 1256TIP3   OH227962   2.211   6.837  18.318 -0.5308  0.0343  0.3851
 1256TIP3    H127963   2.293   6.803  18.354 -0.9321  0.4245  1.7230
 1256TIP3    H227964   2.219   6.823  18.224  0.5092 -1.1463  0.6152
 1257TIP3   OH227965   4.258   5.408  17.974 -0.3915 -0.0810 -0.6048
 1257TIP3    H127966   4.291   5.446  18.055  0.2432 -2.2738  0.2542
 1257TIP3    H227967   4.170   5.378  17.996 -0.8968  0.8760 -1.2717
 1258TIP3   OH227968   2.498   2.669  18.772  0.2410 -0.0620  0.8310
 1258TIP3    H127969   2.433   2.727  18.812 -0.6673 -0.6152  0.2036
 1258TIP3    H227970   2.544   2.630  18.846 -1.7469 -1.4563  1.4282
 1259TIP3   OH227971   3.682   3.063  16.937 -0.0621 -0.0498  0.1288
 1259TIP3    H127972   3.674   2.994  16.871 -1.1627 -0.0653  0.2638
 1259TIP3    H227973   3.704   3.017  17.017 -1.9503 -0.3916  0.4793
 1260TIP3   OH227974   0.989   5.478  17.744 -0.1902 -0.7169  0.5793
 1260TIP3    H127975   1.016   5.511  17.659 -0.7368 -0.5683  0.4577
 1260TIP3    H227976   1.055   5.509  17.805 -0.1820 -0.2219  0.3166
 1261TIP3   OH227977   0.712   5.274  18.139  0.1129  0.1004  0.3890
 1261TIP3    H127978   0.684   5.193  18.181  0.1206 -0.6523 -1.0104
 1261TIP3    H227979   0.631   5.319  18.117  0.0914  0.0477  0.3602
 1262TIP3   OH227980   6.464   7.343  16.997  0.1505  0.2414 -0.2837
 1262TIP3    H127981   6.511   7.402  16.937  1.1153 -0.6326 -0.4062
 1262TIP3    H227982   6.377   7.334  16.959 -0.4292  2.4680  0.3231
 1263TIP3   OH227983   0.208   2.180  17.413 -0.2573 -0.2976 -0.0146
 1263TIP3    H127984   0.159   2.195  17.332  0.0368 -1.4462 -0.4230
 1263TIP3    H227985   0.166   2.104  17.452  0.3393 -0.4507  0.3312
 1264TIP3   OH227986   2.074   3.649  18.974 -0.3016  0.3449 -0.1091
 1264TIP3    H127987   2.075   3.744  18.962 -1.2910  0.2580 -1.0590
 1264TIP3    H227988   2.013   3.617  18.907 -0.3693 -0.9163  0.5209
 1265TIP3   OH227989   3.171   0.966  18.190  0.2885 -0.2042 -0.2245
 1265TIP3    H127990   3.105   1.032  18.210  0.7358  0.1967 -0.0531
 1265TIP3    H227991   3.125   0.900  18.139 -0.2663  0.0230 -0.0191
 1266TIP3   OH227992   6.983   3.598  17.657 -0.4264 -0.3386  0.2588
 1266TIP3    H127993   6.958   3.511  17.627 -0.1505 -0.7654  1.2233
 1266TIP3    H227994   6.911   3.625  17.714 -1.0726  0.5698 -0.9495
 1267TIP3   OH227995   3.353   7.572  16.580 -0.1189  0.2207  0.2408
 1267TIP3    H127996   3.332   7.631  16.508 -1.1395  0.8809  1.0549
 1267TIP3    H227997   3.272   7.564  16.630  0.7327  0.3127  1.6995
 1268TIP3   OH227998   5.761   5.879  17.958  0.7251 -0.0273 -0.0583
 1268TIP3    H127999   5.847   5.917  17.942  0.4639 -0.2356 -2.1982
 1268TIP3    H228000   5.751   5.811  17.891 -0.9745 -0.2520  0.3608
 1269TIP3   OH228001   5.466   1.394  18.343  1.0233  0.2755 -1.0281
 1269TIP3    H128002   5.450   1.436  18.427 -0.1571 -1.8783 -0.0809
 1269TIP3    H228003   5.521   1.455  18.295  1.8214  1.5355  1.3476
 1270TIP3   OH228004   1.250   0.446  18.676  0.2999 -0.4003 -0.1023
 1270TIP3    H128005   1.161   0.482  18.671  0.1987 -0.5298  0.6941
 1270TIP3    H228006   1.299   0.493  18.608 -0.6852 -1.2422 -1.4544
 1271TIP3   OH228007   6.578   5.076  17.873 -0.1811 -0.2969 -0.0839
 1271TIP3    H128008   6.595   5.084  17.966 -0.5138 -0.0353 -0.0420
 1271TIP3    H228009   6.485   5.052  17.868  0.3885 -2.7539 -0.2512
 1272TIP3   OH228010   6.723   2.357  18.642 -0.6503  0.1874 -0.2620
 1272TIP3    H128011   6.762   2.407  18.570 -0.8792 -2.0315 -2.0628
 1272TIP3    H228012   6.792   2.354  18.709 -0.0842  1.5419 -0.7421
 1273TIP3   OH228013   1.151   5.078  18.829 -0.3553 -0.5585 -0.2267
 1273TIP3    H128014   1.134   5.105  18.738  2.1615  1.9541 -0.0948
 1273TIP3    H228015   1.230   5.024  18.823  0.0847 -0.0161  0.4522
 1274TIP3   OH228016   1.477   4.347  17.638 -0.4221 -0.1063  0.1875
 1274TIP3    H128017   1.457   4.260  17.672 -1.3711  0.5955  1.5144
 1274TIP3    H228018   1.433   4.351  17.553 -2.5711 -0.0444  1.2431
 1275TIP3   OH228019   6.171   6.762  19.348 -0.7843 -0.0386  0.3125
 1275TIP3    H128020   6.148   6.791  19.436 -0.1314 -0.3754  0.5966
 1275TIP3    H228021   6.179   6.843  19.297  0.8313  0.3030  1.0484
 1276TIP3   OH228022   5.215   5.362  16.800  0.0250 -0.7850 -0.3571
 1276TIP3    H128023   5.233   5.306  16.724 -2.3993  0.2618 -1.8329
 1276TIP3    H228024   5.167   5.306  16.861  4.6908 -2.6168  2.1250
 1277TIP3   OH228025   6.706   6.782  17.454 -0.3444  0.0583  0.1013
 1277TIP3    H128026   6.697   6.759  17.546 -1.3959  0.2080  0.0481
 1277TIP3    H228027   6.762   6.713  17.417  1.7590  1.0466  1.2362
 1278TIP3   OH228028   6.540   3.780  19.324  0.2522  0.3738  0.5956
 1278TIP3    H128029   6.620   3.731  19.342  0.6883  0.2810 -1.4403
 1278TIP3    H228030   6.570   3.870  19.314  0.2775  0.2022 -1.0952
 1279TIP3   OH228031   1.403   6.970  17.938  0.7238  0.7010  0.5929
 1279TIP3    H128032   1.451   7.025  17.876 -0.6307 -1.8638 -3.0622
 1279TIP3    H228033   1.457   6.892  17.947  0.0515  0.3108  1.2818
 1280TIP3   OH228034   3.211   6.324  18.787 -0.2073 -0.2666  0.4863
 1280TIP3    H128035   3.258   6.286  18.861 -2.0273 -0.7963  1.4198
 1280TIP3    H228036   3.121   6.335  18.818 -1.2770 -1.3855 -1.9083
 1281TIP3   OH228037   3.780   4.808  18.385 -0.3791 -0.3430 -0.1415
 1281TIP3    H128038   3.796   4.731  18.331 -3.0328 -0.1161 -1.4587
 1281TIP3    H228039   3.744   4.773  18.466 -1.3459 -0.5678 -0.6402
 1282TIP3   OH228040   4.299   0.869  17.806 -1.1819  0.1121  0.8081
 1282TIP3    H128041   4.391   0.843  17.812 -1.3374 -1.2246 -1.3983
 1282TIP3    H228042   4.297   0.957  17.842  0.7779 -0.2017  1.8326
 1283TIP3   OH228043   6.881   0.155  17.355 -0.3316  0.3324 -0.0255
 1283TIP3    H128044   6.875   0.075  17.303 -1.8442  0.4787 -0.1281
 1283TIP3    H228045   6.933   0.130  17.431  1.4985 -0.0141 -1.3204
 1284TIP3   OH228046   3.098   3.499  19.173 -0.0352 -0.2764  0.6530
 1284TIP3    H128047   3.042   3.569  19.204 -0.7103 -1.1803  1.5493
 1284TIP3    H228048   3.172   3.543  19.132 -1.0537  0.9445  0.0707
 1285TIP3   OH228049   0.074   3.228  17.076 -0.0147  0.1931  0.1556
 1285TIP3    H128050   0.133   3.300  17.052 -0.3556  0.4943  0.2077
 1285TIP3    H228051   0.017   3.218  16.999  0.0988 -0.0931  0.1066
 1286TIP3   OH228052   6.302   4.390  17.106  0.3730 -0.2849  0.2569
 1286TIP3    H128053   6.366   4.329  17.068 -1.1023 -0.4349 -2.1353
 1286TIP3    H228054   6.352   4.471  17.120  1.3123 -0.6870 -0.6275
 1287TIP3   OH228055   0.549   1.067  18.022 -0.5499 -0.2971  0.1576
 1287TIP3    H128056   0.607   0.994  18.003 -0.8921 -0.1537 -1.6423
 1287TIP3    H228057   0.461   1.030  18.020 -0.7372  0.1419 -0.9240
 1288TIP3   OH228058   1.333   4.978  17.375  0.0440 -0.4736 -0.8545
 1288TIP3    H128059   1.357   4.930  17.295 -0.5011  0.9181 -1.9014
 1288TIP3    H228060   1.307   5.065  17.344 -4.1007 -1.0668  0.3539
 1289TIP3   OH228061   6.430   6.364  18.965  0.1346  0.3265 -0.2911
 1289TIP3    H128062   6.378   6.428  19.013 -0.4129 -0.4213  0.1400
 1289TIP3    H228063   6.406   6.376  18.874 -0.8157 -0.0059 -0.0950
 1290TIP3   OH228064   1.874   6.997  16.673 -0.0238  0.0129  0.2623
 1290TIP3    H128065   1.919   6.939  16.612 -0.7357  0.0403 -0.2995
 1290TIP3    H228066   1.782   6.971  16.668 -0.3088  0.9894  0.2267
 1291TIP3   OH228067   2.355   0.297  16.699  0.3512 -0.0406 -0.4160
 1291TIP3    H128068   2.284   0.262  16.753  0.7648  0.5232  0.5099
 1291TIP3    H228069   2.350   0.392  16.711  1.2447  0.0069 -0.3603
 1292TIP3   OH228070   1.303   2.184  17.601 -0.5942  0.4215  0.0344
 1292TIP3    H128071   1.225   2.168  17.548 -1.2844  3.0271  0.1552
 1292TIP3    H228072   1.272   2.181  17.692 -0.0199 -0.9490  0.2171
 1293TIP3   OH228073   6.513   3.377  18.040  0.2263 -0.4926  0.5658
 1293TIP3    H128074   6.452   3.384  18.113  2.1746  1.8148  2.0942
 1293TIP3    H228075   6.480   3.438  17.975 -0.5481 -1.2745  0.1977
 1294TIP3   OH228076   7.158   3.223  17.165  0.3648  0.7454  0.1664
 1294TIP3    H128077   7.076   3.178  17.182  0.2850  0.3245 -1.2315
 1294TIP3    H228078   7.210   3.209  17.244  0.2327 -1.5400 -0.0875
 1295TIP3   OH228079   2.485   3.127  17.136 -0.4229  0.4237 -0.5680
 1295TIP3    H128080   2.390   3.124  17.148 -0.4332  0.8800 -0.5236
 1295TIP3    H228081   2.500   3.077  17.056 -0.8973  1.8608 -1.6129
 1296TIP3   OH228082   2.545   5.879  17.571 -0.3489 -0.1097  0.7987
 1296TIP3    H128083   2.453   5.881  17.542  0.4816 -0.8869 -2.2070
 1296TIP3    H228084   2.572   5.971  17.571 -1.2487  0.1978  2.3801
 1297TIP3   OH228085   5.205   5.273  16.528  0.3972  0.2311  0.0472
 1297TIP3    H128086   5.295   5.241  16.521  0.4231  0.5657 -1.4351
 1297TIP3    H228087   5.152   5.202  16.492  0.1881  0.5738 -0.3252
 1298TIP3   OH228088   2.669   0.037  18.034  0.1016 -0.0586 -0.6640
 1298TIP3    H128089   2.649  -0.023  18.107  1.2337 -0.6924 -0.8401
 1298TIP3    H228090   2.675   0.123  18.075 -2.0650  0.0651 -0.4848
 1299TIP3   OH228091   4.302   3.267  18.048  0.4469  0.3140  0.5170
 1299TIP3    H128092   4.364   3.325  18.004 -0.4418 -0.4904 -1.9163
 1299TIP3    H228093   4.245   3.327  18.097 -0.1625  1.5223 -1.5562
 1300TIP3   OH228094   1.437   1.876  18.102  0.1799 -1.0853  0.4395
 1300TIP3    H128095   1.373   1.878  18.174  1.4017  0.7858  1.5562
 1300TIP3    H228096   1.409   1.945  18.042 -0.4989 -2.2557 -0.6460
 1301TIP3   OH228097   3.515   1.884  18.142 -0.3297  0.0669  0.6093
 1301TIP3    H128098   3.588   1.821  18.143 -0.6913 -0.3830 -0.4168
 1301TIP3    H228099   3.555   1.967  18.165  0.7358  0.0502 -1.0563
 1302TIP3   OH228100   5.257   0.150  18.282  0.6309  0.1408  0.3412
 1302TIP3    H128101   5.311   0.226  18.303 -0.4450  0.8058  0.7565
 1302TIP3    H228102   5.167   0.183  18.282  0.1264 -1.1649  0.7074
 1303TIP3   OH228103   0.588   0.746  18.537 -0.2513 -0.0176 -0.1703
 1303TIP3    H128104   0.682   0.750  18.520  0.1629  1.1484  1.9745
 1303TIP3    H228105   0.570   0.654  18.554  0.6799 -0.1472  0.1696
 1304TIP3   OH228106   2.022   2.771  19.399  0.2672  0.0098  0.3776
 1304TIP3    H128107   1.990   2.690  19.436 -0.5238  0.2473  0.2375
 1304TIP3    H228108   2.116   2.769  19.412  0.2041 -0.7559  0.7073
 1305TIP3   OH228109   2.400   2.002  17.055 -0.0390 -0.0078  0.3664
 1305TIP3    H128110   2.392   2.097  17.044  1.7188  0.0850 -0.5393
 1305TIP3    H228111   2.334   1.965  16.996 -0.2403  0.6481  0.1700
 1306TIP3   OH228112   3.570   4.120  18.553 -0.1026 -0.3153 -0.1220
 1306TIP3    H128113   3.653   4.129  18.599 -0.6067  1.6247  0.4835
 1306TIP3    H228114   3.588   4.152  18.464  0.3003 -1.9371 -0.6612
 1307TIP3   OH228115   7.354   4.925  17.453  0.1956  0.7216  0.3035
 1307TIP3    H128116   7.367   4.858  17.386 -0.3747  1.7072 -0.8107
 1307TIP3    H228117   7.442   4.957  17.472  0.4132  0.0722  0.4334
 1308TIP3   OH228118   6.517   2.499  16.831  0.1785  0.2331 -0.3519
 1308TIP3    H128119   6.561   2.434  16.886 -0.6558 -0.8513 -0.9367
 1308TIP3    H228120   6.587   2.538  16.778  0.7785  0.2977  0.4679
 1309TIP3   OH228121   7.603   4.526  16.362 -0.0493  0.2687 -0.0691
 1309TIP3    H128122   7.647   4.610  16.376 -0.6681  0.3769  1.5470
 1309TIP3    H228123   7.510   4.545  16.377 -0.0508 -0.9610  2.0056
 1310TIP3   OH228124   7.124   4.136  18.205 -0.1827 -0.0902 -0.3024
 1310TIP3    H128125   7.092   4.225  18.220  0.0227  0.1071 -0.9813
 1310TIP3    H228126   7.122   4.095  18.291 -2.2867 -0.1041 -0.3120
 1311TIP3   OH228127   2.854   6.110  18.837 -0.3515 -0.1700 -0.3385
 1311TIP3    H128128   2.770   6.139  18.802 -0.9227  1.5459  2.1290
 1311TIP3    H228129   2.894   6.191  18.871  1.9085 -1.0861 -0.6605
 1312TIP3   OH228130   2.336   2.870  18.915 -0.1929  0.0505 -0.2358
 1312TIP3    H128131   2.300   2.951  18.878 -0.2940 -0.6065 -1.6247
 1312TIP3    H228132   2.260   2.814  18.929  0.0855 -0.6956 -1.5645
 1313TIP3   OH228133   2.634   2.575  18.980 -0.2962  0.0787 -0.0977
 1313TIP3    H128134   2.691   2.643  19.016 -0.3904 -0.7040  1.6587
 1313TIP3    H228135   2.692   2.500  18.966 -0.6050 -0.2298  0.2461
 1314TIP3   OH228136   1.753   2.504  18.487 -0.6310  0.6127 -0.1972
 1314TIP3    H128137   1.668   2.461  18.496 -1.1435  1.5359 -0.4966
 1314TIP3    H228138   1.733   2.597  18.479  0.4289  0.8804  0.0225
 1315TIP3   OH228139   1.678   5.026  18.436  0.1528  0.5111  0.3936
 1315TIP3    H128140   1.763   4.984  18.451  0.7537  2.3350  2.6987
 1315TIP3    H228141   1.701   5.115  18.406 -0.9885  0.4636 -0.6629
 1316TIP3   OH228142   1.108   4.077  17.420 -0.1255 -0.9882  0.1469
 1316TIP3    H128143   1.135   4.154  17.371  0.8452 -0.0743  2.0112
 1316TIP3    H228144   1.144   4.003  17.371  0.0138 -0.1863 -0.9883
 1317TIP3   OH228145   2.404   1.633  17.547 -0.3644 -0.3940  0.6334
 1317TIP3    H128146   2.397   1.728  17.540  0.9729 -0.3642 -1.2255
 1317TIP3    H228147   2.498   1.616  17.561 -0.6259 -1.4428  1.3071
 1318TIP3   OH228148   2.102   1.388  19.041  0.4779 -0.2124 -0.2579
 1318TIP3    H128149   2.025   1.441  19.025  1.2798  1.4259  0.9976
 1318TIP3    H228150   2.096   1.365  19.134  0.1808 -2.3555 -0.7405
 1319TIP3   OH228151   7.486   6.107  17.599 -0.1387 -0.3422 -0.4120
 1319TIP3    H128152   7.422   6.104  17.527 -1.1208  2.0748  0.2730
 1319TIP3    H228153   7.568   6.133  17.557 -0.9072  1.9363 -0.6214
 1320TIP3   OH228154   6.145   1.393  17.069 -0.3585 -0.2755 -0.0771
 1320TIP3    H128155   6.053   1.406  17.049 -0.1406 -0.6175 -1.3856
 1320TIP3    H228156   6.169   1.468  17.123 -1.5757 -0.5673  0.9057
 1321TIP3   OH228157   2.122   0.394  16.332 -0.4757  0.2037  0.0301
 1321TIP3    H128158   2.199   0.449  16.345  0.1951 -0.6512 -0.2029
 1321TIP3    H228159   2.052   0.438  16.380 -0.6169  2.6043 -2.1333
 1322TIP3   OH228160   1.509   1.322  17.826  0.4432  0.1418  0.1215
 1322TIP3    H128161   1.599   1.314  17.858  0.6863  1.0303 -0.3008
 1322TIP3    H228162   1.487   1.414  17.839 -0.4109 -0.0741  0.2266
 1323TIP3   OH228163   0.660   0.448  17.904 -0.1997  0.0588 -0.0103
 1323TIP3    H128164   0.568   0.473  17.908 -0.6064 -1.3690  0.2579
 1323TIP3    H228165   0.704   0.522  17.861 -1.0634  1.7848  1.9401
 1324TIP3   OH228166   6.679   1.448  18.944 -0.3502  0.3220  0.0691
 1324TIP3    H128167   6.598   1.412  18.981 -0.5525 -0.5331 -1.1615
 1324TIP3    H228168   6.676   1.425  18.851  0.1027  2.4916 -0.5426
 1325TIP3   OH228169   2.973   4.352  19.384 -0.2453  0.1638 -0.6910
 1325TIP3    H128170   3.047   4.412  19.392  1.4471 -1.9544  1.1111
 1325TIP3    H228171   2.992   4.300  19.306 -0.3081  0.2417 -0.7560
 1326TIP3   OH228172   3.404   5.821  18.852 -0.0132  0.2684 -0.1024
 1326TIP3    H128173   3.433   5.845  18.764  0.1709 -1.3016 -0.4953
 1326TIP3    H228174   3.323   5.773  18.838 -0.0210  0.0663  0.5989
 1327TIP3   OH228175   2.928   3.871  19.183  0.0263 -0.0584 -0.0312
 1327TIP3    H128176   3.016   3.878  19.220  0.0111  0.2731 -0.0500
 1327TIP3    H228177   2.892   3.791  19.221  0.5472 -0.5185 -0.4824
 1328TIP3   OH228178   2.459   2.516  17.551  0.3290 -0.4751  0.4394
 1328TIP3    H128179   2.517   2.444  17.575  0.7550 -0.1865  0.2779
 1328TIP3    H228180   2.373   2.489  17.585  0.3161 -1.4164 -0.2913
 1329TIP3   OH228181   6.469   1.423  17.820 -0.0505  0.2455 -0.1848
 1329TIP3    H128182   6.497   1.488  17.883  0.9346  0.4766 -0.8457
 1329TIP3    H228183   6.384   1.455  17.789  0.6302  1.4752 -0.8408
 1330TIP3   OH228184   7.521   2.519  18.120 -0.0343 -0.3923 -0.1151
 1330TIP3    H128185   7.519   2.605  18.162  0.9806 -0.2356 -0.3445
 1330TIP3    H228186   7.481   2.533  18.034 -0.7387 -0.3683  0.2191
 1331TIP3   OH228187   5.794   4.451  17.265 -0.3663 -0.1975 -0.1478
 1331TIP3    H128188   5.841   4.507  17.327 -2.1739  1.7971 -0.4563
 1331TIP3    H228189   5.860   4.427  17.200  0.6683  0.9463  0.4253
 1332TIP3   OH228190   4.671   7.650  19.200  0.2383 -0.0219  0.4337
 1332TIP3    H128191   4.611   7.673  19.129  0.9782  0.9920  0.1091
 1332TIP3    H228192   4.623   7.673  19.280 -1.2137 -2.5923  0.4113
 1333TIP3   OH228193   2.089   6.498  18.746 -0.3460  0.3520 -0.5967
 1333TIP3    H128194   2.104   6.416  18.794  1.4629  0.6731 -0.5287
 1333TIP3    H228195   2.055   6.559  18.812  2.0641  0.7714  0.3843
 1334TIP3   OH228196   3.093   5.084  19.446 -0.0497 -0.3599  0.0650
 1334TIP3    H128197   3.025   5.018  19.463  1.1902 -2.1124 -1.3226
 1334TIP3    H228198   3.045   5.162  19.420 -1.5951 -0.6177  1.9268
 1335TIP3   OH228199   2.221   4.899  17.507 -0.7707  0.0445  0.4079
 1335TIP3    H128200   2.133   4.932  17.525 -0.4671  0.6261  0.8722
 1335TIP3    H228201   2.229   4.903  17.411 -0.2076  2.8280  0.4940
 1336TIP3   OH228202   2.947   0.435  16.308  0.3604  0.2404  0.1378
 1336TIP3    H128203   2.936   0.471  16.396  0.9132  1.3512 -0.2284
 1336TIP3    H228204   2.981   0.507  16.256 -4.1492  1.0762 -2.1524
 1337TIP3   OH228205   7.285   3.657  18.287 -0.3106 -0.2122 -0.5081
 1337TIP3    H128206   7.319   3.574  18.252 -1.3713 -1.4910  1.3323
 1337TIP3    H228207   7.197   3.635  18.318 -0.4553  1.5268  0.3908
 1338TIP3   OH228208   0.779   0.164  17.908 -0.3459  0.0235 -0.5307
 1338TIP3    H128209   0.702   0.118  17.875  0.5667 -0.2817 -2.3990
 1338TIP3    H228210   0.757   0.257  17.899 -1.3441 -0.0045  1.1621
 1339TIP3   OH228211   4.862   2.837  18.962 -0.1639 -0.4506  0.3263
 1339TIP3    H128212   4.780   2.805  18.923  0.7011 -1.5713 -0.6780
 1339TIP3    H228213   4.843   2.846  19.055 -0.7365 -3.2765  0.5857
 1340TIP3   OH228214   3.138   4.010  17.215  0.5096 -0.0880  0.1518
 1340TIP3    H128215   3.171   3.923  17.192  0.0848 -0.2766  0.2412
 1340TIP3    H228216   3.211   4.069  17.195  1.1531 -0.5656  0.9907
 1341TIP3   OH228217   6.887   3.606  18.097 -0.1487  0.1053  0.3596
 1341TIP3    H128218   6.928   3.666  18.035  1.9187  0.2775  1.8188
 1341TIP3    H228219   6.853   3.662  18.166 -1.8958 -0.1378 -0.2526
 1342TIP3   OH228220   4.650   6.812  17.687  0.0662 -0.3682  0.0216
 1342TIP3    H128221   4.676   6.838  17.599  0.1163 -0.5364 -0.0148
 1342TIP3    H228222   4.660   6.891  17.740  1.1840 -0.5568  0.1197
 1343TIP3   OH228223   4.183   1.596  19.370 -0.2464  0.4514 -0.2033
 1343TIP3    H128224   4.195   1.594  19.275  1.2523 -0.2478 -0.0269
 1343TIP3    H228225   4.224   1.679  19.397 -1.1285  0.9003 -0.2046
 1344TIP3   OH228226   0.896   7.334  16.771  0.0568 -0.6731 -0.1993
 1344TIP3    H128227   0.962   7.331  16.840  0.4754  1.7967 -0.4109
 1344TIP3    H228228   0.945   7.355  16.692 -0.9861  2.0837 -0.2174
 1345TIP3   OH228229   2.194   4.437  17.312  0.2773  0.1481  0.1307
 1345TIP3    H128230   2.106   4.442  17.274 -0.0837 -1.2842  0.7107
 1345TIP3    H228231   2.247   4.493  17.256 -0.6341 -0.4068 -1.3548
 1346TIP3   OH228232   6.759   6.454  17.612  0.4587  0.8322  0.2214
 1346TIP3    H128233   6.754   6.483  17.521 -1.5216 -0.6458 -0.2000
 1346TIP3    H228234   6.782   6.361  17.606  1.5967  1.0169  1.3148
 1347TIP3   OH228235   1.704   3.366  18.337 -0.0592 -0.1786 -0.0130
 1347TIP3    H128236   1.618   3.392  18.371  0.5297 -0.0580  1.4784
 1347TIP3    H228237   1.690   3.279  18.302 -0.7660 -0.2296  0.3608
 1348TIP3   OH228238   5.454   4.641  17.682 -0.9905  0.1922  0.1002
 1348TIP3    H128239   5.439   4.718  17.736 -0.0920  1.1735 -0.9855
 1348TIP3    H228240   5.426   4.567  17.736  1.3808  0.9504  2.5514
 1349TIP3   OH228241   2.708   3.005  16.943 -0.1156  0.1148  0.1147
 1349TIP3    H128242   2.709   2.910  16.928  2.1928  0.2500 -0.8825
 1349TIP3    H228243   2.742   3.043  16.863 -0.6526  1.7990  0.6439
 1350TIP3   OH228244   1.664   2.181  19.098 -0.0829  0.4469 -0.7601
 1350TIP3    H128245   1.687   2.242  19.028 -0.4003  0.6895 -0.6539
 1350TIP3    H228246   1.573   2.200  19.118 -0.0703  0.2017 -0.4599
 1351TIP3   OH228247   1.270   5.237  17.320  0.1823  0.3183 -0.3980
 1351TIP3    H128248   1.319   5.319  17.329 -0.0909  0.4373  0.0249
 1351TIP3    H228249   1.181   5.259  17.348  0.6357 -0.7033  2.1334
 1352TIP3   OH228250   5.976   0.709  18.077 -0.2225  0.1028  0.5808
 1352TIP3    H128251   5.921   0.639  18.041 -1.2635  0.3270  1.6937
 1352TIP3    H228252   5.929   0.790  18.059 -0.8266  0.2219  2.4508
 1353TIP3   OH228253   7.078   4.735  18.209  0.6542  0.3917 -0.4990
 1353TIP3    H128254   7.099   4.827  18.221 -2.4185  0.9736  1.6663
 1353TIP3    H228255   7.063   4.702  18.298 -2.2214 -1.0631 -1.3846
 1354TIP3   OH228256   0.049   6.593  17.656 -0.1853 -0.3209 -0.2586
 1354TIP3    H128257  -0.021   6.607  17.592  2.1435 -0.9128 -3.1663
 1354TIP3    H228258   0.126   6.635  17.617  1.3183 -0.4280  2.3744
 1355TIP3   OH228259   0.877   3.325  19.201  0.2812  0.3475  0.4892
 1355TIP3    H128260   0.819   3.318  19.277  0.6501  0.0941  0.7517
 1355TIP3    H228261   0.881   3.237  19.165  0.5988  0.3357  0.5466
 1356TIP3   OH228262   5.058   4.833  18.726  0.0172  0.2261  0.2176
 1356TIP3    H128263   4.996   4.832  18.799 -0.8770 -1.6563 -0.5129
 1356TIP3    H228264   5.120   4.762  18.746  0.9671  0.9989  0.1102
 1357TIP3   OH228265   4.182   5.216  18.514  0.8406 -0.0223 -0.1299
 1357TIP3    H128266   4.211   5.148  18.452  1.2122  0.4756 -0.5110
 1357TIP3    H228267   4.264   5.254  18.547  0.6716  1.6588 -1.5046
 1358TIP3   OH228268   3.953   7.609  16.540 -0.0633  0.3023 -0.4014
 1358TIP3    H128269   3.955   7.704  16.527 -0.4488  0.0029 -3.2775
 1358TIP3    H228270   3.862   7.590  16.562  0.2601  0.6609  1.4448
 1359TIP3   OH228271   6.769   6.317  16.339  0.3425  0.6079 -0.5319
 1359TIP3    H128272   6.847   6.282  16.295  0.5630 -1.5480  1.4253
 1359TIP3    H228273   6.719   6.359  16.269  2.1796  0.0905 -2.2382
 1360TIP3   OH228274   5.992   4.998  17.243  0.0382 -0.0785 -0.4736
 1360TIP3    H128275   5.941   4.985  17.164  0.9082 -1.5921 -0.8187
 1360TIP3    H228276   5.927   5.002  17.314 -0.7298  1.1428 -1.2180
 1361TIP3   OH228277   0.052   2.193  16.709 -0.2933  0.2926 -0.4886
 1361TIP3    H128278  -0.037   2.194  16.744 -0.3307 -1.1837 -0.4964
 1361TIP3    H228279   0.056   2.113  16.656  1.5798 -0.6591  0.9676
 1362TIP3   OH228280   5.458   1.193  18.834 -0.2155 -0.2907  0.2031
 1362TIP3    H128281   5.383   1.151  18.792 -0.2846 -0.9442  0.9570
 1362TIP3    H228282   5.465   1.151  18.920  2.9322 -2.6113 -0.9708
 1363TIP3   OH228283   2.633   2.263  17.655  0.6144 -0.6819  0.3445
 1363TIP3    H128284   2.639   2.299  17.744  1.3567 -0.4109  0.1905
 1363TIP3    H228285   2.577   2.186  17.665 -0.8744  0.3997  0.7031
 1364TIP3   OH228286   1.633   5.186  16.628 -0.4795 -0.0793  0.0099
 1364TIP3    H128287   1.704   5.249  16.619  0.2162 -0.6914  0.9495
 1364TIP3    H228288   1.622   5.149  16.541  0.1969  0.2065 -0.2027
 1365TIP3   OH228289   1.938   0.149  18.345  0.1041 -0.7939  0.1032
 1365TIP3    H128290   2.011   0.117  18.397 -0.1454 -0.8772  0.4062
 1365TIP3    H228291   1.978   0.186  18.267  0.5408 -0.0250  0.6721
 1366TIP3   OH228292   0.648   1.204  19.101 -0.2363 -0.4605 -0.2965
 1366TIP3    H128293   0.597   1.126  19.082 -0.0378 -0.7786  0.4463
 1366TIP3    H228294   0.672   1.239  19.015 -0.6406 -1.0029 -0.6340
 1367TIP3   OH228295   3.998   2.994  17.177  0.2673  0.4164  0.3627
 1367TIP3    H128296   4.016   3.051  17.102 -1.5827 -0.0583 -0.5108
 1367TIP3    H228297   4.050   2.916  17.161 -1.2589 -0.3270 -1.3137
 1368TIP3   OH228298   1.094   4.638  19.460 -0.3827  0.1918 -0.5881
 1368TIP3    H128299   1.149   4.615  19.385 -0.1628  2.2317 -1.0945
 1368TIP3    H228300   1.099   4.733  19.466 -2.6652  0.3266  0.2801
 1369TIP3   OH228301   7.596   6.093  17.124  0.3544  0.2422 -0.0185
 1369TIP3    H128302   7.617   6.065  17.035  1.5514 -0.3632  0.4419
 1369TIP3    H228303   7.558   6.015  17.165  0.7484  0.2205  0.3056
 1370TIP3   OH228304   3.631   1.465  17.074 -0.2968  0.0412 -0.3839
 1370TIP3    H128305   3.717   1.487  17.108 -1.7733  3.4247  1.7197
 1370TIP3    H228306   3.629   1.504  16.987  0.9650 -2.1355 -1.4837
 1371TIP3   OH228307   5.320   2.667  17.599  0.0907  0.0157 -0.5418
 1371TIP3    H128308   5.395   2.726  17.602  1.5432 -1.6578 -1.8514
 1371TIP3    H228309   5.357   2.582  17.576 -1.8112 -1.6573  2.1128
 1372TIP3   OH228310   5.919   4.212  18.963 -0.2601  0.4287  0.2917
 1372TIP3    H128311   5.838   4.219  18.912  0.9010  1.8110 -1.4843
 1372TIP3    H228312   5.916   4.286  19.023  0.6951  1.9326 -1.4142
 1373TIP3   OH228313   0.205   1.637  18.021  0.0405 -0.6696 -0.0060
 1373TIP3    H128314   0.116   1.603  18.010 -0.9091  1.2403  1.2821
 1373TIP3    H228315   0.252   1.566  18.066  0.0241 -2.7928 -3.0209
 1374TIP3   OH228316   7.285   6.833  19.042  0.5332 -0.6174 -0.2483
 1374TIP3    H128317   7.194   6.827  19.014  1.1475 -3.1943 -1.9292
 1374TIP3    H228318   7.336   6.829  18.961  2.2080  1.3834  0.5987
 1375TIP3   OH228319   4.847   5.298  18.950 -0.1850  0.5285  0.3164
 1375TIP3    H128320   4.808   5.376  18.911  1.3772  1.1684 -0.0242
 1375TIP3    H228321   4.792   5.279  19.026 -2.1714  0.3711 -1.0742
 1376TIP3   OH228322   5.461   1.954  19.759 -0.2702  0.3489 -0.4040
 1376TIP3    H128323   5.509   1.893  19.703 -1.4226  0.3197 -1.4155
 1376TIP3    H228324   5.420   1.899  19.826 -1.5130 -0.0529 -1.4613
 1377TIP3   OH228325   4.247   2.640  18.395  0.3443  0.7618  1.1694
 1377TIP3    H128326   4.242   2.601  18.483  0.3205  1.8335  1.6618
 1377TIP3    H228327   4.261   2.733  18.411 -0.4587  1.1028  0.0421
 1378TIP3   OH228328   0.988   4.170  18.306  0.3791 -0.0644 -0.0757
 1378TIP3    H128329   1.000   4.076  18.318  1.6248  0.2509  1.6216
 1378TIP3    H228330   0.926   4.178  18.234  2.5855 -2.1138 -2.3625
 1379TIP3   OH228331   6.502   6.042  18.242 -0.2730  0.2195  0.0497
 1379TIP3    H128332   6.480   6.104  18.173  1.7794 -0.6148 -1.4326
 1379TIP3    H228333   6.565   6.089  18.297 -2.6463  1.2647  2.1210
 1380TIP3   OH228334   6.850   6.248  16.751  0.1564 -0.2117 -0.5230
 1380TIP3    H128335   6.776   6.294  16.710  0.0610 -0.6552 -0.8480
 1380TIP3    H228336   6.882   6.189  16.683 -0.6017 -1.6446  0.3296
 1381TIP3   OH228337   7.657   6.022  18.345  0.4280  0.2001  0.0941
 1381TIP3    H128338   7.610   5.943  18.371  0.2473 -0.0208 -0.8761
 1381TIP3    H228339   7.740   5.990  18.309 -0.4102  0.2665 -2.0865
 1382TIP3   OH228340   6.358   4.907  16.463  0.4595  0.8617 -0.5856
 1382TIP3    H128341   6.340   4.818  16.494  1.4078  0.7593 -0.2946
 1382TIP3    H228342   6.393   4.895  16.375  2.1424  0.8045  0.0566
 1383TIP3   OH228343   5.584   4.388  19.064  0.3821 -0.5118  0.0312
 1383TIP3    H128344   5.549   4.473  19.038 -0.8148 -0.8501  0.4643
 1383TIP3    H228345   5.645   4.407  19.135  0.8837  0.0678 -0.5452
 1384TIP3   OH228346   1.588   1.522  17.477 -0.2665 -0.5384  0.3031
 1384TIP3    H128347   1.602   1.540  17.384 -0.3769 -0.9743  0.1998
 1384TIP3    H228348   1.495   1.542  17.492  0.0982  1.0111  0.6758
 1385TIP3   OH228349   2.319   5.804  18.851 -0.5467 -0.6636  0.0022
 1385TIP3    H128350   2.333   5.760  18.767 -0.3624 -2.2569  0.8354
 1385TIP3    H228351   2.337   5.896  18.833 -0.4516 -0.9835 -1.6885
 1386TIP3   OH228352   2.891   2.925  18.698 -0.3788  0.4198 -0.1967
 1386TIP3    H128353   2.898   3.011  18.657 -2.8210  0.8247  0.1297
 1386TIP3    H228354   2.916   2.863  18.629  0.7017  1.3110 -0.6403
 1387TIP3   OH228355   1.263   4.698  18.531  0.1271 -0.0075 -0.8138
 1387TIP3    H128356   1.275   4.724  18.622  0.1801  0.8865 -1.0637
 1387TIP3    H228357   1.248   4.603  18.534  1.3167 -0.1846  0.0120
 1388TIP3   OH228358   2.147   5.578  18.393 -0.1288 -0.4893  0.3166
 1388TIP3    H128359   2.058   5.599  18.421  0.2722 -0.0873  1.3495
 1388TIP3    H228360   2.176   5.655  18.345 -0.0209 -0.2361  0.7778
 1389TIP3   OH228361   3.406   7.370  19.088  0.2661 -0.1830 -0.1272
 1389TIP3    H128362   3.355   7.421  19.151 -0.2554 -0.4552 -0.3196
 1389TIP3    H228363   3.488   7.350  19.134 -1.1990 -2.8676  1.6485
 1390TIP3   OH228364   1.736   1.788  16.731 -0.4125  0.5382 -0.2539
 1390TIP3    H128365   1.771   1.701  16.750  0.5772  0.7638 -0.9689
 1390TIP3    H228366   1.724   1.789  16.636 -0.6039  1.1200 -0.2280
 1391TIP3   OH228367   0.333   3.580  17.153 -0.1487  1.4347  0.5099
 1391TIP3    H128368   0.426   3.587  17.173  0.1481 -0.7350  0.1637
 1391TIP3    H228369   0.289   3.618  17.229  1.0000  1.0420  1.3976
 1392TIP3   OH228370   0.251   0.815  16.825  0.1378  0.0858 -0.2841
 1392TIP3    H128371   0.305   0.827  16.903 -2.2418 -0.6959  1.6039
 1392TIP3    H228372   0.261   0.723  16.802  0.9430  0.3481 -0.9945
 1393TIP3   OH228373   2.233   6.644  17.349 -0.0563  0.0437  0.1511
 1393TIP3    H128374   2.183   6.707  17.297 -0.4720 -1.4092 -1.3236
 1393TIP3    H228375   2.222   6.673  17.439 -1.1144  1.4565 -0.3866
 1394TIP3   OH228376   6.383   6.323  18.699 -0.2799 -0.0275 -0.7059
 1394TIP3    H128377   6.425   6.250  18.654  0.4977  1.0640 -1.8274
 1394TIP3    H228378   6.291   6.297  18.707 -0.0950 -0.9537 -1.4331
 1395TIP3   OH228379   3.562   0.495  18.751 -0.9278  0.0418  0.0870
 1395TIP3    H128380   3.479   0.539  18.766 -2.1280 -1.6432 -1.1557
 1395TIP3    H228381   3.610   0.553  18.692 -0.5121  1.7491  1.9946
 1396TIP3   OH228382   1.083   6.116  17.579 -0.2157 -0.1000 -0.0903
 1396TIP3    H128383   1.049   6.196  17.619 -1.7145 -0.2544 -0.9982
 1396TIP3    H228384   1.165   6.144  17.537  0.6697  0.3526  1.8233
 1397TIP3   OH228385   1.066   1.485  17.387  0.3354 -0.3000 -0.0191
 1397TIP3    H128386   1.096   1.491  17.297  1.0338 -1.9974  0.0606
 1397TIP3    H228387   1.000   1.415  17.387  1.7950 -1.7576  1.0883
 1398TIP3   OH228388   4.114   2.600  19.207  0.1466  0.2863 -0.0617
 1398TIP3    H128389   4.020   2.587  19.217 -0.5573  1.5320 -3.6263
 1398TIP3    H228390   4.127   2.694  19.220  0.4871  0.4943 -1.6967
 1399TIP3   OH228391   1.629   5.999  18.843  0.6775 -0.6317 -0.0906
 1399TIP3    H128392   1.670   6.085  18.855 -1.0840 -0.1651  5.3739
 1399TIP3    H228393   1.703   5.939  18.827  2.4070  1.3283  0.1545
 1400TIP3   OH228394   5.606   4.816  18.855 -0.1845  0.7049 -0.1444
 1400TIP3    H128395   5.612   4.906  18.824  3.6188  0.6526 -0.0487
 1400TIP3    H228396   5.641   4.764  18.782  0.2782 -0.3802  0.8235
 1401TIP3   OH228397   3.049   0.652  18.266  0.8356 -0.5441 -0.1075
 1401TIP3    H128398   3.050   0.589  18.338  1.1143 -0.7208 -0.2608
 1401TIP3    H228399   3.107   0.613  18.200  1.0051 -0.1309 -0.2049
 1402TIP3   OH228400   3.742   2.388  18.244  0.1237 -0.2848  0.0990
 1402TIP3    H128401   3.823   2.427  18.277 -0.7193 -0.0457  1.9757
 1402TIP3    H228402   3.722   2.439  18.165 -0.4658  2.6212  1.9611
 1403TIP3   OH228403   0.920   3.951  16.614  0.2355  0.4359 -0.0353
 1403TIP3    H128404   0.848   3.897  16.649  0.0068  0.9718  0.3342
 1403TIP3    H228405   0.982   3.887  16.580  0.7768 -0.1810  1.9406
 1404TIP3   OH228406   1.990   4.813  16.496 -0.3581 -0.2363 -0.3284
 1404TIP3    H128407   2.070   4.863  16.480 -0.0868 -1.1090 -1.8653
 1404TIP3    H228408   2.011   4.756  16.570  0.1180  0.2201 -0.1081
 1405TIP3   OH228409   6.592   6.625  18.377  0.3263 -0.0616 -0.0026
 1405TIP3    H128410   6.544   6.588  18.452 -2.4901  1.9552 -0.6232
 1405TIP3    H228411   6.616   6.713  18.405 -1.6898  1.1198 -1.6859
 1406TIP3   OH228412   4.065   0.729  19.519  0.3020 -0.3689  0.4706
 1406TIP3    H128413   3.978   0.763  19.502  0.1611 -1.7557 -2.0708
 1406TIP3    H228414   4.068   0.645  19.472  2.5092 -1.0900  1.7245
 1407TIP3   OH228415   4.479   6.518  19.626 -0.0370 -0.8946  0.5287
 1407TIP3    H128416   4.420   6.510  19.701 -0.1929 -1.7310  0.3326
 1407TIP3    H228417   4.428   6.486  19.552  0.0470  0.1105  0.0188
 1408TIP3   OH228418   0.606   2.142  17.894 -0.2432 -0.2846 -0.0984
 1408TIP3    H128419   0.684   2.197  17.899 -0.2683 -0.3407  2.0617
 1408TIP3    H228420   0.555   2.166  17.972 -1.7917 -1.1152 -0.8087
 1409TIP3   OH228421   1.007   6.930  18.125  0.0728 -0.2951 -0.0081
 1409TIP3    H128422   0.949   6.995  18.163  1.3454  0.6094  0.4750
 1409TIP3    H228423   1.093   6.948  18.164  1.1049 -0.3088 -2.1240
 1410TIP3   OH228424   5.338   5.550  18.350  0.6224 -0.0179  0.1574
 1410TIP3    H128425   5.383   5.519  18.271 -0.2653 -0.2919 -0.2438
 1410TIP3    H228426   5.348   5.645  18.346  0.2716  0.0005 -0.4808
 1411TIP3   OH228427   7.118   0.740  18.769  0.2142 -0.3654 -1.0387
 1411TIP3    H128428   7.113   0.834  18.780  1.3309 -0.2852 -1.1258
 1411TIP3    H228429   7.069   0.704  18.843  0.7834  0.2629 -0.3408
 1412TIP3   OH228430   0.901   5.333  17.116  0.5068  0.2697  0.1717
 1412TIP3    H128431   0.983   5.366  17.152  0.6577 -0.2751  0.3327
 1412TIP3    H228432   0.918   5.241  17.098  0.4683  0.5552 -1.4220
 1413TIP3   OH228433   4.751   0.504  18.278 -0.6398  0.2674 -0.2297
 1413TIP3    H128434   4.795   0.535  18.198  2.6234 -0.1142  1.2755
 1413TIP3    H228435   4.706   0.424  18.251 -0.6753  0.8171 -1.9359
 1414TIP3   OH228436   5.791   2.816  19.396 -1.0696 -0.3590 -0.0538
 1414TIP3    H128437   5.869   2.867  19.416 -1.8538  0.9151 -0.1674
 1414TIP3    H228438   5.819   2.725  19.405  0.5348  0.0609 -0.5230
 1415TIP3   OH228439   2.452   1.847  19.206 -0.4514 -0.1815  0.0100
 1415TIP3    H128440   2.403   1.821  19.284 -0.7688 -0.7848 -0.3770
 1415TIP3    H228441   2.414   1.794  19.136  0.3534 -0.2142 -0.4128
 1416TIP3   OH228442   4.306   2.316  18.386  0.1496 -0.1963 -0.6428
 1416TIP3    H128443   4.392   2.335  18.424 -0.5055 -1.9238  2.0188
 1416TIP3    H228444   4.298   2.377  18.313  3.8336 -0.3394 -1.3528
 1417TIP3   OH228445   1.108   7.227  18.484 -0.4958 -0.3433  0.6957
 1417TIP3    H128446   1.108   7.321  18.504  1.2695 -0.3094  0.6704
 1417TIP3    H228447   1.045   7.218  18.413  0.8855  1.1868 -0.8103
 1418TIP3   OH228448   1.563   4.787  18.230  0.1847  0.2548  0.1416
 1418TIP3    H128449   1.488   4.834  18.265  0.4713  1.3779 -0.6886
 1418TIP3    H228450   1.621   4.856  18.197  1.2491 -0.6265  0.1255
 1419TIP3   OH228451   4.700   6.460  16.397 -0.0273 -0.0509  0.6163
 1419TIP3    H128452   4.659   6.373  16.392  0.7530 -0.3999 -3.3094
 1419TIP3    H228453   4.636   6.519  16.357  1.3111  0.2108 -1.2799
 1420TIP3   OH228454   6.511   4.350  17.654  0.2042 -0.1120  0.2383
 1420TIP3    H128455   6.581   4.308  17.704  1.0929 -0.1066 -0.9431
 1420TIP3    H228456   6.432   4.301  17.677  0.8540 -1.0716  0.4940
 1421TIP3   OH228457   5.533   0.202  19.431  0.0434  0.1369  0.0746
 1421TIP3    H128458   5.586   0.133  19.469  1.2231  0.9772 -0.0018
 1421TIP3    H228459   5.578   0.224  19.349 -0.7829  0.4218 -0.3128
 1422TIP3   OH228460   7.001   3.409  19.232 -0.5099  0.5086 -0.2465
 1422TIP3    H128461   6.919   3.448  19.261 -0.4544 -0.7399  1.7334
 1422TIP3    H228462   7.040   3.476  19.175 -2.4755  1.4614 -0.5635
 1423TIP3   OH228463   6.943   1.061  19.368  0.1206 -0.1856  0.4902
 1423TIP3    H128464   6.949   1.156  19.374 -0.1475 -0.1402  0.1101
 1423TIP3    H228465   6.851   1.043  19.350  0.3658 -0.4380 -0.6239
 1424TIP3   OH228466   3.788   6.933  18.815 -0.2279  0.1938  0.1346
 1424TIP3    H128467   3.700   6.899  18.799 -0.0136  0.1099 -0.9063
 1424TIP3    H228468   3.777   6.996  18.886 -1.3329  1.0934 -0.8122
 1425TIP3   OH228469   1.074   1.191  17.735 -0.2696 -0.2471  0.1474
 1425TIP3    H128470   1.125   1.234  17.667 -0.3498 -1.3057 -0.6023
 1425TIP3    H228471   1.051   1.261  17.796  0.2292  0.6246 -0.6481
 1426TIP3   OH228472   0.416   1.574  19.833 -0.0543 -0.4102 -0.1993
 1426TIP3    H128473   0.468   1.643  19.872  1.4478 -1.7783  0.3186
 1426TIP3    H228474   0.472   1.536  19.766 -1.2147 -0.5192 -1.1462
 1427TIP3   OH228475   6.029   4.835  17.916 -0.3654  0.4570 -0.6305
 1427TIP3    H128476   6.043   4.820  18.009  2.5917  1.1245 -0.8656
 1427TIP3    H228477   6.069   4.759  17.873 -0.4680  0.8120 -1.3771
 1428TIP3   OH228478   2.777   5.371  19.014 -0.8867  0.0718  0.3591
 1428TIP3    H128479   2.740   5.292  19.052  0.9586 -0.2604  1.5533
 1428TIP3    H228480   2.853   5.392  19.069  0.5063  0.9116 -1.7580
 1429TIP3   OH228481   0.197   0.646  17.163 -0.2535 -0.3914 -0.3661
 1429TIP3    H128482   0.176   0.568  17.112  0.4061 -1.4573  0.9130
 1429TIP3    H228483   0.120   0.702  17.156  0.0183 -0.2551 -2.9029
 1430TIP3   OH228484   3.827   2.284  17.675  0.1762 -0.6237 -0.2398
 1430TIP3    H128485   3.802   2.309  17.586  0.3701  0.0677 -0.1075
 1430TIP3    H228486   3.840   2.368  17.720  0.6148 -0.9724  0.2855
 1431TIP3   OH228487   2.465   2.622  18.508 -0.0670  0.4489  0.5911
 1431TIP3    H128488   2.512   2.694  18.467  0.5005  0.8396  1.8700
 1431TIP3    H228489   2.497   2.621  18.598 -2.3214  0.5630  1.4479
 1432TIP3   OH228490   7.003   3.646  18.650 -0.2245 -0.2460  0.2800
 1432TIP3    H128491   6.919   3.687  18.633  0.0906 -0.1443 -1.1066
 1432TIP3    H228492   7.017   3.587  18.576  1.6697  0.9816 -0.4281
 1433TIP3   OH228493   7.547   1.260  16.931  0.0095  0.0866  0.8015
 1433TIP3    H128494   7.491   1.248  16.854  0.3052  2.5244  0.1262
 1433TIP3    H228495   7.524   1.187  16.989 -1.4295 -0.8648 -0.8682
 1434TIP3   OH228496   4.540   3.744  18.519 -0.5299 -0.5917  0.0421
 1434TIP3    H128497   4.491   3.714  18.595 -1.2434  0.1503 -0.1120
 1434TIP3    H228498   4.486   3.718  18.444 -1.9716  2.3365 -0.0605
 1435TIP3   OH228499   4.109   5.913  18.888 -0.0471 -0.1373  0.0116
 1435TIP3    H128500   4.185   5.916  18.829  0.0408  0.7036  0.1603
 1435TIP3    H228501   4.046   5.857  18.842  0.0450  0.4501 -0.8577
 1436TIP3   OH228502   6.306   6.746  18.343 -0.3870 -0.2426 -0.3020
 1436TIP3    H128503   6.302   6.810  18.414 -1.5104 -2.1964  1.5438
 1436TIP3    H228504   6.385   6.695  18.361 -0.8963 -1.0120 -0.1770
 1437TIP3   OH228505   4.989   4.437  18.952 -0.4727  0.3577 -0.7085
 1437TIP3    H128506   5.014   4.449  19.044  1.5297 -1.5348 -0.9024
 1437TIP3    H228507   4.900   4.471  18.946  0.5112  3.6778  1.1223
 1438TIP3   OH228508   1.865   6.192  18.704  0.4391  0.1886 -0.1421
 1438TIP3    H128509   1.943   6.207  18.757  0.6295 -1.6778  0.1729
 1438TIP3    H228510   1.895   6.202  18.614  0.9115  0.1278  0.0030
 1439TIP3   OH228511   6.823   6.481  19.057  0.1233 -0.3473  0.1844
 1439TIP3    H128512   6.907   6.525  19.045  0.8887 -1.6427  0.6543
 1439TIP3    H228513   6.762   6.552  19.077  0.6562  0.8699 -2.1057
 1440TIP3   OH228514   5.678   7.304  18.757  0.1448 -0.1908  0.1813
 1440TIP3    H128515   5.754   7.270  18.709  0.2251 -0.8286  0.7480
 1440TIP3    H228516   5.649   7.379  18.705  0.5264 -0.5699 -0.6014
 1441TIP3   OH228517   2.702   2.498  17.391  0.0442  0.1385  0.2208
 1441TIP3    H128518   2.651   2.552  17.330 -1.8106 -2.5083 -0.7683
 1441TIP3    H228519   2.667   2.519  17.477 -1.8623 -0.6251 -0.3131
 1442TIP3   OH228520   2.877   1.449  17.126 -0.8160  0.5140  0.8979
 1442TIP3    H128521   2.951   1.485  17.175 -0.8073  0.8759  0.6243
 1442TIP3    H228522   2.916   1.422  17.042 -0.9752  0.6144  0.7911
 1443TIP3   OH228523   4.490   1.873  18.038 -0.0701 -0.1846  0.0022
 1443TIP3    H128524   4.482   1.925  17.958 -1.9999 -1.2677 -0.5766
 1443TIP3    H228525   4.495   1.782  18.007 -0.8078 -0.6206  1.0950
 1444TIP3   OH228526   1.020   7.530  17.548  0.2364 -0.3092  0.1389
 1444TIP3    H128527   1.083   7.511  17.617 -0.5713  0.1375  1.0129
 1444TIP3    H228528   0.982   7.615  17.571 -2.2234 -1.4965  0.8221
 1445TIP3   OH228529   3.662   6.399  18.019 -0.1743  0.9572 -0.2834
 1445TIP3    H128530   3.637   6.491  18.023  0.4463  1.0890  1.0195
 1445TIP3    H228531   3.630   6.362  18.101  2.1626  0.7011  0.5810
 1446TIP3   OH228532   7.313   5.502  17.214  0.2548 -0.0579  0.4269
 1446TIP3    H128533   7.237   5.445  17.203  1.9996 -2.8621  1.7566
 1446TIP3    H228534   7.372   5.479  17.143  0.9869  0.1052  0.9603
 1447TIP3   OH228535   3.485   7.120  18.510 -0.2163 -0.7321 -0.2394
 1447TIP3    H128536   3.525   7.037  18.485  0.1375 -1.0803  1.3530
 1447TIP3    H228537   3.412   7.094  18.567  0.1304  0.0447  0.5773
 1448TIP3   OH228538   4.904   6.552  19.736  0.4459 -0.2955 -0.0339
 1448TIP3    H128539   4.830   6.612  19.745  1.1774  0.3663  1.9569
 1448TIP3    H228540   4.887   6.505  19.654 -2.5658 -0.7071  0.7170
 1449TIP3   OH228541   2.792   2.876  18.190 -0.0195  0.2900  0.5486
 1449TIP3    H128542   2.824   2.967  18.192 -1.9748  0.9949  1.4720
 1449TIP3    H228543   2.766   2.862  18.099  2.8147 -0.3406 -0.2694
 1450TIP3   OH228544   3.135   7.067  18.117 -0.6929 -0.0326 -0.3521
 1450TIP3    H128545   3.147   7.063  18.022 -0.2170  0.9196 -0.3476
 1450TIP3    H228546   3.047   7.104  18.128 -0.5576  0.3181 -0.4304
 1451TIP3   OH228547   0.390   1.752  17.855 -0.1758 -0.1989  0.2127
 1451TIP3    H128548   0.429   1.669  17.829 -1.6782 -0.7269 -0.5041
 1451TIP3    H228549   0.322   1.728  17.918 -0.6564  0.4733 -0.0334
 1452TIP3   OH228550   1.888   2.587  18.740 -0.6319 -0.1411  0.1433
 1452TIP3    H128551   1.938   2.506  18.741 -1.4636 -0.6751  1.0747
 1452TIP3    H228552   1.829   2.578  18.664 -2.3815 -1.5200  1.5632
 1453TIP3   OH228553   0.438   1.648  18.658  0.4361  0.5123  0.1709
 1453TIP3    H128554   0.436   1.561  18.698 -3.1450 -0.5553 -1.8614
 1453TIP3    H228555   0.377   1.700  18.710 -0.1528  0.6885 -0.6657
 1454TIP3   OH228556   4.448   7.190  18.610 -0.2633  0.3150  0.2998
 1454TIP3    H128557   4.498   7.196  18.691 -0.6655  1.7462  0.4738
 1454TIP3    H228558   4.363   7.230  18.631 -1.5433 -2.0578  0.0260
 1455TIP3   OH228559   5.191   3.472  19.251 -0.3017 -0.4146  0.0056
 1455TIP3    H128560   5.123   3.453  19.315  0.1642 -1.8573  0.1017
 1455TIP3    H228561   5.272   3.473  19.301 -0.1034  0.0668 -0.3117
 1456TIP3   OH228562   2.739   4.571  17.773  0.2909  0.2136 -0.2881
 1456TIP3    H128563   2.800   4.497  17.763 -0.0122  0.0038 -0.6049
 1456TIP3    H228564   2.768   4.634  17.707 -0.0981 -0.0698 -0.7372
 1457TIP3   OH228565   6.091   1.595  18.525  0.1494  0.2553  0.3039
 1457TIP3    H128566   6.150   1.619  18.597 -0.7930  0.0880  1.1434
 1457TIP3    H228567   6.150   1.578  18.451  1.2235 -0.7126  1.3429
 1458TIP3   OH228568   6.713   2.739  18.415 -0.6558  0.0773 -0.3715
 1458TIP3    H128569   6.664   2.820  18.412 -1.8993 -0.6585 -0.4243
 1458TIP3    H228570   6.652   2.672  18.384  0.3235 -0.8882 -0.2834
 1459TIP3   OH228571   1.118   4.136  18.037 -0.2300 -0.4507  0.6115
 1459TIP3    H128572   1.026   4.161  18.040 -0.3254 -0.8267  1.0030
 1459TIP3    H228573   1.116   4.041  18.028  0.1059 -0.2786 -2.5232
 1460TIP3   OH228574   0.464   4.846  17.587 -0.3482 -0.2231 -0.9355
 1460TIP3    H128575   0.429   4.832  17.675  0.8138 -1.8459 -0.6935
 1460TIP3    H228576   0.511   4.929  17.593 -0.7415 -0.0473 -0.1779
 1461TIP3   OH228577   0.343   3.697  18.908  0.0334 -0.1394 -0.2079
 1461TIP3    H128578   0.399   3.646  18.967 -2.5773 -1.7083  1.0887
 1461TIP3    H228579   0.370   3.787  18.922  1.4378 -0.7279  1.2633
 1462TIP3   OH228580   1.375   7.061  18.696  0.0839 -0.4440  0.5121
 1462TIP3    H128581   1.421   7.036  18.616 -0.4956  1.4665 -0.4890
 1462TIP3    H228582   1.444   7.069  18.762  0.5035 -2.6118  0.4118
 1463TIP3   OH228583   5.254   4.912  18.516 -0.2212  0.1312 -0.1590
 1463TIP3    H128584   5.201   4.899  18.437 -0.6779  2.3921 -0.2827
 1463TIP3    H228585   5.199   4.879  18.587 -0.9218  0.5216 -0.5149
 1464TIP3   OH228586   0.006   3.847  19.081  0.2524  0.6894 -0.1809
 1464TIP3    H128587   0.055   3.814  19.006  1.5483  1.0604  0.4866
 1464TIP3    H228588  -0.086   3.841  19.053  0.6407 -0.2136 -1.3672
 1465TIP3   OH228589   1.979   1.653  18.258 -0.3113 -0.3459 -0.4043
 1465TIP3    H128590   1.965   1.653  18.352 -0.7523  3.1836 -0.3539
 1465TIP3    H228591   1.891   1.641  18.221 -0.5902  1.0937 -0.2763
 1466TIP3   OH228592   0.070   5.084  18.278  0.1995 -0.2979  0.4545
 1466TIP3    H128593   0.146   5.136  18.252  0.0511 -0.3729 -0.1442
 1466TIP3    H228594   0.056   5.023  18.205 -0.9217  0.2580  0.1859
 1467TIP3   OH228595   7.474   7.532  17.260 -0.4484  0.1115 -0.0784
 1467TIP3    H128596   7.558   7.577  17.254  0.4228 -1.3956  0.4199
 1467TIP3    H228597   7.496   7.441  17.280 -2.2262 -0.0939  1.2461
 1468TIP3   OH228598   3.701   7.472  18.144 -0.3134  0.6493 -0.3217
 1468TIP3    H128599   3.767   7.525  18.100  1.2211 -0.1373  0.9564
 1468TIP3    H228600   3.655   7.427  18.073  1.1315  0.5185 -1.2084
 1469TIP3   OH228601   1.922   1.744  17.252  0.3064 -0.3152  0.0922
 1469TIP3    H128602   1.887   1.724  17.165 -0.8633  2.2756 -0.1265
 1469TIP3    H228603   1.981   1.818  17.237  1.5443 -1.0233  1.2753
 1470TIP3   OH228604   3.961   6.554  19.353  0.1840  0.1828  0.3291
 1470TIP3    H128605   3.873   6.520  19.368  0.4473 -1.7763 -1.8882
 1470TIP3    H228606   3.955   6.600  19.269  1.0656  0.8332  0.6099
 1471TIP3   OH228607   5.542   7.164  17.562  0.7626  0.1575 -0.1838
 1471TIP3    H128608   5.579   7.099  17.503  1.4976 -0.0378  0.4885
 1471TIP3    H228609   5.550   7.126  17.649 -1.1573  0.0469 -0.0155
 1472TIP3   OH228610   1.952   1.449  17.396 -0.3556 -0.0634  0.6853
 1472TIP3    H128611   1.999   1.380  17.350  0.0274  0.0937  0.8362
 1472TIP3    H228612   1.958   1.525  17.339  0.7095  0.3273  1.2802
 1473TIP3   OH228613   7.091   0.350  17.673  0.5628 -0.1005 -0.3859
 1473TIP3    H128614   7.088   0.427  17.731 -2.2035  0.8356 -1.6127
 1473TIP3    H228615   7.038   0.284  17.717 -1.1648  0.4544 -1.5608
 1474TIP3   OH228616   5.955   5.736  18.656  0.0707 -0.2145  0.0844
 1474TIP3    H128617   5.901   5.661  18.630 -1.2822  0.7016  0.1453
 1474TIP3    H228618   5.967   5.787  18.575  1.9565 -1.0341 -0.2098
 1475TIP3   OH228619   6.907   5.805  19.166 -0.5159 -0.0417  0.2011
 1475TIP3    H128620   6.900   5.736  19.100  2.1209 -1.2903  1.0712
 1475TIP3    H228621   6.931   5.884  19.118  0.4405 -0.7217 -0.4805
 1476TIP3   OH228622   5.043   0.096  17.385  0.3016  0.8383  0.2794
 1476TIP3    H128623   5.128   0.119  17.422  0.2695  1.2655  0.1030
 1476TIP3    H228624   5.059   0.084  17.292  0.1248  1.1766  0.2018
 1477TIP3   OH228625   5.331   5.214  17.460 -0.1669  0.1441  0.2432
 1477TIP3    H128626   5.340   5.132  17.411  0.3459  0.2940  0.0839
 1477TIP3    H228627   5.407   5.216  17.517  0.1774  0.8292 -0.2271
 1478TIP3   OH228628   3.888   2.287  18.967 -0.0637 -0.0914  0.3061
 1478TIP3    H128629   3.896   2.346  18.892 -3.6640 -1.0026 -1.0323
 1478TIP3    H228630   3.895   2.199  18.930  0.8954 -0.5701  1.5574
 1479TIP3   OH228631   2.295   5.589  18.017 -0.3903  0.2763  0.3241
 1479TIP3    H128632   2.303   5.541  17.935 -0.9789 -0.1553  0.5138
 1479TIP3    H228633   2.348   5.668  18.004 -2.0698  1.2260 -1.2267
 1480TIP3   OH228634   3.168   0.538  18.054  0.2997 -0.1934 -0.7866
 1480TIP3    H128635   3.219   0.603  18.008  1.3289 -0.9768 -0.7880
 1480TIP3    H228636   3.201   0.454  18.022 -0.7234 -0.7244 -0.5035
 1481TIP3   OH228637   1.424   7.664  17.182 -0.0666  0.3425 -0.2788
 1481TIP3    H128638   1.466   7.654  17.096 -1.1404 -1.8899 -0.6144
 1481TIP3    H228639   1.445   7.753  17.209  1.4406  0.6452 -2.2473
 1482TIP3   OH228640   0.501   4.534  17.933 -0.6895 -0.4739  0.3921
 1482TIP3    H128641   0.574   4.594  17.918 -0.2943 -0.9419  0.4156
 1482TIP3    H228642   0.437   4.556  17.866 -1.4515  1.3566  1.6388
 1483TIP3   OH228643   2.665   1.093  18.764 -0.5728  0.0484  0.2281
 1483TIP3    H128644   2.701   1.177  18.736  1.9282  0.0115  2.8426
 1483TIP3    H228645   2.714   1.029  18.712 -0.6412  0.1569  0.0297
 1484TIP3   OH228646   0.993   1.840  19.166  0.2319 -0.9108 -0.0272
 1484TIP3    H128647   0.909   1.880  19.147 -0.0066 -1.0128  0.7789
 1484TIP3    H228648   1.056   1.912  19.162  0.0462 -0.7571 -0.1937
 1485TIP3   OH228649   1.390   2.842  17.683 -0.4803 -0.1389  0.0359
 1485TIP3    H128650   1.483   2.821  17.685 -0.5891 -0.7248 -0.5651
 1485TIP3    H228651   1.358   2.818  17.770 -0.3947 -1.6049 -0.3013
 1486TIP3   OH228652   2.438   7.615  18.601 -0.5437 -0.1432 -0.6360
 1486TIP3    H128653   2.451   7.644  18.692  0.8312 -0.6631 -0.6499
 1486TIP3    H228654   2.377   7.541  18.608 -0.5978 -0.0578 -0.1613
 1487TIP3   OH228655   4.724   2.206  19.280  1.0167 -0.0799  0.0824
 1487TIP3    H128656   4.775   2.132  19.246 -0.5077  0.1417 -3.1570
 1487TIP3    H228657   4.784   2.281  19.276  1.4853 -0.4690 -0.2479
 1488TIP3   OH228658   0.475   1.893  19.113 -0.0257 -0.7436  0.6286
 1488TIP3    H128659   0.512   1.970  19.070 -0.2856 -1.2818 -0.5917
 1488TIP3    H228660   0.391   1.923  19.147  0.6216 -0.0484  1.6871
 1489TIP3   OH228661   6.568   4.250  19.124  0.7297  0.0881  0.2954
 1489TIP3    H128662   6.507   4.301  19.072 -0.4554  0.4093  1.9498
 1489TIP3    H228663   6.590   4.175  19.068 -0.9672  0.1048 -0.4521
 1490TIP3   OH228664   3.852   6.334  17.450  0.1151 -1.0072  0.0130
 1490TIP3    H128665   3.793   6.360  17.521 -0.2065 -0.4475 -0.4513
 1490TIP3    H228666   3.818   6.378  17.373 -0.9654 -3.4468 -1.0189
 1491TIP3   OH228667   0.854   3.160  16.974  0.8000 -0.2128 -0.1239
 1491TIP3    H128668   0.906   3.151  16.894  0.8929  0.6168 -0.1695
 1491TIP3    H228669   0.865   3.077  17.019  0.2201 -0.9451 -1.2844
 1492TIP3   OH228670   5.672   6.177  18.367  0.2795  0.5034  0.4503
 1492TIP3    H128671   5.687   6.099  18.421  1.0544  0.0042 -0.4432
 1492TIP3    H228672   5.751   6.184  18.313 -0.3500  1.1384 -0.4221
 1493TIP3   OH228673   6.813   0.625  17.608  0.2835 -0.5672 -0.0819
 1493TIP3    H128674   6.805   0.554  17.544 -0.6637 -0.8278  0.3150
 1493TIP3    H228675   6.818   0.581  17.693  1.6860 -0.2278  0.0469
 1494TIP3   OH228676   1.236   4.278  18.274 -0.5077  0.3137 -0.0218
 1494TIP3    H128677   1.148   4.240  18.274 -1.4144  2.1075  2.8932
 1494TIP3    H228678   1.228   4.354  18.216 -0.7530  0.1834 -0.1626
 1495TIP3   OH228679   1.786   6.123  19.183 -0.7961 -0.1916 -0.1231
 1495TIP3    H128680   1.784   6.136  19.278  0.4698 -0.5714 -0.0333
 1495TIP3    H228681   1.782   6.028  19.172  1.1841 -0.2875 -0.3466
 1496TIP3   OH228682   5.962   1.316  18.833 -0.0098 -0.2992  0.0655
 1496TIP3    H128683   5.954   1.221  18.823 -0.6775 -0.0992 -1.8497
 1496TIP3    H228684   5.903   1.352  18.766  1.2400  1.4543 -0.1672
 1497TIP3   OH228685   7.565   1.218  17.655  0.1265  0.3633  0.0146
 1497TIP3    H128686   7.496   1.163  17.619  1.2060 -0.4677 -0.8398
 1497TIP3    H228687   7.583   1.282  17.586  1.1192 -0.2536 -0.3084
 1498TIP3   OH228688   1.279   5.684  18.324  0.1881  0.2238  0.4730
 1498TIP3    H128689   1.240   5.682  18.236  1.9481  1.6381 -0.4101
 1498TIP3    H228690   1.207   5.707  18.382 -0.5144  1.8936 -0.9675
 1499TIP3   OH228691   4.675   6.507  19.284  0.0048 -0.2568  0.2745
 1499TIP3    H128692   4.705   6.558  19.209 -0.3062 -1.4420 -0.6944
 1499TIP3    H228693   4.754   6.491  19.336  0.5856 -0.9506 -0.7693
 1500TIP3   OH228694   4.253   6.878  18.272  0.0664 -0.5061 -0.3075
 1500TIP3    H128695   4.183   6.924  18.319  0.3613 -0.4159  0.0513
 1500TIP3    H228696   4.329   6.885  18.330  0.0046 -1.8075 -0.0458
 1501TIP3   OH228697   0.918   1.051  18.102 -0.2892 -0.6989  0.7025
 1501TIP3    H128698   0.861   1.097  18.164 -0.1864 -0.5779  0.7055
 1501TIP3    H228699   0.903   0.958  18.122 -1.5711 -0.7248 -0.2656
 1502TIP3   OH228700   7.246   3.049  17.364  0.0062 -0.2246 -0.5836
 1502TIP3    H128701   7.278   3.020  17.449  1.0113 -1.2575 -1.2852
 1502TIP3    H228702   7.296   2.998  17.301 -0.7191  0.5229 -1.8025
 1503TIP3   OH228703   3.593   3.626  19.062  0.6207  0.0831  0.2731
 1503TIP3    H128704   3.576   3.720  19.062  1.6823  0.2991 -0.5399
 1503TIP3    H228705   3.672   3.616  19.009 -0.4396 -1.4599 -1.0909
 1504TIP3   OH228706   6.542   3.598  17.619 -0.3273 -0.4874 -0.4475
 1504TIP3    H128707   6.579   3.529  17.563 -0.2863 -0.0094 -1.0249
 1504TIP3    H228708   6.447   3.584  17.615 -0.2731 -1.0719  0.1845
 1505TIP3   OH228709   2.206   4.896  17.207  0.3129  0.3311  0.1909
 1505TIP3    H128710   2.144   4.825  17.221  0.1649  0.5772  0.8237
 1505TIP3    H228711   2.239   4.883  17.118 -1.6856  1.0086 -0.6897
 1506TIP3   OH228712   3.167   4.873  19.278 -0.2100  0.4703  0.7287
 1506TIP3    H128713   3.145   4.953  19.325 -2.5895  0.3623 -0.0827
 1506TIP3    H228714   3.219   4.902  19.203  1.6616  0.8641  2.1053
 1507TIP3   OH228715   3.571   0.035  17.063 -0.8692 -0.4801 -0.2170
 1507TIP3    H128716   3.633  -0.034  17.089 -0.4943  0.0716  0.3767
 1507TIP3    H228717   3.539   0.007  16.978  1.0758 -0.1944 -1.1000
 1508TIP3   OH228718   0.193   3.006  17.440 -0.1925 -0.0189 -0.9613
 1508TIP3    H128719   0.249   3.021  17.364 -1.0941 -0.7713 -1.8073
 1508TIP3    H228720   0.193   2.911  17.452  1.7919  0.1890  1.4589
 1509TIP3   OH228721   7.310   5.917  16.101  0.3909  0.1781  0.2863
 1509TIP3    H128722   7.241   5.852  16.089  1.4466 -1.3906  2.1025
 1509TIP3    H228723   7.319   5.959  16.016  0.2451 -2.6525 -1.2352
 1510TIP3   OH228724   3.781   0.993  19.026  0.1353  0.0992 -0.1166
 1510TIP3    H128725   3.690   0.972  19.045  0.5209 -0.2296  1.5428
 1510TIP3    H228726   3.790   1.085  19.051  0.5303 -0.2026  0.9257
 1511TIP3   OH228727   4.770   0.778  16.812 -0.1316 -0.2482 -0.1224
 1511TIP3    H128728   4.738   0.693  16.844  1.0364 -0.7900 -0.3284
 1511TIP3    H228729   4.690   0.826  16.788 -0.8949 -0.7838  1.1961
 1512TIP3   OH228730   1.395   5.639  17.604  0.0711 -0.0733  0.0934
 1512TIP3    H128731   1.447   5.665  17.681  1.3076 -0.0334 -0.7267
 1512TIP3    H228732   1.378   5.721  17.558 -0.4823 -0.1260  0.1951
 1513TIP3   OH228733   3.557   0.642  17.373  0.3917  0.3091  0.2901
 1513TIP3    H128734   3.480   0.587  17.381  1.4050 -1.3023 -0.4147
 1513TIP3    H228735   3.526   0.720  17.327 -0.7011 -0.6156 -0.6214
 1514TIP3   OH228736   2.671   2.527  18.205  0.2865 -0.0824 -0.1737
 1514TIP3    H128737   2.596   2.586  18.200 -0.1222 -0.6309 -0.6226
 1514TIP3    H228738   2.663   2.472  18.127  1.7546  0.5596 -0.8280
 1515TIP3   OH228739   6.020   1.320  18.331  0.6031 -0.1912  0.0133
 1515TIP3    H128740   6.094   1.365  18.290  0.7926 -1.2126 -0.8180
 1515TIP3    H228741   6.037   1.227  18.315 -0.4160 -0.4915  0.5876
 1516TIP3   OH228742   2.677   2.008  16.977  0.2728 -0.2612 -0.7376
 1516TIP3    H128743   2.588   2.011  17.012 -0.1274  1.6890 -1.7421
 1516TIP3    H228744   2.703   1.916  16.983 -1.7997 -0.8709 -0.4114
 1517TIP3   OH228745   0.223   5.087  16.610 -0.2631 -0.3538  0.2412
 1517TIP3    H128746   0.147   5.038  16.640 -1.0128  1.4941  1.5138
 1517TIP3    H228747   0.186   5.160  16.559  0.6696  0.2619  0.4249
 1518TIP3   OH228748   6.491   2.794  18.012  0.1680 -0.3178  0.3287
 1518TIP3    H128749   6.488   2.814  17.919 -2.4464  2.9037  0.9378
 1518TIP3    H228750   6.433   2.718  18.022  0.4518 -0.6785 -0.6366
 1519TIP3   OH228751   6.622   3.162  19.087  0.2212  0.3495 -0.1486
 1519TIP3    H128752   6.709   3.185  19.055 -0.1993  2.5864  0.1701
 1519TIP3    H228753   6.575   3.131  19.010  0.7760  0.8252 -0.6846
 1520TIP3   OH228754   5.243   0.947  17.596 -0.1198  0.0880 -0.3827
 1520TIP3    H128755   5.266   0.973  17.685  0.0700 -1.6500  0.1010
 1520TIP3    H228756   5.319   0.973  17.544 -0.6006  1.9370 -0.2367
 1521TIP3   OH228757   7.277   5.565  18.984  0.2455  0.7077 -0.5779
 1521TIP3    H128758   7.247   5.630  19.048 -0.9961  0.3419 -0.7536
 1521TIP3    H228759   7.254   5.481  19.023  2.1307  0.3318 -0.2095
 1522TIP3   OH228760   2.733   4.039  18.182 -0.0126  0.2043 -0.1401
 1522TIP3    H128761   2.717   4.087  18.263  1.6312  0.2900  0.1601
 1522TIP3    H228762   2.655   3.983  18.172 -0.0561 -0.1459  1.7475
 1523TIP3   OH228763   5.221   2.007  16.643 -0.6091  0.3018  0.5566
 1523TIP3    H128764   5.148   2.066  16.624 -0.0189  0.5367 -1.2033
 1523TIP3    H228765   5.218   1.995  16.737 -2.2415  1.1880  0.6644
 1524TIP3   OH228766   5.432   2.285  19.598  0.4015  0.1511  0.5968
 1524TIP3    H128767   5.462   2.372  19.622  3.8238 -0.2415 -1.5817
 1524TIP3    H228768   5.477   2.227  19.660  0.8680 -0.2281 -0.0884
 1525TIP3   OH228769   1.063   4.531  17.757 -0.0284 -0.2779  0.4772
 1525TIP3    H128770   1.130   4.508  17.820 -0.4719  0.7803  1.3570
 1525TIP3    H228771   0.986   4.551  17.810  0.4702  3.8688 -0.0668
 1526TIP3   OH228772   1.033   2.649  19.190 -0.8024 -0.0339  0.2290
 1526TIP3    H128773   0.944   2.670  19.163 -0.5523  0.5719 -0.1696
 1526TIP3    H228774   1.028   2.639  19.285 -1.7765 -2.5811 -0.0335
 1527TIP3   OH228775   3.640   6.517  17.638 -0.1017  0.1840 -0.0605
 1527TIP3    H128776   3.625   6.444  17.697  0.1014 -0.0832 -0.3377
 1527TIP3    H228777   3.573   6.581  17.662 -0.3094 -0.1096  0.1521
 1528TIP3   OH228778   0.344   2.717  16.610 -0.0780 -0.8139 -0.2740
 1528TIP3    H128779   0.309   2.710  16.699  0.0499  1.7142  0.0742
 1528TIP3    H228780   0.269   2.746  16.557  0.1649 -0.9365 -0.6934
 1529TIP3   OH228781   5.166   0.913  18.473  0.2875 -0.5521 -0.8311
 1529TIP3    H128782   5.244   0.915  18.418  1.5052 -1.7058  0.7457
 1529TIP3    H228783   5.193   0.958  18.553 -0.4647 -1.4816 -0.0338
 1530TIP3   OH228784   5.693   1.522  17.401  0.0891 -0.1014  0.4226
 1530TIP3    H128785   5.700   1.616  17.419  0.2229 -0.0002 -0.1481
 1530TIP3    H228786   5.649   1.517  17.316  1.7167 -0.5071 -0.4320
 1531TIP3   OH228787   7.065   6.456  18.422  0.2306 -0.4246  0.2297
 1531TIP3    H128788   7.159   6.472  18.429 -0.1472  1.9863  0.4294
 1531TIP3    H228789   7.057   6.360  18.425  2.6434 -0.6812  0.3211
 1532TIP3   OH228790   6.310   0.574  17.738 -0.2083 -0.1542  0.2701
 1532TIP3    H128791   6.404   0.563  17.728  0.1478  1.7902  1.0497
 1532TIP3    H228792   6.283   0.500  17.794  0.8420 -0.6805  0.1068
 1533TIP3   OH228793   7.325   7.175  18.791  0.0762 -0.0515  0.5226
 1533TIP3    H128794   7.277   7.234  18.850  0.1150 -0.4173  0.9227
 1533TIP3    H228795   7.290   7.196  18.704  1.1425  1.6011  0.4543
 1534TIP3   OH228796   1.657   5.996  16.434  0.1839  0.1940 -0.0335
 1534TIP3    H128797   1.624   6.067  16.490 -0.3531  1.1228 -1.4761
 1534TIP3    H228798   1.726   6.037  16.382  0.8134 -0.7083  0.0750
 1535TIP3   OH228799   4.794   6.458  17.534  0.1551 -0.0770 -0.1172
 1535TIP3    H128800   4.810   6.524  17.602 -0.2640 -1.7417  1.6570
 1535TIP3    H228801   4.869   6.467  17.474  0.2916  1.7377  0.2633
 1536TIP3   OH228802   7.343   3.041  18.072 -0.4826  0.3485  0.5064
 1536TIP3    H128803   7.410   3.097  18.111 -0.2900 -1.2210  2.5774
 1536TIP3    H228804   7.286   3.017  18.144 -1.2627 -1.1409 -0.5391
 1537TIP3   OH228805   4.950   4.938  17.938  0.6999 -0.7256 -0.1579
 1537TIP3    H128806   4.966   4.988  17.858  2.0302 -0.9914 -0.0827
 1537TIP3    H228807   4.924   5.005  18.002 -1.5279 -0.6534 -1.0740
 1538TIP3   OH228808   2.224   2.161  17.612 -0.3789 -0.2923 -0.8914
 1538TIP3    H128809   2.222   2.248  17.573  1.0912  0.4139  0.4966
 1538TIP3    H228810   2.208   2.175  17.705 -0.3407 -1.5297 -0.6784
 1539TIP3   OH228811   0.098   5.038  19.122  0.0064  0.2800  0.0908
 1539TIP3    H128812   0.022   5.095  19.108 -1.0498 -0.4094  2.5448
 1539TIP3    H228813   0.166   5.076  19.067 -1.7604  1.6195 -1.2989
 1540TIP3   OH228814   7.255   7.621  19.067  0.1544 -0.1353  0.9946
 1540TIP3    H128815   7.243   7.579  19.152 -0.5587  0.3817  1.1608
 1540TIP3    H228816   7.173   7.667  19.052  0.2645 -0.2491  0.0058
 1541TIP3   OH228817   3.054   5.979  18.236 -0.0075  0.3103  0.3121
 1541TIP3    H128818   3.033   6.065  18.274  3.6352  1.1296  0.8471
 1541TIP3    H228819   3.030   5.916  18.305 -2.1135  0.8801  0.1692
 1542TIP3   OH228820   5.012   2.293  19.282  0.3587  0.8890 -1.1007
 1542TIP3    H128821   5.105   2.273  19.282  0.7364  2.3083  1.1525
 1542TIP3    H228822   4.969   2.207  19.272  1.8922  0.0025 -0.4159
 1543TIP3   OH228823   2.050   0.846  18.037 -0.0693 -0.3193 -0.4370
 1543TIP3    H128824   2.026   0.928  17.993  0.7716  0.4231  0.4338
 1543TIP3    H228825   1.966   0.804  18.057 -0.8719  2.3639  2.8265
 1544TIP3   OH228826   6.605   4.563  18.614 -0.0326  0.1325  0.2055
 1544TIP3    H128827   6.554   4.610  18.679 -0.9381 -0.1164 -0.3077
 1544TIP3    H228828   6.620   4.627  18.544 -0.6197 -0.1194 -0.1536
 1545TIP3   OH228829   3.922   7.582  18.392  0.2062 -0.3284 -0.1463
 1545TIP3    H128830   3.909   7.663  18.441  1.2902 -0.0442 -0.2938
 1545TIP3    H228831   3.962   7.611  18.309 -0.6887 -0.8908 -0.7935
 1546TIP3   OH228832   5.842   7.270  17.838  0.1958  0.0757 -0.3098
 1546TIP3    H128833   5.771   7.239  17.895  0.0021 -0.2855 -0.7497
 1546TIP3    H228834   5.921   7.231  17.875  0.2474  0.9036  0.5011
 1547TIP3   OH228835   4.835   6.827  17.971  0.0150  0.3466  0.0631
 1547TIP3    H128836   4.873   6.875  17.897  2.1427 -1.1994  0.0518
 1547TIP3    H228837   4.897   6.755  17.987 -1.0133 -0.0721  2.5892
 1548TIP3   OH228838   5.208   2.978  17.689  0.8861 -0.2597 -0.2299
 1548TIP3    H128839   5.185   3.056  17.638  0.3876  1.2730  2.1836
 1548TIP3    H228840   5.292   2.950  17.653  1.2632  1.6250 -0.9224
 1549TIP3   OH228841   0.742   0.386  18.743  0.0333  0.2083 -0.1036
 1549TIP3    H128842   0.655   0.347  18.753 -0.0378 -0.7048 -3.0874
 1549TIP3    H228843   0.802   0.312  18.750  0.4124  0.5333  0.0949
 1550TIP3   OH228844   0.058   0.332  16.821 -0.0494  0.0337  0.3277
 1550TIP3    H128845   0.020   0.420  16.816  0.6953  0.3508  0.1438
 1550TIP3    H228846   0.145   0.346  16.857  0.3291 -0.5516 -0.3503
 1551TIP3   OH228847   5.705   7.357  17.441  0.2876  0.1610  0.3527
 1551TIP3    H128848   5.660   7.299  17.502 -0.6053  0.6376  0.1669
 1551TIP3    H228849   5.713   7.440  17.488 -0.1795  0.4562 -0.0727
 1552TIP3   OH228850   7.407   2.181  18.315  0.3021 -0.3159  0.1838
 1552TIP3    H128851   7.433   2.089  18.318  0.7396 -0.1773  0.8974
 1552TIP3    H228852   7.489   2.229  18.310  0.1736  0.0953  1.5844
 1553TIP3   OH228853   1.960   3.456  16.847  0.0774 -0.0973 -0.0366
 1553TIP3    H128854   2.002   3.393  16.788 -0.1214  0.2788 -0.5880
 1553TIP3    H228855   2.030   3.482  16.907  0.6449  0.4988 -0.9250
 1554TIP3   OH228856   6.290   0.264  19.004  0.2145  0.3624 -0.0090
 1554TIP3    H128857   6.204   0.253  19.044  0.5817 -1.0075  0.4643
 1554TIP3    H228858   6.284   0.217  18.920  0.1413  1.2902 -0.5331
 1555TIP3   OH228859   6.999   1.089  18.431  0.0038 -0.4121  0.2036
 1555TIP3    H128860   7.057   1.165  18.421  0.0913 -0.3773  0.9283
 1555TIP3    H228861   6.912   1.127  18.448  0.0754 -0.4796  0.7102
 1556TIP3   OH228862   0.865   4.954  18.366  0.2064  0.5707 -0.2635
 1556TIP3    H128863   0.956   4.979  18.352 -0.0889  2.5658  0.9276
 1556TIP3    H228864   0.845   4.986  18.454 -1.3917 -0.6346 -0.1435
 1557TIP3   OH228865   4.362   5.779  18.013 -0.0980  0.0225  0.2589
 1557TIP3    H128866   4.391   5.698  18.055 -0.8984 -0.7547 -0.6351
 1557TIP3    H228867   4.266   5.776  18.019 -0.1307  1.7145  1.6685
 1558TIP3   OH228868   3.407   2.676  16.603  0.5131 -0.5932  0.0669
 1558TIP3    H128869   3.354   2.690  16.682 -1.2257 -1.2261 -0.9538
 1558TIP3    H228870   3.457   2.758  16.593 -0.6280  0.2163  0.7905
 1559TIP3   OH228871   2.190   5.324  17.627  0.0967 -0.0009  0.6738
 1559TIP3    H128872   2.141   5.378  17.565  1.7244 -0.1405 -0.8159
 1559TIP3    H228873   2.262   5.287  17.576  0.3425 -1.7912  2.1872
 1560TIP3   OH228874   6.559   4.621  17.842 -0.4153  0.1348 -0.2842
 1560TIP3    H128875   6.540   4.528  17.828 -0.9839  0.3029 -0.6587
 1560TIP3    H228876   6.584   4.654  17.756 -3.0890  0.9780 -0.8562
 1561TIP3   OH228877   7.211   0.662  19.149  0.5811 -0.1140  0.1587
 1561TIP3    H128878   7.139   0.702  19.199 -1.0571 -0.7968 -1.5314
 1561TIP3    H228879   7.167   0.616  19.077  2.5004 -3.2685  0.8314
 1562TIP3   OH228880   2.247   1.334  18.662 -0.7625  0.2950  0.6522
 1562TIP3    H128881   2.255   1.258  18.720 -0.7016 -2.6346 -2.8032
 1562TIP3    H228882   2.159   1.368  18.680 -1.2153 -1.2488  1.6120
 1563TIP3   OH228883   0.701   1.310  18.858 -0.8113  0.2627  0.0020
 1563TIP3    H128884   0.784   1.349  18.828  0.7187 -2.8065 -0.1566
 1563TIP3    H228885   0.696   1.227  18.811 -2.1861 -1.2497  2.6163
 1564TIP3   OH228886   5.005   6.073  19.364 -0.4066 -0.1169  0.0885
 1564TIP3    H128887   5.090   6.070  19.409 -0.9627 -1.0311  1.1091
 1564TIP3    H228888   5.012   6.007  19.296  0.4155  1.2273 -1.1903
 1565TIP3   OH228889   4.099   0.631  18.600  0.2554 -0.0874 -0.6724
 1565TIP3    H128890   4.091   0.601  18.690 -0.7174  2.3914  0.1575
 1565TIP3    H228891   4.189   0.610  18.575  0.8975  0.1743  1.2722
 1566TIP3   OH228892   0.468   0.948  17.523  0.0203 -0.1156 -0.1547
 1566TIP3    H128893   0.430   0.904  17.599 -1.1076 -0.2044 -0.7497
 1566TIP3    H228894   0.518   0.879  17.478  2.0099  0.2892  1.2985
 1567TIP3   OH228895   6.322   6.896  18.582 -0.2047 -0.1258  0.0714
 1567TIP3    H128896   6.274   6.839  18.642 -0.9867  0.0953 -0.3307
 1567TIP3    H228897   6.391   6.935  18.636 -1.6360  1.0319  1.1607
 1568TIP3   OH228898   3.435   1.021  18.155  0.1719  0.1937  0.2024
 1568TIP3    H128899   3.458   0.931  18.130 -0.6596  0.1728 -0.5435
 1568TIP3    H228900   3.340   1.019  18.165  0.2569  0.7372  1.2899
 1569TIP3   OH228901   4.024   5.091  19.022  0.3903 -0.2317  0.0446
 1569TIP3    H128902   3.953   5.044  18.977  0.5480 -0.5020  0.0733
 1569TIP3    H228903   4.098   5.086  18.962  0.8065 -1.1853  0.6035
 1570TIP3   OH228904   4.962   2.662  18.621 -0.2012  0.1481  0.3670
 1570TIP3    H128905   4.871   2.666  18.653 -0.3409  0.8408 -0.0841
 1570TIP3    H228906   4.959   2.706  18.536  0.5032 -0.1077  0.2037
 1571TIP3   OH228907   7.255   4.276  19.046  0.3706 -0.0494 -0.0609
 1571TIP3    H128908   7.301   4.275  19.130  0.0348  0.2578  0.1286
 1571TIP3    H228909   7.171   4.317  19.065  0.5712  0.6815 -0.6979
 1572TIP3   OH228910   7.391   4.617  17.884  0.0662 -0.3757  0.1066
 1572TIP3    H128911   7.375   4.683  17.816  0.7371 -0.2291  0.0801
 1572TIP3    H228912   7.470   4.572  17.855 -0.3854 -1.1910  0.1319
 1573TIP3   OH228913   5.603   5.058  17.779 -0.0515 -0.1534  0.3125
 1573TIP3    H128914   5.694   5.034  17.758 -0.7715 -1.1529 -1.9197
 1573TIP3    H228915   5.585   5.133  17.723 -0.3991  0.5070  1.2911
 1574TIP3   OH228916   2.689   6.528  19.239  0.0998 -0.0142 -0.3502
 1574TIP3    H128917   2.610   6.477  19.257  0.7700 -1.2896 -0.8818
 1574TIP3    H228918   2.678   6.558  19.148  0.5846 -0.9075 -0.7154
 1575TIP3   OH228919   5.676   3.069  17.343 -0.5063  0.1988  0.3834
 1575TIP3    H128920   5.647   3.095  17.255  0.5399  1.5944  0.4076
 1575TIP3    H228921   5.719   2.984  17.329  0.6671  0.9194 -0.7026
 1576TIP3   OH228922   2.721   3.458  16.761 -0.0351 -0.0212 -0.0078
 1576TIP3    H128923   2.764   3.460  16.847  0.2959 -1.3207 -0.1178
 1576TIP3    H228924   2.704   3.550  16.740 -0.5025  0.2902  1.6304
 1577TIP3   OH228925   1.288   2.027  17.948 -0.5332  0.6257 -0.1263
 1577TIP3    H128926   1.230   2.097  17.918 -2.8459 -1.5956 -1.3158
 1577TIP3    H228927   1.263   1.951  17.895  1.4668 -1.2553  1.4090
 1578TIP3   OH228928   7.556   6.409  16.865 -0.2299  0.3989 -0.5529
 1578TIP3    H128929   7.517   6.328  16.832  0.6378 -0.4536  0.4403
 1578TIP3    H228930   7.608   6.382  16.941 -0.4043  1.9787  0.1802
 1579TIP3   OH228931   3.212   4.271  17.635 -0.9799  0.4144 -0.1944
 1579TIP3    H128932   3.191   4.194  17.688 -1.2093  1.6723  1.6354
 1579TIP3    H228933   3.295   4.302  17.670  0.3068 -0.2390 -2.4371
 1580TIP3   OH228934   1.088   0.279  18.262 -0.2164 -0.2750 -0.2226
 1580TIP3    H128935   1.153   0.278  18.332 -1.3371  0.0024  0.8620
 1580TIP3    H228936   1.121   0.217  18.197  0.7439 -0.6973  0.6449
 1581TIP3   OH228937   3.548   5.328  17.819  0.5187 -0.2284  0.3200
 1581TIP3    H128938   3.496   5.380  17.758 -1.3252 -1.8361  0.4086
 1581TIP3    H228939   3.525   5.363  17.906 -1.5926 -1.7725  0.4697
 1582TIP3   OH228940   0.521   6.445  17.421  0.3007  0.2748 -0.6723
 1582TIP3    H128941   0.584   6.515  17.407 -0.6737  1.3934  0.2941
 1582TIP3    H228942   0.465   6.446  17.344  1.6207 -0.9532 -1.6960
 1583TIP3   OH228943   4.654   0.431  17.783  0.3779  0.4496  0.3552
 1583TIP3    H128944   4.703   0.481  17.718  2.2485 -0.5974  0.8750
 1583TIP3    H228945   4.577   0.398  17.737 -0.0319  2.3756 -0.4289
 1584TIP3   OH228946   4.665   2.750  18.011 -0.2455 -0.3744 -0.3329
 1584TIP3    H128947   4.668   2.682  18.078  0.4759  0.2479  0.2769
 1584TIP3    H228948   4.607   2.817  18.047 -0.0762 -0.1658 -0.4468
 1585TIP3   OH228949   0.927   6.688  18.458 -0.0943  0.0379 -0.2561
 1585TIP3    H128950   0.866   6.760  18.443 -1.9060 -1.6182 -1.2985
 1585TIP3    H228951   0.916   6.666  18.551  0.1505  0.7900 -0.0425
 1586TIP3   OH228952   1.768   1.778  18.491 -0.2689 -0.2944 -0.7029
 1586TIP3    H128953   1.685   1.803  18.531 -0.1157 -0.0867 -0.5139
 1586TIP3    H228954   1.747   1.760  18.399 -0.7575 -1.4611 -0.3805
 1587TIP3   OH228955   3.641   2.091  17.749  0.0897 -0.1507 -0.2499
 1587TIP3    H128956   3.609   2.089  17.839  0.2056 -0.0577 -0.2056
 1587TIP3    H228957   3.690   2.173  17.742  1.0619 -0.6993 -0.0488
 1588TIP3   OH228958   4.195   3.112  17.854  0.3633  0.5980 -0.2671
 1588TIP3    H128959   4.198   3.180  17.787 -2.8749  0.7209 -0.4297
 1588TIP3    H228960   4.225   3.155  17.934 -0.8333  2.0145 -0.5459
 1589TIP3   OH228961   4.282   6.545  17.816 -0.2716 -0.2759 -0.2980
 1589TIP3    H128962   4.272   6.480  17.885 -1.5385  0.6274  0.4111
 1589TIP3    H228963   4.328   6.618  17.858  0.0432 -0.2105 -0.7512
 1590TIP3   OH228964   6.690   5.388  18.049 -0.5873  0.2420 -0.1103
 1590TIP3    H128965   6.673   5.449  18.120 -2.2404 -0.4599  0.1572
 1590TIP3    H228966   6.701   5.443  17.971  0.0940  0.9514  0.4763
 1591TIP3   OH228967   1.465   6.357  17.748  0.0167  0.2579 -0.0244
 1591TIP3    H128968   1.521   6.433  17.760 -1.7024  1.5532  0.0934
 1591TIP3    H228969   1.497   6.293  17.812  0.3296  1.5639  1.1600
 1592TIP3   OH228970   5.937   4.302  17.480 -0.1621  0.2892  0.4180
 1592TIP3    H128971   5.874   4.346  17.537 -0.5259 -0.0228  0.2570
 1592TIP3    H228972   5.887   4.280  17.402  0.4702  1.2589 -0.2872
 1593TIP3   OH228973   4.442   6.437  17.071 -0.1073 -0.1303 -0.1491
 1593TIP3    H128974   4.503   6.497  17.116 -1.2253 -0.6235  2.1582
 1593TIP3    H228975   4.490   6.355  17.064 -0.3961 -0.4978  1.6052
 1594TIP3   OH228976   6.090   0.822  16.844  0.7631 -0.2906  0.1584
 1594TIP3    H128977   6.135   0.819  16.929  0.8426 -0.2811  0.1163
 1594TIP3    H228978   6.085   0.915  16.823  0.5198 -0.2768  0.2714
 1595TIP3   OH228979   3.374   0.546  19.136 -0.0299 -0.1318 -0.3875
 1595TIP3    H128980   3.461   0.558  19.098  0.4167 -0.1325  0.6076
 1595TIP3    H228981   3.384   0.572  19.227 -1.2755  0.6476 -0.4540
 1596TIP3   OH228982   0.916   0.509  17.060 -0.1259  0.5165 -0.1210
 1596TIP3    H128983   0.935   0.485  17.150 -0.6766  2.1271  0.4612
 1596TIP3    H228984   0.992   0.561  17.033 -1.3325  2.7186  0.5240
 1597TIP3   OH228985   6.149   0.053  18.126  0.5493  0.5059 -0.2768
 1597TIP3    H128986   6.060   0.083  18.144  1.0145  1.0031  1.3216
 1597TIP3    H228987   6.140  -0.041  18.111 -0.2590  0.5744 -0.2479
 1598TIP3   OH228988   3.655   2.271  18.456  0.0689  0.1459  0.1122
 1598TIP3    H128989   3.571   2.224  18.453  0.4107 -0.4378 -2.0039
 1598TIP3    H228990   3.659   2.317  18.372  1.5202  0.7889  0.5209
 1599TIP3   OH228991   0.776   2.707  17.456 -0.2521  0.6565  0.5438
 1599TIP3    H128992   0.810   2.793  17.483 -0.4125  0.6465  0.7802
 1599TIP3    H228993   0.756   2.662  17.538 -0.9948  0.7245  0.4087
 1600TIP3   OH228994   5.035   7.174  19.162 -0.4972 -0.0617  0.6570
 1600TIP3    H128995   5.020   7.260  19.124 -0.7804 -0.3526  0.1091
 1600TIP3    H228996   5.041   7.191  19.256  2.9064  1.0589  0.3693
 1601TIP3   OH228997   3.016   6.572  17.614  0.0039  0.1330  0.3787
 1601TIP3    H128998   3.053   6.538  17.695  2.9446  2.2260  0.0939
 1601TIP3    H228999   3.051   6.516  17.545  0.1318  0.2687  0.3318
 1602TIP3   OH229000   0.196   0.253  18.785 -0.4684  0.1922  0.0993
 1602TIP3    H129001   0.173   0.240  18.693 -1.8469  0.2803  0.4075
 1602TIP3    H229002   0.122   0.301  18.821  0.3726  0.7688  1.1058
 1603TIP3   OH229003   0.380   1.937  16.900  0.1363 -0.0153  0.4181
 1603TIP3    H129004   0.410   1.879  16.829 -1.0037 -0.0705 -0.0379
 1603TIP3    H229005   0.368   1.879  16.975 -1.2770 -0.4635 -0.1138
 1604TIP3   OH229006   3.713   0.599  18.550  0.0489  0.4186  0.2319
 1604TIP3    H129007   3.717   0.647  18.468 -3.3280 -0.1861 -0.4283
 1604TIP3    H229008   3.778   0.530  18.541 -1.1748 -0.4885 -2.5988
 1605TIP3   OH229009   6.147   5.344  18.582 -0.1768 -0.2618  0.0654
 1605TIP3    H129010   6.206   5.410  18.547  0.5023  0.0904  1.7558
 1605TIP3    H229011   6.112   5.299  18.505  2.0653 -0.2962 -1.0093
 1606TIP3   OH229012   1.036   0.545  17.914  0.6399  0.0687 -0.1779
 1606TIP3    H129013   0.989   0.539  17.997  1.3493 -0.5199  0.1883
 1606TIP3    H229014   1.058   0.455  17.892 -0.4594  0.0942 -1.5573
 1607TIP3   OH229015   7.588   5.162  18.744 -0.0475 -0.1913 -0.0966
 1607TIP3    H129016   7.626   5.248  18.724  1.8200 -0.8586  0.4461
 1607TIP3    H229017   7.619   5.105  18.674  0.1246 -0.7934  0.4668
 1608TIP3   OH229018   2.315   1.086  17.163 -0.2801  0.0621 -0.4113
 1608TIP3    H129019   2.379   1.015  17.175 -0.1265  0.0175 -1.4015
 1608TIP3    H229020   2.342   1.153  17.226 -1.2770 -1.3055  1.5933
 1609TIP3   OH229021   5.791   3.769  19.055  0.5241  0.4443  0.0680
 1609TIP3    H129022   5.721   3.763  19.121  0.2727  0.1478 -0.2200
 1609TIP3    H229023   5.851   3.834  19.090 -0.4007  1.4489 -0.1470
 1610TIP3   OH229024   4.173   4.734  17.724  0.3324  0.1172  0.3655
 1610TIP3    H129025   4.213   4.686  17.651 -0.4216  0.6095 -0.3934
 1610TIP3    H229026   4.246   4.752  17.783  1.5784  2.0691 -1.5743
 1611TIP3   OH229027   4.447   6.286  17.761 -0.0191  0.0657  0.1368
 1611TIP3    H129028   4.354   6.299  17.779 -0.3463 -0.2646 -1.1756
 1611TIP3    H229029   4.487   6.277  17.847 -0.8882  2.1200  0.8324
 1612TIP3   OH229030   3.603   4.744  17.430  0.1223 -0.0064  0.1207
 1612TIP3    H129031   3.695   4.752  17.458  0.6717 -1.7700 -0.9652
 1612TIP3    H229032   3.608   4.730  17.336 -1.2944  0.1092  0.0083
 1613TIP3   OH229033   3.029   6.538  18.515 -0.3857 -0.4012  1.0628
 1613TIP3    H129034   3.104   6.519  18.458 -1.4003 -0.6374 -0.2362
 1613TIP3    H229035   3.056   6.615  18.565  0.3332  0.1557 -0.1362
 1614TIP3   OH229036   5.028   3.609  19.549 -0.0083 -0.6963 -0.1011
 1614TIP3    H129037   5.049   3.681  19.489 -1.2374 -0.0811  0.1682
 1614TIP3    H229038   5.009   3.652  19.633  0.4547 -1.4462  0.4008
 1615TIP3   OH229039   0.318   4.045  17.257 -0.1758 -0.0313 -0.2939
 1615TIP3    H129040   0.404   4.048  17.299  0.9440 -2.6803 -2.1867
 1615TIP3    H229041   0.265   3.990  17.315  0.5495 -1.4071 -0.8885
 1616TIP3   OH229042   0.640   5.302  17.817  0.1712  0.0067  0.0461
 1616TIP3    H129043   0.722   5.268  17.854  0.8461  2.0376  0.5577
 1616TIP3    H229044   0.587   5.326  17.893  0.3340  1.4125 -0.2516
 1617TIP3   OH229045   7.505   5.819  18.472  1.0407  0.8974  0.4199
 1617TIP3    H129046   7.490   5.815  18.567  1.7132 -0.0849  0.5034
 1617TIP3    H229047   7.418   5.810  18.433  0.5075  3.2182  0.9405
 1618TIP3   OH229048   7.211   5.693  18.751  0.2977  0.4700 -0.3130
 1618TIP3    H129049   7.248   5.625  18.808  0.1153 -1.2994 -2.1735
 1618TIP3    H229050   7.141   5.733  18.804 -1.0027 -2.2312  0.2097
 1619TIP3   OH229051   5.609   7.182  17.971 -0.8285 -0.1876 -0.2737
 1619TIP3    H129052   5.593   7.198  18.064  3.0633  0.1356  0.4989
 1619TIP3    H229053   5.578   7.092  17.957 -0.3771 -0.6980  1.6520
 1620TIP3   OH229054   2.531   3.447  17.433 -0.3991  0.5453  0.8601
 1620TIP3    H129055   2.445   3.404  17.439 -0.2215  0.2983  1.9215
 1620TIP3    H229056   2.579   3.413  17.509  2.0702 -2.4172 -1.7303
 1621TIP3   OH229057   0.719   4.134  18.999  0.0741 -0.3589  0.0090
 1621TIP3    H129058   0.648   4.150  19.060 -0.1127  1.4676 -0.6224
 1621TIP3    H229059   0.782   4.081  19.048 -0.9452 -0.5805  1.1152
 1622TIP3   OH229060   1.237   5.420  17.993  0.4617 -0.6652  0.2592
 1622TIP3    H129061   1.285   5.414  18.075  0.3992  3.3108  0.8029
 1622TIP3    H229062   1.147   5.400  18.016  0.3108  1.1278  1.4399
 1623TIP3   OH229063   1.456   3.934  16.960  0.6162  0.1524 -0.4798
 1623TIP3    H129064   1.545   3.929  16.924 -0.1746 -1.1086 -2.4472
 1623TIP3    H229065   1.399   3.927  16.883 -1.1885 -0.0468  0.8218
 1624TIP3   OH229066   0.600   3.708  17.212 -0.6261  0.3618  0.2820
 1624TIP3    H129067   0.635   3.732  17.298 -1.0980  1.0141  0.2942
 1624TIP3    H229068   0.628   3.778  17.154 -0.6464  0.1242 -0.0173
 1625TIP3   OH229069   3.951   2.497  18.402  0.7000 -0.7123 -0.3536
 1625TIP3    H129070   4.011   2.570  18.410 -0.3019  0.0091  1.0589
 1625TIP3    H229071   3.957   2.451  18.486 -0.7527 -0.5625 -0.1390
 1626TIP3   OH229072   1.771   5.738  17.642  0.2760 -0.0571 -0.4043
 1626TIP3    H129073   1.686   5.727  17.685  0.2432 -0.0704 -0.4725
 1626TIP3    H229074   1.750   5.750  17.549  0.4183 -1.6836 -0.6758
 1627TIP3   OH229075   5.872   5.321  16.943 -0.2661  0.0746 -0.1835
 1627TIP3    H129076   5.955   5.323  16.895  0.0897  1.0043  0.4495
 1627TIP3    H229077   5.837   5.409  16.935  0.5511  0.7217  2.4979
 1628TIP3   OH229078   1.437   0.818  16.841 -0.0736  0.3437 -0.1088
 1628TIP3    H129079   1.382   0.791  16.768 -0.1501  1.0772 -0.3335
 1628TIP3    H229080   1.516   0.853  16.800  0.3093 -0.1467  0.1954
 1629TIP3   OH229081   1.755   3.326  18.880 -0.9070  0.1722  0.2115
 1629TIP3    H129082   1.844   3.356  18.895 -1.0246  0.0711  1.2474
 1629TIP3    H229083   1.763   3.257  18.815 -0.3023  0.5393 -0.1117
 1630TIP3   OH229084   0.706   2.304  18.484 -0.1550  0.2014 -0.3742
 1630TIP3    H129085   0.652   2.226  18.470 -1.2619  0.1127  3.3439
 1630TIP3    H229086   0.643   2.371  18.514  1.4042  0.9161  1.4739
 1631TIP3   OH229087   4.684   6.288  19.097 -0.1056 -0.1638 -0.0855
 1631TIP3    H129088   4.654   6.320  19.181 -0.8592 -0.7693 -0.1091
 1631TIP3    H229089   4.768   6.331  19.083  0.6537 -1.0089  1.5610
 1632TIP3   OH229090   3.881   1.230  18.819 -0.1369  0.0441  0.6966
 1632TIP3    H129091   3.791   1.202  18.805 -0.1051  0.2686  0.0593
 1632TIP3    H229092   3.908   1.184  18.899 -0.9312  0.2637  1.0960
 1633TIP3   OH229093   2.948   4.689  18.137 -0.3020  0.1975  0.0811
 1633TIP3    H129094   2.875   4.629  18.149 -0.1953  0.1342  0.4464
 1633TIP3    H229095   2.960   4.729  18.223 -0.6306  1.0434 -0.2584
 1634TIP3   OH229096   7.649   2.064  19.233  0.0004 -0.1319 -0.4688
 1634TIP3    H129097   7.603   1.984  19.258  0.3195 -0.5272 -1.1045
 1634TIP3    H229098   7.614   2.132  19.290 -0.9283 -0.5454 -0.5354
 1635TIP3   OH229099   0.664   0.811  17.908  0.8225 -0.0203  0.6830
 1635TIP3    H129100   0.680   0.780  17.997  3.5706  0.0165  0.2713
 1635TIP3    H229101   0.725   0.761  17.854 -0.8415 -0.0981 -1.2334
 1636TIP3   OH229102   5.477   3.480  18.410  0.3965  0.0933  0.4548
 1636TIP3    H129103   5.479   3.385  18.422 -2.9356 -0.0745  0.5926
 1636TIP3    H229104   5.467   3.515  18.499  1.1296  0.5730  0.3590
 1637TIP3   OH229105   3.438   0.520  17.076 -0.4192 -0.0187  0.3446
 1637TIP3    H129106   3.444   0.553  16.986 -2.1665 -0.1453  0.1508
 1637TIP3    H229107   3.504   0.450  17.079 -0.0624  0.2464 -0.7108
 1638TIP3   OH229108   6.576   4.006  17.898 -0.4148 -0.3553 -0.0856
 1638TIP3    H129109   6.618   3.944  17.958  1.7708 -0.3917 -1.5502
 1638TIP3    H229110   6.577   3.962  17.813 -1.2567  0.6617 -0.6500
 1639TIP3   OH229111   5.979   1.343  16.701 -0.5535  0.1741 -0.1176
 1639TIP3    H129112   5.884   1.348  16.708 -0.6906  0.2032 -1.6492
 1639TIP3    H229113   6.009   1.433  16.716 -0.7984  0.2456 -0.0504
 1640TIP3   OH229114   2.826   2.932  18.986 -0.3195 -0.3644  0.8132
 1640TIP3    H129115   2.759   2.929  19.053  1.6402 -1.2552  2.8681
 1640TIP3    H229116   2.780   2.958  18.906 -3.0223 -0.8366  2.1292
 1641TIP3   OH229117   4.749   1.601  19.492  0.9508 -0.5428 -0.5841
 1641TIP3    H129118   4.699   1.679  19.468  0.8046 -0.9998 -1.8151
 1641TIP3    H229119   4.785   1.569  19.410  1.6085 -1.3768  0.0104
 1642TIP3   OH229120   7.499   2.845  19.328 -0.0029 -0.1571  0.2919
 1642TIP3    H129121   7.587   2.842  19.366  0.0900  0.1209  0.1029
 1642TIP3    H229122   7.512   2.868  19.236 -0.2884  0.1654  0.3283
 1643TIP3   OH229123   0.370   4.396  18.341 -0.8186 -0.3563 -0.0640
 1643TIP3    H129124   0.414   4.332  18.285 -0.6855  0.3408 -0.7730
 1643TIP3    H229125   0.290   4.419  18.293 -0.1315  1.1327 -0.5782
 1644TIP3   OH229126   4.185   0.778  18.180  0.2796 -0.0128  0.0857
 1644TIP3    H129127   4.198   0.873  18.175 -1.7710  0.4555  2.0892
 1644TIP3    H229128   4.269   0.741  18.151  1.5345  2.4244  0.3557
 1645TIP3   OH229129   3.686   7.461  19.187 -0.4940 -0.3280  0.6028
 1645TIP3    H129130   3.682   7.536  19.246  0.4063 -0.1650  0.4606
 1645TIP3    H229131   3.695   7.499  19.100 -0.9015 -0.5899  0.4397
 1646TIP3   OH229132   4.535   5.550  16.532  0.2845 -0.6388 -0.5874
 1646TIP3    H129133   4.459   5.578  16.480  1.4569 -0.6732 -2.4380
 1646TIP3    H229134   4.586   5.630  16.542 -0.4697 -0.3781  1.6059
 1647TIP3   OH229135   6.976   1.053  17.414  0.2649  0.3306 -0.0604
 1647TIP3    H129136   7.041   1.009  17.359 -0.3030  2.0221 -2.2103
 1647TIP3    H229137   6.903   0.992  17.418  1.0200 -0.5750  0.3747
 1648TIP3   OH229138   6.385   1.613  19.064 -0.1580  0.0264  0.1574
 1648TIP3    H129139   6.306   1.580  19.021  0.0960  1.0000 -1.0811
 1648TIP3    H229140   6.406   1.694  19.018  0.4313  0.8369  1.7732
 1649TIP3   OH229141   0.667   4.727  16.319 -0.5286  0.2333  0.1787
 1649TIP3    H129142   0.664   4.820  16.344  0.4941  1.2921 -3.0917
 1649TIP3    H229143   0.759   4.702  16.332 -0.1400  0.6022 -1.5756
 1650TIP3   OH229144   5.811   3.344  18.363  0.0756 -0.1195 -0.1146
 1650TIP3    H129145   5.889   3.295  18.392  0.3696  1.0410  1.1630
 1650TIP3    H229146   5.772   3.376  18.444 -1.6785 -0.5511 -0.7517
 1651TIP3   OH229147   4.122   3.208  18.919  0.0387 -0.2618 -0.4979
 1651TIP3    H129148   4.158   3.231  19.005 -0.7832 -0.1682 -0.1711
 1651TIP3    H229149   4.199   3.193  18.865  0.6545  2.1205 -0.4333
 1652TIP3   OH229150   3.320   4.239  18.081 -0.5978  0.3652  0.1588
 1652TIP3    H129151   3.404   4.194  18.091  1.2320  3.4340  0.0111
 1652TIP3    H229152   3.279   4.232  18.167  0.0787 -0.6857  0.4157
 1653TIP3   OH229153   1.496   0.795  17.593  0.0305  0.5468  0.3239
 1653TIP3    H129154   1.555   0.864  17.624  1.4646 -1.0505  1.3291
 1653TIP3    H229155   1.518   0.784  17.501  0.9365  0.3785  0.5436
 1654TIP3   OH229156   3.200   2.633  17.701  0.3647  0.4960  0.6617
 1654TIP3    H129157   3.254   2.565  17.741  0.3845 -0.1228 -0.3617
 1654TIP3    H229158   3.112   2.594  17.698  0.7172 -0.2559 -1.5638
 1655TIP3   OH229159   4.653   6.509  17.270 -0.4172 -0.2043 -0.3861
 1655TIP3    H129160   4.705   6.432  17.294 -1.4280 -0.5239  0.8723
 1655TIP3    H229161   4.589   6.518  17.340 -0.9832  1.1896 -1.0384
 1656TIP3   OH229162   1.887   7.210  18.173 -0.1117  0.4645 -0.1563
 1656TIP3    H129163   1.867   7.219  18.266  1.0287 -0.1380  0.1657
 1656TIP3    H229164   1.808   7.170  18.135 -0.3008  0.0187  0.6835
 1657TIP3   OH229165   0.346   2.717  18.168 -0.0060 -0.0317 -0.0552
 1657TIP3    H129166   0.374   2.661  18.241  3.0085 -0.4992 -1.4077
 1657TIP3    H229167   0.261   2.682  18.142 -0.5739 -0.6525  2.3826
 1658TIP3   OH229168   6.254   1.333  18.565 -0.3071  0.0095 -0.5147
 1658TIP3    H129169   6.180   1.384  18.532  1.1854  0.0241 -4.3024
 1658TIP3    H229170   6.327   1.395  18.569 -0.0475 -0.3620  1.5906
 1659TIP3   OH229171   7.196   2.587  18.554  0.1682  0.1591  0.3730
 1659TIP3    H129172   7.275   2.642  18.553  0.3399 -0.0705  1.1037
 1659TIP3    H229173   7.223   2.506  18.596  0.0901 -0.7797 -1.3152
 1660TIP3   OH229174   0.480   2.189  19.791  0.5395  0.2499  0.7404
 1660TIP3    H129175   0.404   2.246  19.803  1.5063  1.2611  2.2272
 1660TIP3    H229176   0.556   2.245  19.802  1.5650 -0.7192 -0.8594
 1661TIP3   OH229177   4.098   1.044  18.148 -0.4301  0.1296 -0.1656
 1661TIP3    H129178   4.120   1.109  18.081  0.4372  1.6043  1.4957
 1661TIP3    H229179   4.068   1.095  18.223 -3.5940 -1.5629 -0.1044
 1662TIP3   OH229180   3.280   7.488  18.509  0.1332  0.4402 -0.0168
 1662TIP3    H129181   3.344   7.466  18.441 -0.0324  0.7903 -0.2896
 1662TIP3    H229182   3.325   7.552  18.564  0.0829  0.5477 -0.1006
 1663TIP3   OH229183   6.620   0.735  17.801 -0.4136 -0.0296 -0.6071
 1663TIP3    H129184   6.704   0.779  17.791 -0.8834  1.0770  0.1441
 1663TIP3    H229185   6.611   0.722  17.895 -2.0318  1.8314 -0.4430
 1664TIP3   OH229186   4.081   4.663  19.097  0.2615  0.1798  0.7132
 1664TIP3    H129187   4.109   4.743  19.142 -0.8415  1.0615 -0.1072
 1664TIP3    H229188   3.997   4.642  19.136  1.8150 -2.3434  3.0355
 1665TIP3   OH229189   0.067   1.084  16.771 -0.2384  0.0558  0.2110
 1665TIP3    H129190   0.106   1.171  16.774 -0.4203  0.1197  0.8061
 1665TIP3    H229191   0.140   1.025  16.788  0.1296  0.0001 -1.3440
 1666TIP3   OH229192   6.320   4.455  17.989  0.6171  0.2910 -0.3160
 1666TIP3    H129193   6.241   4.440  18.041  1.3149 -1.0341  0.4032
 1666TIP3    H229194   6.352   4.541  18.017  1.7292 -0.9434  2.5144
 1667TIP3   OH229195   1.739   3.866  18.203 -0.2825 -0.3755  0.1496
 1667TIP3    H129196   1.693   3.889  18.284 -0.7543 -0.3402 -0.1234
 1667TIP3    H229197   1.748   3.948  18.156 -0.6814 -0.5160 -0.1741
 1668TIP3   OH229198   6.656   7.386  19.481 -0.4504 -0.5099 -0.0934
 1668TIP3    H129199   6.751   7.379  19.493 -0.4505  0.7765  0.8254
 1668TIP3    H229200   6.635   7.319  19.416  0.9444 -1.4715  0.4038
 1669TIP3   OH229201   2.317   5.492  18.910  0.1535  0.3123  0.0441
 1669TIP3    H129202   2.303   5.586  18.911 -2.6689  0.0065 -1.3384
 1669TIP3    H229203   2.330   5.470  18.818  1.3969 -0.6284  0.4014
 1670TIP3   OH229204   3.016   3.633  16.807 -0.1480 -0.2720  0.8268
 1670TIP3    H129205   2.971   3.708  16.768  0.1120 -0.5612 -0.0477
 1670TIP3    H229206   2.951   3.594  16.866 -0.0949  0.9879  1.7751
 1671TIP3   OH229207   7.468   5.404  18.487  0.1854  0.2671  0.5692
 1671TIP3    H129208   7.392   5.347  18.501  1.4151 -1.6928 -0.3253
 1671TIP3    H229209   7.509   5.371  18.407  0.7394  2.7337 -0.2614
 1672TIP3   OH229210   1.725   3.512  18.110 -0.7363  0.4661  0.2438
 1672TIP3    H129211   1.648   3.563  18.134 -0.5749  0.0466  1.7278
 1672TIP3    H229212   1.751   3.468  18.190  1.2916  0.9017 -0.1239
 1673TIP3   OH229213   4.470   3.816  17.915 -1.0163 -0.1264 -0.3636
 1673TIP3    H129214   4.377   3.838  17.908 -1.0360 -0.4297 -1.2225
 1673TIP3    H229215   4.498   3.855  17.998 -1.7766  0.4304 -0.3581
 1674TIP3   OH229216   7.342   0.451  18.047  1.2337 -0.0981 -0.0250
 1674TIP3    H129217   7.341   0.519  18.114 -0.9860  0.0276 -0.1219
 1674TIP3    H229218   7.302   0.492  17.971 -0.5050 -1.5731  0.0295
 1675TIP3   OH229219   5.775   5.772  17.124 -0.1566  0.3544 -0.1799
 1675TIP3    H129220   5.762   5.719  17.045 -0.4557  0.8297 -0.4550
 1675TIP3    H229221   5.688   5.808  17.143  0.6300  3.6507 -2.0743
 1676TIP3   OH229222   2.408   2.179  16.640  0.5148 -0.2092 -0.2430
 1676TIP3    H129223   2.339   2.232  16.600 -1.3160 -0.7422  1.9771
 1676TIP3    H229224   2.387   2.089  16.614  1.7450 -0.1915 -1.3924
 1677TIP3   OH229225   0.456   3.850  18.390  0.2485  0.2728  0.1979
 1677TIP3    H129226   0.396   3.842  18.464  1.7173 -0.1275  1.3957
 1677TIP3    H229227   0.505   3.931  18.409  0.4077  0.3453 -0.5173
 1678TIP3   OH229228   4.056   0.674  17.483  0.2669 -0.0154 -0.1367
 1678TIP3    H129229   4.145   0.686  17.448  0.7458 -1.3736  0.5465
 1678TIP3    H229230   4.051   0.734  17.557  0.2812  0.7433 -0.7399
 1679TIP3   OH229231   4.760   0.138  16.850  0.4255 -0.2202  0.2271
 1679TIP3    H129232   4.831   0.171  16.905 -0.0277  1.4951 -0.1699
 1679TIP3    H229233   4.790   0.051  16.823  1.1010 -0.7058  2.3276
 1680TIP3   OH229234   1.684   5.531  18.323 -0.4965  0.0698 -0.0072
 1680TIP3    H129235   1.621   5.587  18.369  0.6747  1.2999  0.1355
 1680TIP3    H229236   1.770   5.566  18.347  0.1883 -0.1992 -1.9191
 1681TIP3   OH229237   3.613   0.731  18.995  0.0918 -0.4890  0.0187
 1681TIP3    H129238   3.645   0.759  18.909  1.0548 -1.5971 -0.0088
 1681TIP3    H229239   3.523   0.762  18.999  1.0071  2.4339 -0.0651
 1682TIP3   OH229240   7.219   3.552  19.056  0.3146  0.0774 -0.0548
 1682TIP3    H129241   7.309   3.524  19.037 -0.2658 -1.1442 -1.2261
 1682TIP3    H229242   7.218   3.645  19.034  0.8636 -0.2932 -1.8421
 1683TIP3   OH229243   0.192   4.339  17.889  0.1664  0.3094  0.1082
 1683TIP3    H129244   0.214   4.246  17.885 -0.0113  0.1284  2.4064
 1683TIP3    H229245   0.096   4.341  17.894  0.2413  0.5028  1.8214
 1684TIP3   OH229246   6.490   7.579  18.140 -0.1903 -0.1346  0.2790
 1684TIP3    H129247   6.508   7.489  18.114 -0.5819  0.0459 -0.6613
 1684TIP3    H229248   6.395   7.582  18.151 -0.2278  0.2687 -0.1293
 1685TIP3   OH229249   0.496   6.999  18.175 -0.0026  0.0007  0.2607
 1685TIP3    H129250   0.428   7.055  18.213 -1.0187 -0.3531 -0.9573
 1685TIP3    H229251   0.577   7.049  18.186 -0.6525  1.0198  0.5963
 1686TIP3   OH229252   4.783   7.324  17.547  0.7467  0.1124 -0.0851
 1686TIP3    H129253   4.756   7.303  17.458 -0.0315  1.5508 -0.2215
 1686TIP3    H229254   4.855   7.387  17.536  2.6001 -1.8154  0.3054
 1687TIP3   OH229255   3.470   4.531  18.186  0.2098  0.5529 -0.2508
 1687TIP3    H129256   3.535   4.588  18.144  0.8500 -1.0467 -1.5183
 1687TIP3    H229257   3.397   4.529  18.125 -0.4162  1.1350  0.4652
 1688TIP3   OH229258   5.299   2.871  19.279 -0.7267  0.2080  0.0579
 1688TIP3    H129259   5.372   2.923  19.312 -1.1411  1.2362 -0.5882
 1688TIP3    H229260   5.332   2.782  19.275  0.7461  0.7684 -0.9405
 1689TIP3   OH229261   5.575   4.313  18.145 -0.1990  0.5273 -0.2934
 1689TIP3    H129262   5.668   4.328  18.163 -0.2398  0.5693 -0.1135
 1689TIP3    H229263   5.572   4.292  18.052  0.3715 -2.4124  0.2444
 1690TIP3   OH229264   4.846   3.957  18.103 -0.1526 -0.2559  0.1995
 1690TIP3    H129265   4.814   3.966  18.192 -0.2114 -1.3690  0.2998
 1690TIP3    H229266   4.876   4.045  18.080  0.0810 -0.0086  1.3886
 1691TIP3   OH229267   0.184   4.870  18.907 -0.4772 -0.1483  0.0261
 1691TIP3    H129268   0.264   4.821  18.926  0.5375  1.9143  1.5065
 1691TIP3    H229269   0.156   4.903  18.992 -2.0878  0.4207 -0.6863
 1692TIP3   OH229270   3.913   0.410  18.534 -0.0220  0.1043  0.3081
 1692TIP3    H129271   3.957   0.440  18.613  1.9626  1.0588 -1.0558
 1692TIP3    H229272   3.969   0.440  18.463 -2.6255  0.9236 -1.5804
 1693TIP3   OH229273   2.818   5.554  18.006  0.0361  0.2636  0.0881
 1693TIP3    H129274   2.826   5.466  18.045 -0.4915 -1.0154 -2.4492
 1693TIP3    H229275   2.808   5.612  18.081  0.9592 -1.7601  1.9159
 1694TIP3   OH229276   2.600   0.941  18.337 -0.0139  0.5205 -0.5465
 1694TIP3    H129277   2.569   0.981  18.418  1.5892  1.8620 -0.5433
 1694TIP3    H229278   2.690   0.915  18.356  0.3877  0.8601 -1.8774
 1695TIP3   OH229279   3.363   5.985  19.080 -0.0244 -0.2851  0.4628
 1695TIP3    H129280   3.383   5.910  19.024  0.0300 -1.7668  2.3534
 1695TIP3    H229281   3.447   6.007  19.121 -0.2401  0.1871  0.6568
 1696TIP3   OH229282   5.495   2.651  19.180 -0.0041  0.4589 -0.1090
 1696TIP3    H129283   5.486   2.631  19.086  1.1885  1.2965 -0.4100
 1696TIP3    H229284   5.533   2.571  19.217  0.7978  0.6092 -0.5809
 1697TIP3   OH229285   2.969   1.414  19.096 -0.2714 -0.0822  0.0277
 1697TIP3    H129286   3.025   1.471  19.149  0.6905 -0.6055 -0.3905
 1697TIP3    H229287   3.030   1.369  19.038 -0.7286 -2.8576  1.5075
 1698TIP3   OH229288   4.215   6.671  18.108 -0.3558  0.4420 -0.0139
 1698TIP3    H129289   4.213   6.740  18.174  0.8842  0.3137  0.1803
 1698TIP3    H229290   4.231   6.718  18.025 -0.9948  0.5147 -0.1037
 1699TIP3   OH229291   5.357   6.702  19.398 -0.3574  0.2137  0.0512
 1699TIP3    H129292   5.290   6.746  19.346 -2.1131  0.0533  2.0615
 1699TIP3    H229293   5.361   6.614  19.360 -1.7193  0.0438  0.2453
 1700TIP3   OH229294   2.458   7.620  16.644  0.3353  0.7413 -0.2338
 1700TIP3    H129295   2.389   7.678  16.611 -1.0789 -0.2225  0.8687
 1700TIP3    H229296   2.414   7.535  16.652  1.3621  0.3378  1.4991
 1701TIP3   OH229297   2.989   7.512  19.161 -0.2176  0.2195 -0.1604
 1701TIP3    H129298   2.971   7.592  19.112  0.9167  1.0875  0.7886
 1701TIP3    H229299   2.902   7.478  19.184 -0.7780  0.0039 -2.3472
 1702TIP3   OH229300   4.924   6.283  18.186 -0.5519 -0.0115 -0.2167
 1702TIP3    H129301   4.852   6.234  18.226 -0.6372 -0.1597 -0.5488
 1702TIP3    H229302   4.889   6.371  18.173 -1.4060 -0.5911 -2.2867
 1703TIP3   OH229303   1.022   5.076  17.184 -0.5396  0.2791  0.0793
 1703TIP3    H129304   1.058   4.987  17.178 -0.1394  0.4436 -0.0412
 1703TIP3    H229305   0.954   5.070  17.251  0.4592  0.1868  1.1266
 1704TIP3   OH229306   6.357   0.669  18.738  0.6429  0.9570 -0.4402
 1704TIP3    H129307   6.373   0.618  18.659 -0.8563  1.6340 -1.2258
 1704TIP3    H229308   6.332   0.756  18.706  1.5842  1.7389  0.8290
 1705TIP3   OH229309   4.452   3.168  16.963  0.7312  0.6493  0.5847
 1705TIP3    H129310   4.480   3.202  17.048  2.2268 -0.8935  0.7691
 1705TIP3    H229311   4.421   3.080  16.982 -0.6356  0.9343 -0.2323
 1706TIP3   OH229312   0.703   5.969  17.926 -0.6538 -0.2195 -0.9815
 1706TIP3    H129313   0.662   5.922  17.999 -0.3917  2.0298  0.7582
 1706TIP3    H229314   0.630   6.011  17.880 -0.6319  1.3961  0.3416
 1707TIP3   OH229315   6.949   5.817  18.855 -0.0949 -0.2817 -0.4600
 1707TIP3    H129316   6.980   5.868  18.780  0.9037 -1.9093 -1.2013
 1707TIP3    H229317   6.892   5.751  18.817 -2.1392  0.7988  0.5961
 1708TIP3   OH229318   2.084   3.159  18.395 -0.4307  0.3540 -0.5631
 1708TIP3    H129319   2.129   3.204  18.466  1.8125  1.4908 -2.5733
 1708TIP3    H229320   2.033   3.090  18.438 -0.4764  2.0130  2.2384
 1709TIP3   OH229321   5.763   5.089  16.588 -0.1452 -0.3425  0.1100
 1709TIP3    H129322   5.759   5.084  16.683  2.7747 -0.2591  0.3246
 1709TIP3    H229323   5.818   5.166  16.570  0.3276 -1.0176 -1.5843
 1710TIP3   OH229324   7.189   3.290  18.330 -0.2054 -0.0228 -0.0867
 1710TIP3    H129325   7.122   3.294  18.262 -0.3590 -0.1342  0.0580
 1710TIP3    H229326   7.204   3.197  18.344 -0.9734 -0.0348  0.8141
 1711TIP3   OH229327   5.228   5.852  17.346  0.4118  0.2499  0.6977
 1711TIP3    H129328   5.244   5.829  17.254 -0.4289  0.5994  0.4599
 1711TIP3    H229329   5.138   5.827  17.362  1.0156 -1.2834  1.9112
 1712TIP3   OH229330   0.528   7.480  17.341 -0.4436  0.1588 -0.4884
 1712TIP3    H129331   0.516   7.457  17.249 -0.3946  0.6825 -0.6300
 1712TIP3    H229332   0.621   7.504  17.347 -1.0435  2.8956 -0.9486
 1713TIP3   OH229333   0.027   1.276  19.805 -0.3590 -0.3550  0.1535
 1713TIP3    H129334   0.013   1.314  19.891 -0.0346  0.0639  0.0289
 1713TIP3    H229335  -0.057   1.237  19.781  0.0051 -1.9836  1.3778
 1714TIP3   OH229336   2.225   1.538  17.870  0.1137 -0.4727 -0.2072
 1714TIP3    H129337   2.216   1.516  17.963  0.5503  0.0555 -0.0337
 1714TIP3    H229338   2.135   1.544  17.839 -0.0786  0.4721  0.4687
 1715TIP3   OH229339   6.949   3.292  18.746 -0.0904 -0.1228  0.1077
 1715TIP3    H129340   6.943   3.197  18.753  1.1181 -0.3296 -1.2073
 1715TIP3    H229341   6.992   3.308  18.662 -0.3515  1.5952  0.2479
 1716TIP3   OH229342   6.091   4.375  18.159 -0.0697 -0.5683  0.2867
 1716TIP3    H129343   6.065   4.445  18.219  0.2366  0.5522 -0.8502
 1716TIP3    H229344   6.024   4.307  18.170 -1.3540  0.6387  0.1575
 1717TIP3   OH229345   7.548   5.537  18.896 -0.6071  0.0904 -0.2028
 1717TIP3    H129346   7.610   5.552  18.967 -1.4626  0.1359  0.5671
 1717TIP3    H229347   7.462   5.556  18.935 -1.0686  0.5131 -1.3619
 1718TIP3   OH229348   6.277   2.375  18.662 -1.0489  0.1936  0.2172
 1718TIP3    H129349   6.193   2.367  18.706 -0.5839  0.1488  1.1220
 1718TIP3    H229350   6.297   2.468  18.663 -0.6630  0.1133  0.8482
 1719TIP3   OH229351   0.491   6.303  18.969  0.4801  0.3339  0.7825
 1719TIP3    H129352   0.415   6.252  18.999  0.1925  0.7020  0.6832
 1719TIP3    H229353   0.546   6.238  18.925 -0.3911  0.2705 -0.2851
 1720TIP3   OH229354   7.049   5.489  16.752  0.3152 -0.4169  0.7574
 1720TIP3    H129355   7.036   5.459  16.662 -0.5809 -1.1544  1.1162
 1720TIP3    H229356   7.140   5.466  16.772  0.0230 -1.7832  0.5982
 1721TIP3   OH229357   1.290   2.769  17.254  0.4312 -0.4723  0.3304
 1721TIP3    H129358   1.227   2.772  17.326 -0.3715 -2.5295 -0.1913
 1721TIP3    H229359   1.296   2.859  17.223 -1.1333  0.0286  1.3606
 1722TIP3   OH229360   4.797   5.300  17.533  0.6429 -0.2104  0.4300
 1722TIP3    H129361   4.809   5.225  17.592  1.7268 -1.9613 -1.8548
 1722TIP3    H229362   4.886   5.322  17.504  0.1940  0.9965 -0.1076
 1723TIP3   OH229363   7.461   3.872  16.773 -0.0014 -0.2918  0.0198
 1723TIP3    H129364   7.453   3.951  16.719 -1.3287  0.1967  0.8719
 1723TIP3    H229365   7.458   3.904  16.863  1.2735 -1.1715  0.4080
 1724TIP3   OH229366   6.966   6.704  18.541  0.0480 -0.1495 -0.0856
 1724TIP3    H129367   7.015   6.624  18.520  1.6105  0.5359  0.8050
 1724TIP3    H229368   7.026   6.775  18.520 -0.4699  0.7179  1.2689
 1725TIP3   OH229369   7.076   3.916  18.613  0.0207  0.1281  0.0594
 1725TIP3    H129370   7.116   3.829  18.620 -1.0483 -0.2874  1.6369
 1725TIP3    H229371   7.016   3.920  18.687 -0.8789  1.7484 -0.7182
 1726TIP3   OH229372   0.024   3.502  18.438 -0.4380 -0.1731  0.3799
 1726TIP3    H129373   0.082   3.475  18.368 -2.0119  0.9873 -1.4924
 1726TIP3    H229374   0.057   3.458  18.516  2.7743  0.2769 -0.5894
 1727TIP3   OH229375   1.050   2.723  18.761  0.0610  0.4815 -0.4120
 1727TIP3    H129376   0.983   2.661  18.730  0.2427 -0.2305  0.5709
 1727TIP3    H229377   1.024   2.743  18.851  0.3205  1.4120 -0.5369
 1728TIP3   OH229378   3.023   3.160  18.615  0.1853 -0.2122  0.2124
 1728TIP3    H129379   3.090   3.192  18.676 -0.0185 -1.5457  1.1923
 1728TIP3    H229380   3.069   3.096  18.562 -0.1762 -0.7432  0.5320
 1729TIP3   OH229381   1.574   5.568  18.959  0.0003 -0.5517  0.0716
 1729TIP3    H129382   1.636   5.504  18.923  0.4584  0.1963 -0.5003
 1729TIP3    H229383   1.629   5.635  18.998 -0.4501  0.0201 -0.2692
 1730TIP3   OH229384   1.463   3.382  16.724  0.5936  0.0233  0.0001
 1730TIP3    H129385   1.415   3.464  16.721 -0.7246 -0.6596  1.0221
 1730TIP3    H229386   1.554   3.406  16.705  0.1005  1.5669 -0.5698
 1731TIP3   OH229387   6.319   5.025  17.775  0.5100 -0.0803  0.4568
 1731TIP3    H129388   6.267   5.105  17.772  0.6370 -0.0230 -1.5483
 1731TIP3    H229389   6.255   4.955  17.772  0.4699 -0.0133 -0.7684
 1732TIP3   OH229390   3.102   1.342  18.195  0.3187  0.5128  0.0122
 1732TIP3    H129391   3.078   1.391  18.116  2.0724 -0.6491 -1.3075
 1732TIP3    H229392   3.178   1.388  18.230  2.3250 -1.4252 -1.5439
 1733TIP3   OH229393   1.744   5.221  18.756 -0.1145  0.3538  0.3097
 1733TIP3    H129394   1.808   5.202  18.825 -0.7016 -0.8440  0.5383
 1733TIP3    H229395   1.797   5.231  18.676  0.5652  1.7332  0.9056
 1734TIP3   OH229396   2.713   0.890  18.053 -0.5802 -0.4928 -0.3134
 1734TIP3    H129397   2.671   0.857  18.132 -1.4876 -0.2553 -0.6789
 1734TIP3    H229398   2.736   0.981  18.074 -1.7695 -0.0855 -0.6370
 1735TIP3   OH229399   6.350   0.202  17.029 -0.4043 -0.2179 -0.1975
 1735TIP3    H129400   6.393   0.122  16.997  0.4996 -0.1564  0.8123
 1735TIP3    H229401   6.420   0.267  17.034 -0.9410  0.3571 -0.0437
 1736TIP3   OH229402   3.965   2.062  17.747 -0.7964  0.1610 -0.0734
 1736TIP3    H129403   3.897   2.116  17.705 -1.3886  0.1143  0.8059
 1736TIP3    H229404   3.971   2.096  17.836 -0.4283 -0.5460  0.1775
 1737TIP3   OH229405   2.547   0.281  18.644 -0.0059  0.3437  0.4192
 1737TIP3    H129406   2.488   0.248  18.711 -1.2672 -1.7156 -1.5503
 1737TIP3    H229407   2.581   0.363  18.680 -0.5102 -0.6831  3.5449
 1738TIP3   OH229408   1.770   6.594  18.201 -0.3329  0.6524  0.1943
 1738TIP3    H129409   1.813   6.548  18.129  1.3420  0.9658  0.9390
 1738TIP3    H229410   1.706   6.651  18.159  0.1136  0.3029 -0.9922
 1739TIP3   OH229411   0.924   3.033  19.335  0.1994 -0.0208 -0.1553
 1739TIP3    H129412   0.883   3.112  19.368  0.6293  0.3579 -0.5028
 1739TIP3    H229413   0.886   3.020  19.248  2.0142  1.3213 -1.2314
 1740TIP3   OH229414   4.493   0.047  18.984 -0.3520  0.1597 -0.2206
 1740TIP3    H129415   4.561   0.037  18.918 -0.8401 -1.5418 -0.5238
 1740TIP3    H229416   4.418  -0.000  18.949 -1.0344  0.2811  0.9969
 1741TIP3   OH229417   6.906   1.021  18.084 -0.2026  0.3753  0.3564
 1741TIP3    H129418   6.939   0.944  18.039  0.7963  0.8359  0.2783
 1741TIP3    H229419   6.966   1.034  18.158  0.0534  1.4624 -0.0264
 1742TIP3   OH229420   6.187   2.912  17.744 -0.3551 -0.7633  0.3577
 1742TIP3    H129421   6.267   2.860  17.741 -0.1577 -0.4076 -1.0221
 1742TIP3    H229422   6.216   2.999  17.772 -0.1701 -0.4972 -0.6364
 1743TIP3   OH229423   0.199   0.732  18.235 -0.4732 -0.6075  0.1226
 1743TIP3    H129424   0.128   0.727  18.171 -1.4983  2.3331  0.8561
 1743TIP3    H229425   0.184   0.658  18.294 -0.5651 -2.3115 -1.9083
 1744TIP3   OH229426   6.928   1.356  18.534 -0.3382  0.2405  0.3859
 1744TIP3    H129427   6.911   1.419  18.464 -1.1075  0.7243  0.9935
 1744TIP3    H229428   6.844   1.348  18.580  0.5856  1.3075  2.3881
 1745TIP3   OH229429   1.100   6.257  17.956  0.3269  0.0220  0.2734
 1745TIP3    H129430   1.037   6.203  18.003  0.4948  0.8736  1.5365
 1745TIP3    H229431   1.185   6.220  17.978  0.3574 -0.2515 -0.2765
 1746TIP3   OH229432   1.296   2.353  19.504 -0.3303  0.3327 -0.3074
 1746TIP3    H129433   1.362   2.284  19.503 -0.9662 -0.3159  0.8189
 1746TIP3    H229434   1.213   2.307  19.494 -0.7572  0.9497  0.3118
 1747TIP3   OH229435   6.472   1.307  17.485 -0.0149  0.0482 -0.0268
 1747TIP3    H129436   6.420   1.323  17.564 -1.6648 -0.5287 -0.9396
 1747TIP3    H229437   6.408   1.313  17.413  1.2369 -0.4842 -1.2249
 1748TIP3   OH229438   0.239   5.365  18.602 -0.6714  0.3074  0.3906
 1748TIP3    H129439   0.149   5.382  18.631 -1.3090 -1.0952 -0.6441
 1748TIP3    H229440   0.266   5.287  18.651 -1.5404 -1.7249 -2.1446
 1749TIP3   OH229441   4.185   0.224  17.870  0.0701 -0.1456  0.1226
 1749TIP3    H129442   4.154   0.232  17.780 -0.4843 -0.7769  0.2477
 1749TIP3    H229443   4.271   0.183  17.863 -0.3654 -1.0459 -0.0750
 1750TIP3   OH229444   4.397   1.235  18.338  0.1397  0.1030 -0.1229
 1750TIP3    H129445   4.391   1.216  18.244 -1.5421 -0.6768  0.1109
 1750TIP3    H229446   4.336   1.307  18.352  1.3473  1.0955  0.1830
 1751TIP3   OH229447   0.358   7.235  18.287 -0.1555 -0.2082  0.3621
 1751TIP3    H129448   0.279   7.185  18.305 -1.0720  1.1139  0.1738
 1751TIP3    H229449   0.334   7.326  18.308  1.2869  0.2277  0.2323
 1752TIP3   OH229450   4.777   2.278  18.729  0.0017 -0.4398  0.1122
 1752TIP3    H129451   4.862   2.281  18.773 -1.2181  1.7486  2.6086
 1752TIP3    H229452   4.732   2.205  18.770  0.2006 -0.8124 -0.3171
 1753TIP3   OH229453   2.496   3.329  18.547  0.7833 -0.2714  0.3283
 1753TIP3    H129454   2.454   3.370  18.622 -3.0520  0.3912 -1.8914
 1753TIP3    H229455   2.466   3.238  18.549 -0.9991  0.2042 -1.2807
 1754TIP3   OH229456   2.262   3.615  16.794 -0.4605 -0.3513  0.6274
 1754TIP3    H129457   2.265   3.591  16.702  3.3340 -1.0895  0.7590
 1754TIP3    H229458   2.193   3.561  16.831 -0.8493 -1.3687 -1.4429
 1755TIP3   OH229459   6.400   4.406  17.390 -0.0848  0.3347  0.7780
 1755TIP3    H129460   6.441   4.392  17.476 -1.3054  1.4149  1.5646
 1755TIP3    H229461   6.352   4.324  17.373 -1.3941  0.7994  2.0428
 1756TIP3   OH229462   7.370   0.216  17.283 -0.5907 -0.3111 -0.0179
 1756TIP3    H129463   7.319   0.294  17.260 -1.1109 -0.8390 -0.6947
 1756TIP3    H229464   7.344   0.197  17.373  0.7386  1.2127  0.7358
 1757TIP3   OH229465   2.554   6.246  18.841  0.2167 -0.0909 -0.4736
 1757TIP3    H129466   2.527   6.156  18.821 -1.9477 -0.0465  1.7396
 1757TIP3    H229467   2.472   6.296  18.839  0.9772  1.2953  0.8712
 1758TIP3   OH229468   6.662   5.885  18.609 -0.2443 -0.0038 -0.3300
 1758TIP3    H129469   6.700   5.838  18.683 -0.0483 -0.2999 -0.6127
 1758TIP3    H229470   6.732   5.887  18.543 -1.3096 -2.3651 -1.6635
 1759TIP3   OH229471   3.456   7.444  17.276  0.0011  0.1183 -0.1795
 1759TIP3    H129472   3.535   7.484  17.240  0.5505 -1.1557 -0.4780
 1759TIP3    H229473   3.386   7.471  17.217  0.0258  1.9923  0.5855
 1760TIP3   OH229474   3.134   7.159  17.318 -0.2701 -0.1744  0.1043
 1760TIP3    H129475   3.050   7.205  17.314  0.3498  0.9881  0.2296
 1760TIP3    H229476   3.141   7.130  17.409 -0.4746 -0.1821  0.1185
 1761TIP3   OH229477   3.493   3.880  19.033  0.2487 -0.1825 -0.2213
 1761TIP3    H129478   3.505   3.971  19.059 -0.5108  0.3190 -1.5251
 1761TIP3    H229479   3.450   3.885  18.947 -0.9614 -1.7702  0.2357
 1762TIP3   OH229480   6.252   6.168  17.324  0.3871  0.5084 -0.3930
 1762TIP3    H129481   6.312   6.124  17.264  0.9258 -0.3235  0.7340
 1762TIP3    H229482   6.168   6.126  17.308  0.8223 -0.7278  0.4175
 1763TIP3   OH229483   2.745   1.324  18.436  0.7400  0.0478 -0.1231
 1763TIP3    H129484   2.770   1.307  18.526  0.8742  1.9358  0.2427
 1763TIP3    H229485   2.650   1.328  18.437  0.7661  0.7065  0.0753
 1764TIP3   OH229486   6.531   1.940  17.140  0.0731  0.5202 -0.4129
 1764TIP3    H129487   6.481   1.983  17.210  0.1958 -1.5351  1.0073
 1764TIP3    H229488   6.623   1.951  17.165  0.1639  0.6472 -0.7936
 1765TIP3   OH229489   1.454   1.816  18.809 -0.3756  0.5228  0.3030
 1765TIP3    H129490   1.447   1.783  18.719 -1.3605  1.1431  0.1359
 1765TIP3    H229491   1.545   1.801  18.833 -0.4228 -0.8708 -0.3183
 1766TIP3   OH229492   1.439   4.725  17.897 -0.2595 -0.3039  0.2872
 1766TIP3    H129493   1.401   4.779  17.828 -0.5275 -0.5610  0.2352
 1766TIP3    H229494   1.399   4.758  17.978  1.2686  1.1106  0.5316
 1767TIP3   OH229495   2.661   7.494  17.589  0.1476  0.4833 -0.2596
 1767TIP3    H129496   2.576   7.529  17.615 -0.8207 -1.5126 -0.5549
 1767TIP3    H229497   2.654   7.484  17.494  0.1053 -1.1020 -0.1159
 1768TIP3   OH229498   5.646   5.113  18.035  0.9997 -0.1325 -0.0514
 1768TIP3    H129499   5.639   5.110  17.940 -2.1009  2.5871 -0.0699
 1768TIP3    H229500   5.726   5.164  18.052  0.6509  0.8604 -1.2774
 1769TIP3   OH229501   0.151   1.946  17.535  0.6512 -0.6049  0.2797
 1769TIP3    H129502   0.203   1.988  17.604  0.9153  0.4649 -0.5260
 1769TIP3    H229503   0.095   1.884  17.581  1.7810 -0.9182  1.3095
 1770TIP3   OH229504   3.567   5.661  17.802 -0.0194  0.0559 -0.2532
 1770TIP3    H129505   3.502   5.718  17.761  0.2031  1.3159  1.0580
 1770TIP3    H229506   3.533   5.647  17.890  0.0061 -1.7643 -0.5025
 1771TIP3   OH229507   0.183   2.684  17.952  0.8762 -0.2187 -0.1837
 1771TIP3    H129508   0.137   2.600  17.957  1.6303 -0.6448 -0.2861
 1771TIP3    H229509   0.176   2.711  17.860  0.6451 -0.1735 -0.1538
 1772TIP3   OH229510   4.686   6.059  17.931  0.3531  0.2154  0.0490
 1772TIP3    H129511   4.727   5.974  17.952 -0.8497 -0.7474 -1.3135
 1772TIP3    H229512   4.627   6.039  17.858 -1.0119  1.9688  0.6363
 1773TIP3   OH229513   7.446   5.112  16.022 -0.2282  0.7326 -0.3885
 1773TIP3    H129514   7.523   5.057  16.036  0.0377  1.1952  0.0077
 1773TIP3    H229515   7.376   5.051  16.000 -0.1845  0.1490  1.0034
 1774TIP3   OH229516   2.174   5.182  18.839 -0.4967 -0.2872 -0.0601
 1774TIP3    H129517   2.202   5.226  18.758  0.1173 -1.2082 -0.3569
 1774TIP3    H229518   2.253   5.178  18.893 -0.9829  0.6424  0.7516
 1775TIP3   OH229519   5.201   0.973  16.982 -0.3629  0.7784 -0.8016
 1775TIP3    H129520   5.264   0.929  17.039  0.2783  1.2729 -1.1181
 1775TIP3    H229521   5.184   0.909  16.913 -1.0170  0.2422 -0.1595
 1776TIP3   OH229522   7.070   7.235  18.447  0.0763  0.2447  0.8615
 1776TIP3    H129523   7.098   7.195  18.365  0.2378 -1.0789  1.5320
 1776TIP3    H229524   7.152   7.253  18.494  0.1204  3.0086 -0.1201
 1777TIP3   OH229525   1.069   5.592  17.483 -0.1385  0.8779  0.2789
 1777TIP3    H129526   1.161   5.614  17.468 -0.6617  1.1426 -3.2647
 1777TIP3    H229527   1.022   5.639  17.415 -3.3563  2.9957  3.5803
 1778TIP3   OH229528   0.561   7.231  19.035 -0.0858  0.2471 -0.6774
 1778TIP3    H129529   0.510   7.181  19.099 -0.8802  0.1890 -1.3439
 1778TIP3    H229530   0.496   7.286  18.991  0.3479 -0.1752 -1.8730
 1779TIP3   OH229531   5.778   4.141  18.431 -0.1352 -0.6416 -0.0720
 1779TIP3    H129532   5.837   4.216  18.425 -2.2098  1.0184 -1.3483
 1779TIP3    H229533   5.711   4.169  18.493  0.1073 -2.2982  1.0003
 1780TIP3   OH229534   4.092   7.140  17.167  0.0454  0.0544  0.6902
 1780TIP3    H129535   4.065   7.103  17.083 -1.1852  0.8849  0.6985
 1780TIP3    H229536   4.183   7.169  17.151  0.1296 -0.5838 -0.0807
 1781TIP3   OH229537   4.513   4.605  19.059 -0.4369 -0.4349  0.3593
 1781TIP3    H129538   4.573   4.547  19.106  2.7350  0.7930 -1.8376
 1781TIP3    H229539   4.530   4.692  19.096 -0.9980 -0.0746 -0.1985
 1782TIP3   OH229540   7.457   6.271  17.826  0.1126 -0.1227  0.3164
 1782TIP3    H129541   7.412   6.220  17.894  0.3030 -1.6606 -0.6739
 1782TIP3    H229542   7.479   6.207  17.759  2.1383  0.9231 -0.0769
 1783TIP3   OH229543   6.905   4.986  16.841  0.3287  0.1337  0.5902
 1783TIP3    H129544   6.961   5.028  16.906  0.8985  1.1644 -0.5281
 1783TIP3    H229545   6.954   4.908  16.814  1.1642  0.9181 -0.2271
 1784TIP3   OH229546   7.005   3.981  19.140  0.2146  0.4138  0.2288
 1784TIP3    H129547   6.956   4.025  19.070 -0.4481  0.9205  0.9844
 1784TIP3    H229548   6.978   4.026  19.220  0.9006 -0.1986  0.8250
 1785TIP3   OH229549   2.333   1.895  17.406  0.6949 -0.2314 -0.1745
 1785TIP3    H129550   2.372   1.972  17.364 -1.5565  1.0504 -0.0603
 1785TIP3    H229551   2.251   1.881  17.358 -0.5703 -0.4758  1.9604
 1786TIP3   OH229552   2.860   3.265  18.424 -0.4301 -0.2176 -0.0490
 1786TIP3    H129553   2.919   3.279  18.350  0.1378  1.1653  0.6357
 1786TIP3    H229554   2.918   3.256  18.500 -1.0385 -0.8450  0.3545
 1787TIP3   OH229555   6.441   6.721  19.212 -0.4718  0.6186 -0.4934
 1787TIP3    H129556   6.467   6.643  19.262 -1.6849  0.3389 -0.2685
 1787TIP3    H229557   6.356   6.745  19.249 -1.1663  0.7017 -2.0917
 1788TIP3   OH229558   2.389   7.664  18.863 -0.0830  0.1045  0.5210
 1788TIP3    H129559   2.318   7.606  18.892 -2.3856  0.6899 -3.2975
 1788TIP3    H229560   2.345   7.742  18.831  2.3895  1.0240 -0.9127
 1789TIP3   OH229561   2.467   4.843  17.612  0.1937  0.2933 -0.5990
 1789TIP3    H129562   2.382   4.855  17.569 -0.8329  1.2365  1.5304
 1789TIP3    H229563   2.463   4.755  17.650 -0.5671  0.9246  0.8849
 1790TIP3   OH229564   2.521   4.233  18.834  0.4150  0.2877 -0.5263
 1790TIP3    H129565   2.543   4.265  18.747  1.0879  0.3845 -0.3211
 1790TIP3    H229566   2.532   4.138  18.829  3.0712  0.4714  0.1523
 1791TIP3   OH229567   0.320   0.027  18.888  0.1332 -0.2290  0.0341
 1791TIP3    H129568   0.406   0.044  18.925  0.0160 -0.8501  0.6133
 1791TIP3    H229569   0.290   0.113  18.856  1.1544 -0.0984 -0.6092
 1792TIP3   OH229570   6.692   6.385  18.065 -0.0606 -0.4713  0.1983
 1792TIP3    H129571   6.728   6.458  18.015 -2.1704  0.4590 -0.0540
 1792TIP3    H229572   6.722   6.399  18.154 -0.6917  0.9093  0.2177
 1793TIP3   OH229573   3.762   7.124  17.872 -0.4371  0.8076 -0.1968
 1793TIP3    H129574   3.825   7.179  17.917 -0.5656  0.8792 -0.1061
 1793TIP3    H229575   3.722   7.071  17.942 -2.5095  2.7173  0.1834
 1794TIP3   OH229576   1.474   3.291  19.121 -0.1647  0.4606  0.1921
 1794TIP3    H129577   1.482   3.232  19.196 -0.1784  1.9155  1.4054
 1794TIP3    H229578   1.547   3.266  19.064  0.1470 -0.3763  0.9210
 1795TIP3   OH229579   5.721   1.887  19.059  0.3462 -0.3620  0.0089
 1795TIP3    H129580   5.701   1.981  19.055  0.6489 -0.1284  2.5917
 1795TIP3    H229581   5.797   1.881  19.117  0.1821 -2.2342  0.0816
 1796TIP3   OH229582   3.346   6.948  18.277  0.0754 -0.2108  0.0325
 1796TIP3    H129583   3.433   6.961  18.239 -0.8617  1.7929 -1.6047
 1796TIP3    H229584   3.291   7.013  18.234 -1.8957 -0.2950  2.2333
 1797TIP3   OH229585   7.241   1.644  18.034  0.6331  0.5681  0.1979
 1797TIP3    H129586   7.268   1.648  17.943  2.1823  1.8949  0.6658
 1797TIP3    H229587   7.282   1.720  18.075 -0.6885  0.4668  1.8447
 1798TIP3   OH229588   5.443   2.665  19.546  0.1482 -0.0307  0.3114
 1798TIP3    H129589   5.459   2.759  19.540 -0.7071  0.1626  0.9443
 1798TIP3    H229590   5.349   2.657  19.557 -0.3888 -1.1445 -3.6787
 1799TIP3   OH229591   4.302   5.672  16.487  0.1435  0.2812  0.0336
 1799TIP3    H129592   4.207   5.662  16.494  0.1149  1.2482  1.2588
 1799TIP3    H229593   4.321   5.758  16.524  1.2865  1.1312 -2.2724
 1800TIP3   OH229594   6.811   0.026  17.957 -0.3510 -0.3749  0.0065
 1800TIP3    H129595   6.744   0.059  18.017 -0.0836  0.9700 -0.3954
 1800TIP3    H229596   6.761  -0.015  17.886 -0.7217 -0.2170  0.1706
 1801TIP3   OH229597   2.984   5.617  18.780 -0.5978  0.2068 -0.1691
 1801TIP3    H129598   2.911   5.577  18.734  0.8133 -0.8398 -1.6109
 1801TIP3    H229599   2.949   5.638  18.867 -2.1136 -1.8959 -0.1895
 1802TIP3   OH229600   5.583   0.266  19.075  0.3754 -0.0854 -0.4817
 1802TIP3    H129601   5.657   0.309  19.116 -0.7118  0.8821  0.5345
 1802TIP3    H229602   5.573   0.311  18.990 -0.4088  1.3815  0.3363
 1803TIP3   OH229603   3.760   4.128  17.870 -0.6793  0.1008  0.1016
 1803TIP3    H129604   3.768   4.036  17.844 -3.8701 -0.9152  2.1175
 1803TIP3    H229605   3.720   4.171  17.794 -1.9320 -0.9130  0.1418
 1804TIP3   OH229606   2.610   2.331  19.185  0.1080  0.0972  0.0970
 1804TIP3    H129607   2.693   2.334  19.137 -0.0585  0.1614 -0.1897
 1804TIP3    H229608   2.552   2.278  19.130 -0.1059  0.2303  0.1931
 1805TIP3   OH229609   4.520   6.603  18.167 -0.7284 -0.0290 -0.0434
 1805TIP3    H129610   4.444   6.566  18.122 -0.7044 -0.5002  0.2918
 1805TIP3    H229611   4.530   6.690  18.129 -1.9623  0.3781  0.5060
 1806TIP3   OH229612   0.824   0.644  17.756  0.0618  0.8316 -0.0175
 1806TIP3    H129613   0.909   0.619  17.794 -0.5975  1.6579  2.1552
 1806TIP3    H229614   0.846   0.678  17.670  1.7792 -0.2498 -0.0738
 1807TIP3   OH229615   0.852   4.976  17.850  0.0964 -0.6606  0.3615
 1807TIP3    H129616   0.887   5.064  17.836  0.4187 -1.0297 -1.4023
 1807TIP3    H229617   0.762   4.991  17.881 -0.3107  0.3244 -1.1646
 1808TIP3   OH229618   2.653   5.082  17.811 -1.2738  0.5612  0.1704
 1808TIP3    H129619   2.659   4.987  17.821 -1.8716  0.5930  0.9342
 1808TIP3    H229620   2.627   5.095  17.720  0.2008  0.0606 -0.3434
 1809TIP3   OH229621   5.197   6.305  18.258 -0.3724 -0.5959 -0.3257
 1809TIP3    H129622   5.103   6.320  18.246 -0.1601  1.8373  0.4728
 1809TIP3    H229623   5.236   6.322  18.173 -0.4236  1.0143 -0.0481
 1810TIP3   OH229624   2.454   0.632  18.200  0.3154  0.0461  0.0471
 1810TIP3    H129625   2.537   0.644  18.245  0.1199  1.2274  0.1263
 1810TIP3    H229626   2.427   0.542  18.222  2.0985 -0.7797 -0.9206
 1811TIP3   OH229627   2.299   5.268  17.890  0.0967  0.0631  0.4334
 1811TIP3    H129628   2.287   5.316  17.809 -2.3092  1.0005  1.2419
 1811TIP3    H229629   2.267   5.179  17.870 -0.2460  0.2220  0.2650
 1812TIP3   OH229630   3.444   4.538  17.511 -0.4464 -0.2257  0.0279
 1812TIP3    H129631   3.474   4.541  17.601 -0.4026  0.2832 -0.0006
 1812TIP3    H229632   3.488   4.612  17.468 -0.2798 -0.6045 -0.4658
 1813TIP3   OH229633   5.535   6.839  18.628  0.6562  0.1496 -0.4277
 1813TIP3    H129634   5.514   6.751  18.595 -0.2913 -0.6412  2.0267
 1813TIP3    H229635   5.461   6.861  18.686  1.2534  2.2426 -0.3824
 1814TIP3   OH229636   4.267   6.589  18.405  0.5766 -0.1752  0.1710
 1814TIP3    H129637   4.308   6.624  18.326  1.1367 -1.3659 -0.0893
 1814TIP3    H229638   4.178   6.623  18.402  1.0265  1.0714 -0.1444
 1815TIP3   OH229639   6.436   7.635  16.929 -0.6801  1.0572  0.0817
 1815TIP3    H129640   6.354   7.598  16.895 -0.4376  1.1620 -0.6267
 1815TIP3    H229641   6.504   7.602  16.871 -0.1439  0.5720  0.9629
 1816TIP3   OH229642   1.444   6.496  18.039  0.3882  0.0556 -0.1345
 1816TIP3    H129643   1.484   6.582  18.035  0.4922  0.1468  1.8289
 1816TIP3    H229644   1.515   6.435  18.019  0.6510  0.3675 -0.1471
 1817TIP3   OH229645   5.051   3.016  18.841 -0.3918 -0.6398 -0.0277
 1817TIP3    H129646   5.124   2.995  18.900  0.0962 -1.4365 -0.8858
 1817TIP3    H229647   4.983   2.953  18.864  0.3868 -2.0427 -1.3430
 1818TIP3   OH229648   2.097   1.192  16.600  0.4871 -0.1351  0.5037
 1818TIP3    H129649   2.129   1.266  16.548  0.0486 -0.0002  0.4201
 1818TIP3    H229650   2.001   1.202  16.600  0.5098  0.3802  2.0888
 1819TIP3   OH229651   3.610   5.628  18.430 -1.0725  0.0070  0.7414
 1819TIP3    H129652   3.668   5.590  18.497  0.5047 -2.3250 -1.7153
 1819TIP3    H229653   3.523   5.595  18.453 -0.2590 -2.4205  0.6275
 1820TIP3   OH229654   1.772   4.288  17.684 -0.3093 -0.6020  0.1252
 1820TIP3    H129655   1.790   4.198  17.658 -1.9530 -0.6673 -0.8487
 1820TIP3    H229656   1.678   4.292  17.697 -0.2618  0.9679  0.2291
 1821TIP3   OH229657   5.188   5.517  18.963  0.5237 -0.7932  0.3548
 1821TIP3    H129658   5.124   5.540  19.030  0.1472  0.0623 -0.2689
 1821TIP3    H229659   5.261   5.577  18.978  0.4956 -0.6905  0.0837
 1822TIP3   OH229660   1.158   0.092  18.104  0.3597 -0.0611  0.1365
 1822TIP3    H129661   1.119   0.028  18.044  1.2855  0.4841 -1.0699
 1822TIP3    H229662   1.228   0.044  18.147  0.3930 -0.1468 -0.0131
 1823TIP3   OH229663   2.842   4.649  19.400  0.3108  0.3523  0.4685
 1823TIP3    H129664   2.825   4.557  19.419 -0.9363  0.7484  1.4019
 1823TIP3    H229665   2.910   4.674  19.463 -1.2029  0.7008  2.0669
 1824TIP3   OH229666   0.216   3.023  16.949  0.2903 -0.0573 -0.4556
 1824TIP3    H129667   0.292   3.065  16.909  1.3405 -0.0649  1.4107
 1824TIP3    H229668   0.188   3.085  17.016 -0.8466 -0.4379 -0.5672
 1825TIP3   OH229669   6.563   7.601  17.198 -0.1202  0.5028 -0.7286
 1825TIP3    H129670   6.501   7.550  17.249 -0.3852  0.7502 -0.7976
 1825TIP3    H229671   6.514   7.627  17.120  0.0302  0.8022 -0.7263
 1826TIP3   OH229672   0.962   0.488  19.092 -0.1252  0.0508 -0.4243
 1826TIP3    H129673   1.027   0.431  19.133 -0.2375 -1.6167 -2.4170
 1826TIP3    H229674   0.965   0.568  19.144  3.2817 -0.0580 -0.2549
 1827TIP3   OH229675   4.507   3.997  17.342 -0.0381 -0.0167  0.9794
 1827TIP3    H129676   4.488   4.071  17.284 -0.3914  2.0757  3.5659
 1827TIP3    H229677   4.447   3.929  17.314 -0.5675  1.0909 -0.7500
 1828TIP3   OH229678   5.874   2.951  19.113  0.0682  0.4895  0.0772
 1828TIP3    H129679   5.873   2.864  19.152  2.5357  0.6431  0.5874
 1828TIP3    H229680   5.882   3.011  19.187  0.5685  1.0234 -0.3978
 1829TIP3   OH229681   1.736   5.924  18.532  0.8606  0.0118 -0.1584
 1829TIP3    H129682   1.701   6.009  18.506  0.7638  0.3802  1.1213
 1829TIP3    H229683   1.662   5.877  18.569  1.3261  0.1629  1.0190
 1830TIP3   OH229684   5.554   6.265  16.878  0.4510 -0.4089 -0.4997
 1830TIP3    H129685   5.601   6.316  16.812 -2.9584 -0.0518 -2.9415
 1830TIP3    H229686   5.516   6.192  16.829 -0.6358 -1.2520  1.4903
 1831TIP3   OH229687   5.324   3.987  18.774 -0.3904  0.2660  0.1574
 1831TIP3    H129688   5.257   4.020  18.834  0.4005  1.7974  0.2543
 1831TIP3    H229689   5.304   4.028  18.690 -0.0671  0.0639 -0.0209
 1832TIP3   OH229690   5.041   2.170  17.484 -0.1834  0.5373 -0.2149
 1832TIP3    H129691   5.026   2.148  17.576  0.5751  0.8255 -0.0114
 1832TIP3    H229692   5.125   2.129  17.463 -0.0516  0.9837 -0.5940
 1833TIP3   OH229693   1.611   2.092  16.614 -1.0498  0.0788  0.1361
 1833TIP3    H129694   1.610   2.074  16.708 -0.7000  2.3463  0.6246
 1833TIP3    H229695   1.665   2.023  16.576 -0.0314 -0.0781  1.7965
 1834TIP3   OH229696   7.585   3.052  17.308  0.1813  0.3421 -0.2486
 1834TIP3    H129697   7.615   3.092  17.390  0.3313  1.2249 -0.7238
 1834TIP3    H229698   7.650   3.080  17.243 -1.1373  1.5503 -1.1175
 1835TIP3   OH229699   4.141   7.107  19.056  0.4860 -0.4355  0.3244
 1835TIP3    H129700   4.105   7.195  19.070  0.2430 -0.3751 -0.5879
 1835TIP3    H229701   4.064   7.050  19.056  0.4331 -0.3984 -0.9047
 1836TIP3   OH229702   2.554   1.214  17.230  0.0163 -0.0390 -0.1049
 1836TIP3    H129703   2.620   1.254  17.287 -0.3941  0.1412  0.2474
 1836TIP3    H229704   2.599   1.141  17.189  1.5362  2.0533 -2.5173
 1837TIP3   OH229705   3.404   3.115  17.091 -0.0133 -0.6514  0.5123
 1837TIP3    H129706   3.381   3.030  17.054 -2.6260 -0.3699  1.2433
 1837TIP3    H229707   3.417   3.172  17.015 -2.1366 -0.8331 -0.0484
 1838TIP3   OH229708   0.165   5.852  16.886 -0.4420 -0.4611 -0.8182
 1838TIP3    H129709   0.086   5.902  16.907 -0.3288  0.2199 -1.8843
 1838TIP3    H229710   0.133   5.763  16.867 -0.5535 -1.0797  1.8978
 1839TIP3   OH229711   5.769   0.641  18.682  0.0237 -0.0839 -0.3816
 1839TIP3    H129712   5.837   0.607  18.623 -0.1878  0.6414 -1.0671
 1839TIP3    H229713   5.768   0.735  18.664  0.0822  0.1765  0.9363
 1840TIP3   OH229714   4.523   4.337  18.348  0.0030 -0.9769 -0.1818
 1840TIP3    H129715   4.572   4.298  18.275  1.9138 -1.5278  1.3078
 1840TIP3    H229716   4.432   4.336  18.319  0.8553  1.2399 -3.6413
 1841TIP3   OH229717   4.978   1.002  19.217 -0.1153 -0.4670  0.1620
 1841TIP3    H129718   4.935   1.087  19.226  0.8759  0.2067 -1.0566
 1841TIP3    H229719   5.008   0.980  19.305  1.8179  1.6955  0.1447
 1842TIP3   OH229720   4.832   0.534  18.016 -0.2150  0.2077  0.2477
 1842TIP3    H129721   4.778   0.564  17.943  1.0399  2.2752  0.0872
 1842TIP3    H229722   4.847   0.441  17.999  0.5205  0.7463 -2.4713
 1843TIP3   OH229723   1.185   0.730  18.244  0.1348  0.2960 -0.1262
 1843TIP3    H129724   1.201   0.639  18.218  0.4366  0.5083 -0.6816
 1843TIP3    H229725   1.132   0.767  18.173 -2.4117 -0.2093  1.3495
 1844TIP3   OH229726   0.434   3.624  19.152 -0.0495 -0.2194  0.1837
 1844TIP3    H129727   0.374   3.680  19.200 -0.2920  0.2919 -0.6845
 1844TIP3    H229728   0.414   3.536  19.182  1.3773  0.2406  2.7090
 1845TIP3   OH229729   1.466   0.889  17.111  0.1908 -0.2816 -0.2441
 1845TIP3    H129730   1.472   0.864  17.019  1.3791 -1.6203  0.1513
 1845TIP3    H229731   1.372   0.888  17.130 -0.1342  0.9250 -1.6520
 1846TIP3   OH229732   2.512   7.030  18.242  0.0395  0.1316  0.1883
 1846TIP3    H129733   2.465   7.035  18.326 -1.9987 -2.9524 -0.6153
 1846TIP3    H229734   2.445   7.047  18.176  1.0974  0.1199 -0.9249
 1847TIP3   OH229735   5.902   4.137  18.197 -0.0973  0.4995 -0.2020
 1847TIP3    H129736   5.990   4.111  18.224 -0.0938 -0.9800 -1.5046
 1847TIP3    H229737   5.844   4.100  18.263  0.2580  2.2471  1.1704
 1848TIP3   OH229738   2.431   6.245  16.869  0.0258  0.5673 -0.5442
 1848TIP3    H129739   2.474   6.305  16.808 -0.3043  2.2477  0.8148
 1848TIP3    H229740   2.498   6.178  16.888  1.1709  1.7056 -0.4306
 1849TIP3   OH229741   2.745   4.918  16.902 -0.1883  0.7033  0.0652
 1849TIP3    H129742   2.663   4.875  16.925 -1.0183  2.2952  0.2531
 1849TIP3    H229743   2.774   4.875  16.822 -1.8521  0.8812 -0.6794
 1850TIP3   OH229744   1.967   6.340  18.031 -0.2545 -0.0209  0.0932
 1850TIP3    H129745   1.977   6.246  18.014  1.8608  0.2476 -0.4091
 1850TIP3    H229746   2.038   6.381  17.982 -0.3074  1.7337  1.4010
 1851TIP3   OH229747   2.563   5.097  17.217  0.2969 -0.3411  0.0607
 1851TIP3    H129748   2.559   5.174  17.273  0.0453 -1.1826  1.2342
 1851TIP3    H229749   2.536   5.128  17.130 -0.1160  0.8002  0.5874
 1852TIP3   OH229750   6.503   5.569  18.896 -0.2739 -0.1946 -0.1012
 1852TIP3    H129751   6.433   5.614  18.849  0.0822  1.4507  0.8637
 1852TIP3    H229752   6.469   5.559  18.985  0.3812 -0.1802  0.1524
 1853TIP3   OH229753   6.126   3.437  18.037  0.1849 -0.2996 -0.2856
 1853TIP3    H129754   6.186   3.362  18.044  0.1116 -0.3043  0.3470
 1853TIP3    H229755   6.055   3.405  17.982  0.3244 -0.5858 -0.3065
 1854TIP3   OH229756   5.897   1.204  18.559  0.3078 -0.0574  0.4221
 1854TIP3    H129757   5.924   1.256  18.483  0.6697  2.7811  2.3102
 1854TIP3    H229758   5.801   1.214  18.562  0.1692 -1.0324 -0.1723
 1855TIP3   OH229759   0.767   0.091  16.519  0.3636  0.4541 -0.3773
 1855TIP3    H129760   0.736   0.171  16.562  2.1837  0.7717  0.4488
 1855TIP3    H229761   0.745   0.021  16.580  0.7647  0.6209 -0.0281
 1856TIP3   OH229762   0.252   6.724  17.934 -0.3607  0.4612 -0.1999
 1856TIP3    H129763   0.284   6.659  17.872  0.0467  0.7262 -0.2733
 1856TIP3    H229764   0.331   6.758  17.977 -0.2826  2.6763 -1.9090
 1857TIP3   OH229765   6.446   6.493  18.185  0.5236  0.0266  0.0516
 1857TIP3    H129766   6.521   6.434  18.170 -0.0819 -0.1429 -3.0015
 1857TIP3    H229767   6.473   6.546  18.259  2.0473 -2.5728  1.5408
 1858TIP3   OH229768   2.273   7.104  18.839  0.0363 -0.0181  0.0490
 1858TIP3    H129769   2.232   7.068  18.918  2.6929 -0.9131  1.1547
 1858TIP3    H229770   2.273   7.031  18.777 -1.5119  0.5025 -0.5894
 1859TIP3   OH229771   0.223   6.942  18.343  0.0191  0.2920 -0.1591
 1859TIP3    H129772   0.158   6.998  18.301 -1.7259 -0.3296  1.5829
 1859TIP3    H229773   0.212   6.857  18.299 -0.5060  0.1310  0.2781
 1860TIP3   OH229774   0.080   7.048  16.995  0.7045  0.0845  0.5076
 1860TIP3    H129775   0.057   6.966  16.951 -0.0345  0.1371  0.7794
 1860TIP3    H229776   0.149   7.085  16.940 -0.4508  0.3393 -0.8544
 1861TIP3   OH229777   7.301   7.103  17.978  0.1864  0.0998 -0.1421
 1861TIP3    H129778   7.222   7.114  17.925  0.2014  0.7443 -0.0446
 1861TIP3    H229779   7.372   7.105  17.915  0.2414  1.4243 -0.0640
 1862TIP3   OH229780   6.273   3.167  18.446  0.3419 -0.1914 -0.1401
 1862TIP3    H129781   6.340   3.139  18.383  0.0299 -2.1676  0.3509
 1862TIP3    H229782   6.300   3.128  18.529 -1.1226 -0.5824  0.1804
 1863TIP3   OH229783   2.251   2.913  17.384 -0.1966  0.0688  0.2054
 1863TIP3    H129784   2.234   2.983  17.322  1.1507 -0.2089 -0.5205
 1863TIP3    H229785   2.334   2.937  17.426  0.0341 -0.8332  0.2955
 1864TIP3   OH229786   1.214   6.269  18.305  0.0200 -0.1235  0.5258
 1864TIP3    H129787   1.272   6.214  18.253  0.5477 -0.2184  1.2071
 1864TIP3    H229788   1.259   6.353  18.311 -0.0307 -0.1176  0.8421
 1865TIP3   OH229789   2.199   0.861  18.301 -0.1704  0.4898  0.1414
 1865TIP3    H129790   2.155   0.818  18.227 -1.0227  0.3048  0.7369
 1865TIP3    H229791   2.269   0.912  18.261 -0.4092  0.1264 -0.7645
 1866TIP3   OH229792   7.215   5.338  19.137  0.6417  0.4086  0.4356
 1866TIP3    H129793   7.202   5.341  19.232  0.1189 -0.9760  0.4355
 1866TIP3    H229794   7.209   5.245  19.115  2.0706  0.5623 -0.7846
 1867TIP3   OH229795   0.407   6.868  18.531  0.2015  0.1430 -0.2574
 1867TIP3    H129796   0.333   6.902  18.480  0.1381  0.6737  0.1696
 1867TIP3    H229797   0.367   6.834  18.611  0.3443 -0.2612 -0.3572
 1868TIP3   OH229798   0.946   0.473  18.151  0.0367 -0.1906 -0.0780
 1868TIP3    H129799   0.860   0.434  18.136  0.1453 -0.6863  0.5699
 1868TIP3    H229800   0.998   0.403  18.190  0.6185  0.2268 -0.0848
 1869TIP3   OH229801   6.436   7.548  17.797  0.0969 -0.1571 -0.0430
 1869TIP3    H129802   6.419   7.562  17.890 -0.0263 -0.1455 -0.0666
 1869TIP3    H229803   6.519   7.593  17.781 -0.5987  1.1152 -0.2539
 1870TIP3   OH229804   5.550   4.480  18.676  0.0608 -0.4005 -0.0604
 1870TIP3    H129805   5.545   4.414  18.607  2.6156 -0.2000 -0.5432
 1870TIP3    H229806   5.602   4.551  18.637 -1.4458  1.3391  0.9028
 1871TIP3   OH229807   1.391   7.522  18.875 -0.3760 -0.4578 -0.1721
 1871TIP3    H129808   1.318   7.579  18.898  0.5058  0.2819  0.9103
 1871TIP3    H229809   1.351   7.451  18.825 -1.8388 -0.1134  0.4510
 1872TIP3   OH229810   7.483   5.497  17.829  0.1486 -0.7333  0.3593
 1872TIP3    H129811   7.390   5.499  17.811 -0.3025 -2.0258  2.2929
 1872TIP3    H229812   7.506   5.589  17.847 -0.1559 -0.0075 -2.3964
 1873TIP3   OH229813   5.569   0.244  17.370  0.1080 -0.3227 -0.0885
 1873TIP3    H129814   5.530   0.311  17.315  0.5243  2.3952  2.6804
 1873TIP3    H229815   5.650   0.284  17.403  1.9447 -3.3341 -0.5712
 1874TIP3   OH229816   0.605   1.752  18.483 -0.1309  0.4557 -0.1956
 1874TIP3    H129817   0.607   1.683  18.417  1.3796  0.0477  0.2448
 1874TIP3    H229818   0.527   1.734  18.535 -0.3384 -0.2761 -0.7510
 1875TIP3   OH229819   2.922   0.154  16.685 -0.0940  0.5747  0.2068
 1875TIP3    H129820   2.873   0.195  16.613  1.7727 -0.8443 -1.9729
 1875TIP3    H229821   2.903   0.061  16.677 -0.1705  0.4181  1.8725
 1876TIP3   OH229822   5.588   1.098  19.341 -0.4777  0.2695 -0.5696
 1876TIP3    H129823   5.496   1.077  19.322  0.1091 -1.3398 -1.8490
 1876TIP3    H229824   5.606   1.175  19.286 -1.1071  0.7221 -0.1564
 1877TIP3   OH229825   3.766   3.872  17.828 -0.2594  0.8553  0.0655
 1877TIP3    H129826   3.684   3.823  17.818 -1.6091  2.5284  2.0760
 1877TIP3    H229827   3.818   3.820  17.890  1.0707 -1.0753 -2.4426
 1878TIP3   OH229828   4.707   6.989  16.974  0.2330  0.1104 -0.5358
 1878TIP3    H129829   4.776   6.923  16.965  1.1579  1.3380 -4.5656
 1878TIP3    H229830   4.754   7.072  16.977 -0.9528  0.9776 -3.4024
 1879TIP3   OH229831   2.990   2.730  18.524 -0.2183 -0.2763 -0.1257
 1879TIP3    H129832   2.982   2.780  18.442  2.3130 -1.3995 -1.1475
 1879TIP3    H229833   3.081   2.704  18.527 -0.2115 -0.2319  3.1552
 1880TIP3   OH229834   3.778   2.982  18.129  0.6546  0.3715 -0.2088
 1880TIP3    H129835   3.685   3.004  18.118  0.9764  1.6624 -0.4461
 1880TIP3    H229836   3.809   2.967  18.039  0.5541 -0.6749 -0.0883
 1881TIP3   OH229837   4.811   6.025  16.429 -0.3171  0.2453 -0.2354
 1881TIP3    H129838   4.747   6.096  16.425 -1.1092 -0.3097  1.6192
 1881TIP3    H229839   4.864   6.043  16.507  0.0312 -0.7258 -0.2201
 1882TIP3   OH229840   0.495   7.614  19.429  0.0287 -0.3114  0.3135
 1882TIP3    H129841   0.429   7.554  19.394 -0.1650  0.1256 -0.0887
 1882TIP3    H229842   0.495   7.597  19.524 -0.7016 -0.2798  0.3259
 1883TIP3   OH229843   3.631   1.595  17.706  0.5073 -0.3796 -0.4578
 1883TIP3    H129844   3.651   1.565  17.794  0.6262  0.4376 -0.1986
 1883TIP3    H229845   3.662   1.686  17.703  0.0491 -0.2315 -1.1751
 1884TIP3   OH229846   2.427   2.253  18.004  0.1235  0.5147 -0.2833
 1884TIP3    H129847   2.497   2.316  17.987  1.1311 -0.8786 -1.4143
 1884TIP3    H229848   2.388   2.283  18.087  2.6721  0.7761  0.9193
 1885TIP3   OH229849   5.894   4.972  18.604 -0.1859  0.3833  0.3451
 1885TIP3    H129850   5.961   5.022  18.649  0.1065  0.8203 -0.5437
 1885TIP3    H229851   5.814   4.989  18.653  0.2978  0.0583  1.2610
 1886TIP3   OH229852   6.271   1.277  17.304 -0.9748  0.0972  0.4617
 1886TIP3    H129853   6.278   1.182  17.294 -0.5714  0.1760 -0.0378
 1886TIP3    H229854   6.257   1.310  17.215 -0.8887  0.5255  0.6043
 1887TIP3   OH229855   5.981   0.924  17.839  0.7804 -0.3419  0.3736
 1887TIP3    H129856   6.073   0.949  17.848  0.1583  1.3815  2.6945
 1887TIP3    H229857   5.942   0.993  17.786  0.3566  0.2243  1.4063
 1888TIP3   OH229858   5.297   2.724  18.825  0.2972 -0.2635 -0.5757
 1888TIP3    H129859   5.286   2.814  18.856  2.0756 -0.9074  2.3115
 1888TIP3    H229860   5.221   2.677  18.861  0.1116 -0.2085 -0.8900
 1889TIP3   OH229861   5.719   3.297  16.953  0.0360 -0.9893 -0.3445
 1889TIP3    H129862   5.645   3.313  16.894 -1.3822  0.3187  1.6501
 1889TIP3    H229863   5.686   3.234  17.017  0.4276  0.0127  0.8853
 1890TIP3   OH229864   2.550   4.347  17.535 -0.3793 -0.0558 -0.5377
 1890TIP3    H129865   2.518   4.303  17.457 -0.7575 -0.6458 -0.0575
 1890TIP3    H229866   2.587   4.277  17.589 -1.1550  0.1696  0.3196
 1891TIP3   OH229867   3.966   1.177  17.853  0.0120 -0.0953  0.6900
 1891TIP3    H129868   3.911   1.194  17.929  0.2953  0.1743  0.8386
 1891TIP3    H229869   4.056   1.187  17.885  0.1172  1.6496 -0.0522
 1892TIP3   OH229870   3.298   1.185  17.580  0.1006  0.0796 -0.6391
 1892TIP3    H129871   3.338   1.152  17.500  0.8666  0.0383 -0.2473
 1892TIP3    H229872   3.366   1.238  17.621  0.1085 -0.7903  0.5342
 1893TIP3   OH229873   7.192   4.933  16.035  0.1427 -0.1729 -0.0368
 1893TIP3    H129874   7.148   4.928  15.950  1.9735  0.7136 -1.0978
 1893TIP3    H229875   7.141   4.997  16.085 -0.0211  0.5299 -1.0787
 1894TIP3   OH229876   3.181   0.430  18.403  0.2536  0.1509  0.2323
 1894TIP3    H129877   3.224   0.356  18.361  0.9235  0.3615  0.5320
 1894TIP3    H229878   3.192   0.414  18.497 -3.1564 -1.4875  0.5079
 1895TIP3   OH229879   1.421   2.408  17.247  0.0956 -0.1869 -0.2756
 1895TIP3    H129880   1.490   2.443  17.191  0.7801 -0.3112  0.4648
 1895TIP3    H229881   1.463   2.397  17.332 -1.1478  0.8003  0.4958
 1896TIP3   OH229882   4.293   0.727  17.346  0.1093  0.5539 -0.1993
 1896TIP3    H129883   4.278   0.659  17.280  1.2098  0.0364  0.0521
 1896TIP3    H229884   4.388   0.727  17.359 -0.0146  1.1546  0.8403
 1897TIP3   OH229885   1.151   5.970  19.127  0.3466 -0.1937  0.1487
 1897TIP3    H129886   1.239   5.991  19.096 -0.1035 -0.5193 -1.4488
 1897TIP3    H229887   1.161   5.892  19.180  0.7007 -2.0660 -2.4796
 1898TIP3   OH229888   3.897   6.067  19.002  0.0672  0.8132  0.3417
 1898TIP3    H129889   3.891   6.097  18.912 -0.8837 -1.6207 -0.4976
 1898TIP3    H229890   3.975   6.011  19.004 -0.4756  0.0478  0.7330
 1899TIP3   OH229891   5.868   6.389  16.884  0.3748 -0.0638 -0.7266
 1899TIP3    H129892   5.850   6.467  16.936  1.7259  0.3754 -0.8740
 1899TIP3    H229893   5.799   6.387  16.818  0.3131  0.9902 -0.7081
 1900TIP3   OH229894   0.184   7.590  19.105 -0.3523 -0.2911 -0.5392
 1900TIP3    H129895   0.217   7.625  19.022  1.6866 -0.1000  0.3111
 1900TIP3    H229896   0.119   7.655  19.133 -1.3159 -0.5117 -2.0907
 1901TIP3   OH229897   1.415   1.036  18.664 -0.3648 -0.5197  0.0440
 1901TIP3    H129898   1.510   1.020  18.657 -0.2953  0.3684 -1.4099
 1901TIP3    H229899   1.381   1.015  18.577 -1.2957  0.4782  0.1525
 1902TIP3   OH229900   1.472   5.270  18.751  0.1875 -0.6996  0.2286
 1902TIP3    H129901   1.563   5.257  18.723 -0.2517 -1.9981 -0.7065
 1902TIP3    H229902   1.467   5.227  18.836  0.2886 -1.2587 -0.0406
 1903TIP3   OH229903   5.104   2.648  19.303  0.0444 -0.5522 -0.3114
 1903TIP3    H129904   5.130   2.595  19.228 -1.6624  0.3226 -1.6015
 1903TIP3    H229905   5.159   2.727  19.297 -1.3991  0.4260 -1.9022
 1904TIP3   OH229906   4.124   2.352  17.641  0.1252 -0.1189 -0.5481
 1904TIP3    H129907   4.085   2.359  17.554 -2.1237 -4.2420 -0.1011
 1904TIP3    H229908   4.186   2.279  17.635  1.6879  0.9991  0.8313
 1905TIP3   OH229909   6.538   1.349  18.365 -0.3933 -0.0994 -0.1012
 1905TIP3    H129910   6.484   1.428  18.353 -2.6332 -1.6258 -0.7440
 1905TIP3    H229911   6.585   1.341  18.282  0.1409  0.7418  0.1051
 1906TIP3   OH229912   6.027   2.495  19.008 -0.1515 -0.2455 -0.0832
 1906TIP3    H129913   5.987   2.430  19.066 -2.0866 -0.0485 -1.1112
 1906TIP3    H229914   6.120   2.492  19.030 -0.3772 -2.3262  0.8920
 1907TIP3   OH229915   4.187   2.117  19.057  0.1630  0.5655 -0.4096
 1907TIP3    H129916   4.212   2.209  19.049 -2.5912  1.2970 -1.7640
 1907TIP3    H229917   4.121   2.115  19.126  1.5054 -0.7949  0.9520
 1908TIP3   OH229918   7.598   3.521  19.374  0.8180  0.4598  0.1988
 1908TIP3    H129919   7.597   3.449  19.311  0.5391  1.1123 -0.5652
 1908TIP3    H229920   7.507   3.551  19.378  0.7464  0.1322  1.2729
 1909TIP3   OH229921   4.630   1.385  19.116 -0.1932 -0.0711  0.6833
 1909TIP3    H129922   4.675   1.339  19.187  1.1212 -0.4707 -0.3576
 1909TIP3    H229923   4.693   1.382  19.043 -0.6195  2.2331  0.1685
 1910TIP3   OH229924   6.971   1.611  18.046 -0.8338 -0.6205  0.2321
 1910TIP3    H129925   6.965   1.518  18.028 -0.0206 -0.6077 -0.1711
 1910TIP3    H229926   7.059   1.635  18.016 -1.1730  0.3461 -0.0308
 1911TIP3   OH229927   6.887   2.904  19.241  0.0752  0.4016  0.1934
 1911TIP3    H129928   6.918   2.852  19.315  0.6670  1.5937  0.8350
 1911TIP3    H229929   6.793   2.888  19.236  0.1603 -0.2684  0.7318
 1912TIP3   OH229930   0.677   3.926  17.047 -0.1361 -0.4614 -0.2388
 1912TIP3    H129931   0.662   3.899  16.956  1.0784  0.4789 -0.7428
 1912TIP3    H229932   0.676   4.022  17.043 -0.3893 -0.4088  0.8129
 1913TIP3   OH229933   2.228   6.403  17.231  0.2508 -0.1675  0.1506
 1913TIP3    H129934   2.157   6.339  17.240  1.6906 -1.7914  0.6639
 1913TIP3    H229935   2.199   6.479  17.280 -0.3246 -1.5432  2.0543
 1914TIP3   OH229936   1.765   4.621  17.900  0.6508  0.2630  0.2662
 1914TIP3    H129937   1.672   4.630  17.921  0.6145  0.3860  0.0543
 1914TIP3    H229938   1.770   4.638  17.806  0.5210 -2.3029 -0.2770
 1915TIP3   OH229939   7.418   4.813  18.392  0.7425  0.3586 -0.2985
 1915TIP3    H129940   7.374   4.897  18.386 -0.1728  0.0031  1.0411
 1915TIP3    H229941   7.433   4.800  18.486  0.8077 -0.9954 -0.4766
 1916TIP3   OH229942   1.683   4.669  17.068 -0.2801 -0.4505  0.2009
 1916TIP3    H129943   1.675   4.634  17.156  1.6987  0.2081  0.6932
 1916TIP3    H229944   1.755   4.620  17.028 -0.4081  0.0213 -0.6449
 1917TIP3   OH229945   0.062   5.034  18.549  0.1945 -0.3808  0.1362
 1917TIP3    H129946   0.113   4.956  18.528 -1.1120 -0.9831 -0.9148
 1917TIP3    H229947   0.042   5.073  18.463  0.3959  0.8414  0.6183
 1918TIP3   OH229948   6.236   4.950  16.881  0.3335 -0.4671  0.1037
 1918TIP3    H129949   6.286   4.992  16.951 -1.8495  1.2958  0.7412
 1918TIP3    H229950   6.240   5.012  16.808 -0.3873 -0.5495 -0.0198
 1919TIP3   OH229951   5.182   1.444  19.284  0.9777 -0.6113 -0.3435
 1919TIP3    H129952   5.252   1.486  19.334 -0.6482 -0.9561  2.4118
 1919TIP3    H229953   5.210   1.353  19.275  0.7775 -0.8176  1.0117
 1920TIP3   OH229954   7.614   7.302  17.133  0.0221 -0.4040 -0.4376
 1920TIP3    H129955   7.687   7.243  17.113  0.7193  0.6253 -1.0614
 1920TIP3    H229956   7.591   7.342  17.049  0.3098  1.0062  0.1143
 1921TIP3   OH229957   2.593   6.455  17.633  0.0152  0.0258 -0.2657
 1921TIP3    H129958   2.518   6.451  17.574 -1.8717 -0.7265  2.0405
 1921TIP3    H229959   2.625   6.364  17.636 -0.3229 -0.0774  0.3585
 1922TIP3   OH229960   7.642   2.265  17.718 -0.0652  0.2961  0.3505
 1922TIP3    H129961   7.548   2.260  17.732 -0.2144 -0.2696 -0.7639
 1922TIP3    H229962   7.653   2.257  17.623  1.2279 -1.8946  0.6093
 1923TIP3   OH229963   4.476   5.935  17.408  0.1005 -0.6087  0.5947
 1923TIP3    H129964   4.497   5.936  17.501 -1.0600  0.6300  0.8786
 1923TIP3    H229965   4.482   6.027  17.381  0.2579 -0.9265 -0.5164
 1924TIP3   OH229966   5.220   7.435  19.399 -0.2158  0.0049 -0.1086
 1924TIP3    H129967   5.150   7.372  19.419  0.5418 -0.8963 -0.1976
 1924TIP3    H229968   5.221   7.494  19.474 -1.6303  0.5713 -0.4961
 1925TIP3   OH229969   0.861   1.783  17.368 -0.0016  0.2203  0.0933
 1925TIP3    H129970   0.870   1.866  17.320  2.4815  0.0767  0.1517
 1925TIP3    H229971   0.804   1.804  17.442 -1.9720  1.0495 -1.5595
 1926TIP3   OH229972   2.328   5.612  18.642  0.2265 -0.5599 -0.4884
 1926TIP3    H129973   2.327   5.684  18.579 -0.6290 -0.1486 -0.0151
 1926TIP3    H229974   2.383   5.545  18.601  1.2843  0.4694 -0.8011
 1927TIP3   OH229975   3.072   0.496  17.461 -0.2380 -0.2261 -0.1232
 1927TIP3    H129976   3.038   0.575  17.504 -0.4088 -0.2831 -0.1534
 1927TIP3    H229977   3.146   0.528  17.409 -0.2580 -0.0976 -0.0753
 1928TIP3   OH229978   3.304   4.159  18.364 -0.0705  0.0616  0.1394
 1928TIP3    H129979   3.367   4.173  18.435 -0.5594 -2.5361  1.1897
 1928TIP3    H229980   3.331   4.076  18.323 -2.0611 -0.4884 -0.1729
 1929TIP3   OH229981   3.196   4.129  18.951 -0.1317  0.5950 -0.4089
 1929TIP3    H129982   3.291   4.136  18.954  0.1954 -2.2780 -0.7261
 1929TIP3    H229983   3.176   4.108  18.859 -0.7878 -0.9954  0.0565
 1930TIP3   OH229984   5.992   0.094  16.805 -0.2201  0.3195  0.0103
 1930TIP3    H129985   6.012   0.101  16.712  1.0082  2.1620  0.3560
 1930TIP3    H229986   5.950   0.009  16.815 -0.6365  0.2120 -2.2627
 1931TIP3   OH229987   4.450   5.596  18.746 -0.0261 -0.7035  0.0258
 1931TIP3    H129988   4.507   5.583  18.670  0.2319 -0.4121  0.1682
 1931TIP3    H229989   4.415   5.684  18.736 -0.7188 -0.9978 -0.2309
 1932TIP3   OH229990   3.664   0.435  19.001 -0.2797 -0.6236  0.1120
 1932TIP3    H129991   3.604   0.409  18.931  0.1919 -1.3304 -0.0412
 1932TIP3    H229992   3.698   0.521  18.973  0.8609 -1.4484 -1.1741
 1933TIP3   OH229993   7.082   3.428  17.005  0.3170  0.6188 -0.1847
 1933TIP3    H129994   7.123   3.478  17.075  0.7236  0.3843 -0.2512
 1933TIP3    H229995   7.075   3.339  17.040  0.0246  0.6167 -0.2414
 1934TIP3   OH229996   3.715   2.563  17.280  0.2440  0.2764  0.6536
 1934TIP3    H129997   3.710   2.513  17.199  1.7157  2.3488 -0.7990
 1934TIP3    H229998   3.640   2.623  17.275 -0.2233 -0.2244  1.3389
 1935TIP3   OH229999   1.697   7.022  18.055  0.3554  0.2304  0.2814
 1935TIP3    H130000   1.707   7.084  17.983  1.5859  0.3704  0.5524
 1935TIP3    H230001   1.648   6.949  18.017  0.4927  0.5544 -0.5417
 1936TIP3   OH230002   3.974   3.122  19.163 -0.1695 -0.0828 -0.3509
 1936TIP3    H130003   3.893   3.163  19.194 -1.0014 -1.4222 -0.6489
 1936TIP3    H230004   3.995   3.169  19.082 -0.6334  0.2920 -0.2593
 1937TIP3   OH230005   3.305   7.185  17.112  0.5726 -0.2793  0.1230
 1937TIP3    H130006   3.310   7.277  17.089  1.3064 -0.1075  0.9486
 1937TIP3    H230007   3.238   7.181  17.180 -0.3683 -0.5504 -0.7846
 1938TIP3   OH230008   3.037   1.167  18.961 -0.3261 -0.0115 -0.3184
 1938TIP3    H130009   3.109   1.229  18.963  0.0336 -0.4414  0.4812
 1938TIP3    H230010   3.047   1.115  19.041 -1.8237  0.2563  0.0813
 1939TIP3   OH230011   7.145   7.220  19.275  0.3899 -0.7974 -0.3142
 1939TIP3    H130012   7.079   7.163  19.237 -0.9922  0.1533  0.5492
 1939TIP3    H230013   7.225   7.199  19.228 -0.4539 -2.1916 -1.2040
 1940TIP3   OH230014   2.243   2.900  18.287 -0.4828  0.0894 -0.0098
 1940TIP3    H130015   2.245   2.895  18.383  1.7177 -1.5215 -0.0720
 1940TIP3    H230016   2.169   2.845  18.262  0.2503 -1.2593  0.7224
 1941TIP3   OH230017   6.602   4.285  16.870 -0.1486 -0.0688 -0.6008
 1941TIP3    H130018   6.680   4.333  16.897  0.3139 -1.1064 -0.0215
 1941TIP3    H230019   6.613   4.199  16.910 -1.1230 -0.5389 -1.3263
 1942TIP3   OH230020   1.972   5.331  18.344  0.5409  0.2003  0.0696
 1942TIP3    H130021   1.963   5.276  18.267 -0.7920 -0.9069  0.9476
 1942TIP3    H230022   2.043   5.392  18.323  0.5248 -0.3694 -1.8151
 1943TIP3   OH230023   0.075   7.478  18.147 -0.0536 -0.0691 -0.4691
 1943TIP3    H130024   0.132   7.479  18.224 -0.9795  0.2491  0.2271
 1943TIP3    H230025   0.134   7.493  18.073  0.7983 -0.0243  0.2061
 1944TIP3   OH230026   1.372   5.545  19.197  0.0136 -0.1509 -0.1256
 1944TIP3    H130027   1.338   5.481  19.260  1.8153 -1.6868 -0.6366
 1944TIP3    H230028   1.369   5.500  19.113  3.9547 -0.8402 -0.1171
 1945TIP3   OH230029   6.172   1.617  17.218  0.0905  0.0351 -0.1836
 1945TIP3    H130030   6.092   1.663  17.196 -0.5562 -0.7886  0.3950
 1945TIP3    H230031   6.225   1.681  17.265  0.6004  1.1658 -2.2012
 1946TIP3   OH230032   7.528   5.580  16.448  0.4239  0.2812 -0.2451
 1946TIP3    H130033   7.615   5.557  16.481 -0.2607  0.3185  1.7430
 1946TIP3    H230034   7.468   5.550  16.517 -0.9745  2.1609 -0.5802
 1947TIP3   OH230035   3.637   1.122  18.341 -0.1454 -0.2090 -0.3821
 1947TIP3    H130036   3.563   1.157  18.391 -0.9403 -1.9397 -0.2376
 1947TIP3    H230037   3.596   1.068  18.273  0.9128 -2.8215  0.9121
 1948TIP3   OH230038   4.600   0.880  17.721  0.6223 -0.4016  0.1141
 1948TIP3    H130039   4.634   0.931  17.795 -0.1007  0.1904  0.0464
 1948TIP3    H230040   4.648   0.797  17.726  1.0489 -0.1268  0.8602
 1949TIP3   OH230041   4.231   4.983  17.483  0.1295  0.3257 -0.3936
 1949TIP3    H130042   4.299   4.924  17.450  1.3366  1.4049  0.0884
 1949TIP3    H230043   4.161   4.924  17.514  0.1882 -0.7629 -2.2184
 1950TIP3   OH230044   6.415   6.649  17.410 -0.0546  0.1950  0.1811
 1950TIP3    H130045   6.353   6.720  17.424  0.2928  0.8649 -1.4055
 1950TIP3    H230046   6.500   6.684  17.437 -0.2061 -0.4099  1.4984
 1951TIP3   OH230047   5.788   3.207  17.958  0.0400 -0.3423 -0.0098
 1951TIP3    H130048   5.761   3.186  18.047  0.3298  0.9224  0.4028
 1951TIP3    H230049   5.757   3.134  17.905 -2.5811  0.1468  0.6983
 1952TIP3   OH230050   4.948   6.506  18.516 -0.6421  0.0230  0.0101
 1952TIP3    H130051   4.869   6.560  18.525 -0.7734 -0.4277  1.7696
 1952TIP3    H230052   5.020   6.567  18.532 -0.5701  0.4855 -1.8180
 1953TIP3   OH230053   1.607   4.668  18.999 -0.8373  0.1174  0.0909
 1953TIP3    H130054   1.639   4.648  18.911  1.1557 -0.2155  0.8583
 1953TIP3    H230055   1.673   4.727  19.036 -0.1628 -1.9141  2.3446
 1954TIP3   OH230056   1.819   1.791  17.742  0.0172 -0.0232 -0.5140
 1954TIP3    H130057   1.814   1.872  17.792 -0.2665 -0.0381 -0.5202
 1954TIP3    H230058   1.896   1.746  17.777  0.1551  0.2324 -0.4875
 1955TIP3   OH230059   5.685   7.230  19.035 -0.1865  0.1674  0.7625
 1955TIP3    H130060   5.635   7.298  19.081  0.3236 -0.4945  2.3634
 1955TIP3    H230061   5.674   7.251  18.942 -0.1417  2.3818  1.1978
 1956TIP3   OH230062   3.437   6.814  18.009  0.3829  0.3820  0.3330
 1956TIP3    H130063   3.394   6.759  18.074  0.1471  1.0045  0.7189
 1956TIP3    H230064   3.483   6.881  18.061  0.1006  0.9512 -0.1359
 1957TIP3   OH230065   3.867   0.091  17.894 -0.1283  0.4815  0.2753
 1957TIP3    H130066   3.792   0.150  17.888 -1.2333 -0.4244  3.2892
 1957TIP3    H230067   3.943   0.150  17.894 -1.0136  1.6709  0.2528
 1958TIP3   OH230068   6.049   1.101  18.197 -0.2347  0.3106  0.6164
 1958TIP3    H130069   6.102   1.107  18.117  0.5134 -1.7820  0.9063
 1958TIP3    H230070   5.959   1.108  18.166 -0.1373 -3.1880 -0.8699
 1959TIP3   OH230071   2.755   1.983  18.130 -0.6569  0.4335  0.3560
 1959TIP3    H130072   2.758   1.893  18.100  0.9102  0.8173 -0.7115
 1959TIP3    H230073   2.664   1.995  18.160 -1.1223 -1.2130 -0.2941
 1960TIP3   OH230074   2.260   3.627  18.242  0.0064 -0.8573  0.0436
 1960TIP3    H130075   2.355   3.630  18.232 -0.0279  0.6320 -0.0218
 1960TIP3    H230076   2.226   3.631  18.153 -0.1224  0.7468  0.1342
 1961TIP3   OH230077   3.430   0.313  17.641  0.0824  0.0614 -0.0435
 1961TIP3    H130078   3.432   0.404  17.672 -0.0129  0.0629 -0.0411
 1961TIP3    H230079   3.511   0.275  17.674 -0.9880 -0.5496  2.0915
 1962TIP3   OH230080   1.621   4.874  17.376 -0.2462 -0.4444  0.4403
 1962TIP3    H130081   1.563   4.826  17.435  0.4398 -0.6402  0.9665
 1962TIP3    H230082   1.638   4.814  17.304 -0.0398 -0.7019  0.6996
 1963TIP3   OH230083   4.303   2.230  18.017  0.9427  0.4657 -0.4949
 1963TIP3    H130084   4.232   2.261  17.961 -0.6376 -0.4468  0.9062
 1963TIP3    H230085   4.340   2.310  18.054 -0.9686  0.9420  0.5796
 1964TIP3   OH230086   0.378   7.661  18.520 -0.2378  0.5256  0.7574
 1964TIP3    H130087   0.446   7.690  18.581  0.8195 -1.7474  0.7710
 1964TIP3    H230088   0.338   7.585  18.563 -0.6237 -0.0830 -0.6273
 1965TIP3   OH230089   7.447   3.444  16.644  0.0215  0.3101 -0.7668
 1965TIP3    H130090   7.363   3.420  16.683  1.0315 -1.0026  0.7269
 1965TIP3    H230091   7.491   3.361  16.629  2.9173  0.9159  2.8635
 1966TIP3   OH230092   0.976   0.510  17.318 -0.4869  0.4271  0.0146
 1966TIP3    H130093   1.051   0.501  17.377  0.5460  0.1051 -1.3048
 1966TIP3    H230094   0.930   0.587  17.351  0.1702  0.3895  1.1029
 1967TIP3   OH230095   3.039   3.415  16.582  0.1027 -0.3690  0.2372
 1967TIP3    H130096   3.049   3.427  16.676  1.8371 -0.1236  0.0563
 1967TIP3    H230097   2.991   3.492  16.553 -1.4153 -0.9682  1.0367
 1968TIP3   OH230098   0.934   6.349  17.132  0.2193  0.2716  0.3515
 1968TIP3    H130099   0.892   6.364  17.216 -0.9810  0.3809 -0.2529
 1968TIP3    H230100   0.931   6.433  17.087  0.9103  0.2335  0.2144
 1969TIP3   OH230101   0.504   1.316  19.337  0.3195  0.7974  0.4514
 1969TIP3    H130102   0.584   1.363  19.360 -0.1100  1.1110  1.3517
 1969TIP3    H230103   0.523   1.278  19.251  1.4961  0.7223  0.7180
 1970TIP3   OH230104   3.708   6.470  19.338 -0.3588  0.0423 -0.2831
 1970TIP3    H130105   3.644   6.403  19.314 -0.8730  0.9329 -1.4753
 1970TIP3    H230106   3.707   6.532  19.265  1.6698  0.2351 -0.2000
 1971TIP3   OH230107   2.845   2.387  18.350 -0.4012  0.2508  0.2911
 1971TIP3    H130108   2.924   2.433  18.325  0.1405 -0.0120  1.4432
 1971TIP3    H230109   2.775   2.432  18.303  0.5419 -0.3258 -1.7721
 1972TIP3   OH230110   2.999   2.468  17.780  0.4152  0.0404 -0.3492
 1972TIP3    H130111   3.060   2.394  17.787  0.1754 -0.1454 -0.2128
 1972TIP3    H230112   2.957   2.472  17.865 -0.0983 -0.1273 -0.5937
 1973TIP3   OH230113   6.183   2.657  18.639  0.1310 -0.3306 -0.1776
 1973TIP3    H130114   6.159   2.729  18.580  1.5315 -0.4162 -0.8764
 1973TIP3    H230115   6.110   2.596  18.634 -0.1495  0.0770 -1.1540
 1974TIP3   OH230116   3.907   1.815  17.141  0.3215  0.5983 -0.2711
 1974TIP3    H130117   3.961   1.885  17.102 -1.5284  3.1090  1.3424
 1974TIP3    H230118   3.818   1.849  17.136 -0.4177 -0.6462  2.6543
 1975TIP3   OH230119   6.634   0.612  19.013 -0.0560  0.4565 -0.2145
 1975TIP3    H130120   6.637   0.542  19.077  2.6641  1.0800  0.4615
 1975TIP3    H230121   6.599   0.687  19.061  0.2026  0.4372  0.0016
 1976TIP3   OH230122   1.756   0.177  19.325  0.3303  0.1178  0.6447
 1976TIP3    H130123   1.730   0.226  19.403  2.4365  0.7404  1.0323
 1976TIP3    H230124   1.766   0.244  19.257 -1.2587 -0.3945 -0.1343
 1977TIP3   OH230125   3.339   6.566  16.678  0.3559  0.1309  0.3566
 1977TIP3    H130126   3.315   6.659  16.679  0.5247  0.1949  1.9710
 1977TIP3    H230127   3.434   6.566  16.691  0.4159 -0.2560 -0.0781
 1978TIP3   OH230128   2.495   3.287  19.340  0.2762  0.1982  0.1519
 1978TIP3    H130129   2.423   3.236  19.302  0.3509 -0.0826  0.3778
 1978TIP3    H230130   2.456   3.328  19.418  0.1703  0.6312 -0.1237
 1979TIP3   OH230131   2.180   7.130  18.173  0.1813 -0.0460  0.2813
 1979TIP3    H130132   2.092   7.147  18.140  0.3991 -0.0238 -0.3103
 1979TIP3    H230133   2.168   7.108  18.265 -0.1592  3.1948  1.1491
 1980TIP3   OH230134   1.128   1.291  17.997  0.1223 -0.1873  0.0300
 1980TIP3    H130135   1.175   1.340  18.064 -0.7533 -1.3570  1.5664
 1980TIP3    H230136   1.179   1.210  17.986  0.0049 -0.2095 -0.3810
 1981TIP3   OH230137   1.229   2.876  19.450 -0.1629 -0.2191  0.1875
 1981TIP3    H130138   1.304   2.820  19.472 -0.3652  0.0087  1.5199
 1981TIP3    H230139   1.158   2.814  19.433  0.5157 -0.4719 -1.9671
 1982TIP3   OH230140   6.638   6.874  18.203  0.4257  0.6940  0.1701
 1982TIP3    H130141   6.625   6.783  18.229  1.6245  0.6065  0.4850
 1982TIP3    H230142   6.559   6.896  18.153 -0.1631 -0.3123  0.6410
 1983TIP3   OH230143   7.544   0.277  18.125  0.0222  0.0998  0.1695
 1983TIP3    H130144   7.477   0.346  18.132  1.4969  1.6326 -0.0993
 1983TIP3    H230145   7.585   0.274  18.211 -0.2545 -0.7179  0.2839
 1984TIP3   OH230146   1.794   4.716  16.332  0.2726  0.0488  0.0929
 1984TIP3    H130147   1.812   4.623  16.339 -1.0383 -0.1035  1.9589
 1984TIP3    H230148   1.855   4.757  16.393 -0.5307  0.2081  0.8021
 1985TIP3   OH230149   5.072   1.768  16.955 -0.5988 -0.7815  0.4907
 1985TIP3    H130150   5.113   1.683  16.936 -1.7175 -1.3421  0.4655
 1985TIP3    H230151   5.133   1.833  16.921 -0.8418 -1.6388 -1.7300
 1986TIP3   OH230152   4.657   5.041  17.716 -0.1773  0.1010  0.5767
 1986TIP3    H130153   4.660   4.973  17.783  0.2951 -0.1637  0.2918
 1986TIP3    H230154   4.588   5.100  17.745 -0.1745 -0.1690  1.1469
 1987TIP3   OH230155   7.426   7.271  18.179  0.1964  0.2173  0.1521
 1987TIP3    H130156   7.403   7.210  18.109  1.3142  1.2547 -1.1662
 1987TIP3    H230157   7.351   7.268  18.239  0.0177 -2.0907 -0.0749
 1988TIP3   OH230158   2.952   1.418  17.424 -0.5716 -0.1479  0.5526
 1988TIP3    H130159   2.942   1.498  17.371 -0.3559  0.2129  1.0474
 1988TIP3    H230160   2.875   1.366  17.403 -0.2880 -0.2082 -0.4416
 1989TIP3   OH230161   1.552   6.347  17.318 -0.2581 -0.1437 -0.3215
 1989TIP3    H130162   1.557   6.442  17.316  0.3535 -0.1788 -1.1852
 1989TIP3    H230163   1.475   6.326  17.265 -0.4319 -0.1275 -0.0758
 1990TIP3   OH230164   2.099   0.251  17.158 -0.4440 -0.0547 -0.2130
 1990TIP3    H130165   2.065   0.303  17.230  2.5003  2.5025 -0.4509
 1990TIP3    H230166   2.053   0.284  17.081 -0.3768  0.4586 -0.0407
 1991TIP3   OH230167   1.181   6.485  18.890  0.5694  0.5220 -0.1746
 1991TIP3    H130168   1.156   6.491  18.798 -0.0697 -0.7360 -0.0959
 1991TIP3    H230169   1.270   6.450  18.889  0.8714  1.2616 -0.3171
 1992TIP3   OH230170   4.667   2.597  19.017 -0.2695  0.1019 -0.1212
 1992TIP3    H130171   4.617   2.638  19.088  0.3129 -0.3598  0.5702
 1992TIP3    H230172   4.752   2.576  19.056 -0.0191 -0.3673 -0.8909
 1993TIP3   OH230173   0.201   0.932  18.653 -0.5882 -0.0388 -0.5624
 1993TIP3    H130174   0.121   0.979  18.678 -0.0717  1.0602 -0.8888
 1993TIP3    H230175   0.195   0.848  18.697 -2.1322 -0.1452 -0.9297
 1994TIP3   OH230176   3.773   3.555  18.842 -0.1019  0.2849 -0.5074
 1994TIP3    H130177   3.831   3.484  18.867  0.3222 -0.3064 -2.8812
 1994TIP3    H230178   3.685   3.516  18.845  0.2246 -0.8225 -2.9902
 1995TIP3   OH230179   4.359   5.603  19.424  0.1374 -0.4988 -0.3880
 1995TIP3    H130180   4.293   5.605  19.492  2.0621 -1.0356  1.6247
 1995TIP3    H230181   4.349   5.686  19.377 -1.7553 -0.4789 -0.0273
 1996TIP3   OH230182   2.655   0.133  17.643  0.8498 -0.1783  0.1530
 1996TIP3    H130183   2.648   0.169  17.555 -1.2461 -0.2977  0.2012
 1996TIP3    H230184   2.565   0.134  17.676  1.2317 -2.2583  1.4394
 1997TIP3   OH230185   6.433   7.158  18.420  0.2169  0.0529 -0.1139
 1997TIP3    H130186   6.378   7.099  18.472 -0.4822  0.1046 -0.7768
 1997TIP3    H230187   6.522   7.127  18.435 -0.1357 -1.2449 -0.5299
 1998TIP3   OH230188   0.784   4.495  17.149  0.0602 -0.0230 -0.0880
 1998TIP3    H130189   0.839   4.426  17.111 -0.5627 -0.3737 -0.3746
 1998TIP3    H230190   0.762   4.552  17.075  1.3783  1.0679  0.3145
 1999TIP3   OH230191   1.829   6.295  18.287 -0.3887 -0.3117  0.0831
 1999TIP3    H130192   1.887   6.336  18.222 -1.8770  0.8193 -0.5817
 1999TIP3    H230193   1.852   6.338  18.370 -0.4735  0.3392 -0.2255
 2000TIP3   OH230194   6.329   6.054  19.087 -0.0335 -0.1843 -0.3264
 2000TIP3    H130195   6.379   6.021  19.013  1.7006  0.8909  0.3286
 2000TIP3    H230196   6.384   6.038  19.164 -0.7542  0.8918  0.4488
 2001TIP3   OH230197   4.456   5.919  19.092  0.3929  0.5550  0.3515
 2001TIP3    H130198   4.395   5.992  19.100  0.4732  0.7446 -0.6251
 2001TIP3    H230199   4.539   5.952  19.126  0.2808  0.7198  0.4634
 2002TIP3   OH230200   2.936   7.515  17.609 -0.6299  0.6247  0.0079
 2002TIP3    H130201   2.840   7.509  17.607 -0.6462 -3.7446  1.4881
 2002TIP3    H230202   2.962   7.449  17.673  3.4644  0.1645 -1.8186
 2003TIP3   OH230203   0.450   1.446  18.874 -0.2401 -0.4185 -0.3562
 2003TIP3    H130204   0.465   1.478  18.963 -1.0726 -0.4091 -0.2099
 2003TIP3    H230205   0.538   1.429  18.840  0.0619 -1.8577  0.9882
 2004TIP3   OH230206   5.800   4.954  17.461 -0.1369 -0.1778 -0.5209
 2004TIP3    H130207   5.720   4.904  17.447 -2.0701  2.4042  0.4713
 2004TIP3    H230208   5.790   4.992  17.548  3.0011 -1.0566  0.3412
 2005TIP3   OH230209   3.296   1.849  19.384 -0.3630  0.3073  0.3293
 2005TIP3    H130210   3.286   1.937  19.348  0.1187  0.0192 -0.5288
 2005TIP3    H230211   3.387   1.845  19.413  0.3127 -0.6509 -1.7464
 2006TIP3   OH230212   1.888   3.125  18.122  0.4877 -0.2771 -0.4518
 2006TIP3    H130213   1.925   3.213  18.125 -0.0406  0.0019 -1.5134
 2006TIP3    H230214   1.861   3.107  18.212  0.6670  0.6167 -0.2066
 2007TIP3   OH230215   2.525   3.085  16.674 -0.2709  0.2477 -0.0897
 2007TIP3    H130216   2.608   3.132  16.670 -0.8049  1.1416 -0.7707
 2007TIP3    H230217   2.516   3.043  16.589 -0.2977 -0.2574  0.1544
 2008TIP3   OH230218   7.096   5.125  18.877  0.4993 -0.6238  0.1091
 2008TIP3    H130219   7.153   5.145  18.951 -0.6926 -0.4449  1.0097
 2008TIP3    H230220   7.102   5.030  18.867  0.7259 -0.6372  0.3707
 2009TIP3   OH230221   2.427   6.743  18.647  0.4390  0.3687  0.1203
 2009TIP3    H130222   2.515   6.707  18.659  0.4149  0.8747  2.1423
 2009TIP3    H230223   2.402   6.716  18.559  2.0723 -0.9632  0.0186
 2010TIP3   OH230224   7.309   6.053  15.874  0.1067 -0.0157 -0.2231
 2010TIP3    H130225   7.331   6.030  15.783  1.3837 -0.6251  0.2141
 2010TIP3    H230226   7.292   6.147  15.872  1.4796  0.2419 -0.8688
 2011TIP3   OH230227   1.123   2.879  18.078 -0.0663 -0.8592 -0.2287
 2011TIP3    H130228   1.095   2.950  18.135 -0.7425 -1.4291  0.1655
 2011TIP3    H230229   1.087   2.902  17.992  1.5327  0.3511 -0.6329
 2012TIP3   OH230230   6.982   6.171  18.459 -0.4417 -0.2065 -0.2424
 2012TIP3    H130231   6.931   6.193  18.536  0.1998 -0.9375  0.4147
 2012TIP3    H230232   6.918   6.134  18.397 -0.8293 -0.3765  0.2565
 2013TIP3   OH230233   0.570   2.384  19.070  0.0257 -0.4438  0.1380
 2013TIP3    H130234   0.666   2.386  19.077 -0.0761  0.5731  2.4344
 2013TIP3    H230235   0.545   2.476  19.059 -0.7081 -0.5396  0.8723
 2014TIP3   OH230236   6.484   1.727  18.413  0.2295  0.1672  0.0191
 2014TIP3    H130237   6.414   1.682  18.366 -0.3364  0.1987  0.8102
 2014TIP3    H230238   6.559   1.725  18.353 -0.4606  0.1792 -0.8569
 2015TIP3   OH230239   2.489   2.272  17.052 -0.2469 -0.1931  0.1367
 2015TIP3    H130240   2.532   2.351  17.020 -0.1290 -0.8219 -1.3603
 2015TIP3    H230241   2.543   2.243  17.125 -0.4675  1.2514  0.9135
 2016TIP3   OH230242   4.600   4.860  19.206 -0.2671  0.1637  0.8444
 2016TIP3    H130243   4.538   4.930  19.187 -0.5352 -0.0949  0.7473
 2016TIP3    H230244   4.686   4.896  19.183 -0.4555  0.2871  0.3291
 2017TIP3   OH230245   3.267   6.247  19.080  0.4743  0.7095 -0.2204
 2017TIP3    H130246   3.276   6.152  19.089  0.0638  0.6725 -0.1750
 2017TIP3    H230247   3.217   6.273  19.157  1.7087  1.1457  0.4674
 2018TIP3   OH230248   6.104   2.346  19.627 -0.0367 -0.3517  0.0138
 2018TIP3    H130249   6.191   2.387  19.628  0.3512 -1.1565 -0.1885
 2018TIP3    H230250   6.100   2.301  19.543  0.0130 -1.7133  0.7159
 2019TIP3   OH230251   6.846   1.847  18.745 -0.1100 -0.0290 -0.3530
 2019TIP3    H130252   6.839   1.930  18.791  2.6713  0.1854 -0.1254
 2019TIP3    H230253   6.766   1.800  18.767 -0.3559  1.3599  2.0404
 2020TIP3   OH230254   1.576   0.030  19.082  0.0996  0.9097 -0.0539
 2020TIP3    H130255   1.610   0.090  19.149  0.4563  1.8192 -1.0113
 2020TIP3    H230256   1.489   0.064  19.062  0.0964  0.8025 -0.2219
 2021TIP3   OH230257   1.921   6.572  17.171 -0.7131  0.4474  0.0921
 2021TIP3    H130258   1.937   6.487  17.130 -0.0834  1.2694 -1.4760
 2021TIP3    H230259   1.943   6.635  17.103  0.4582  1.9138  1.7289
 2022TIP3   OH230260   0.624   0.036  18.674  0.6373 -0.6211  0.1214
 2022TIP3    H130261   0.661  -0.049  18.650  1.6397 -0.3189  0.5506
 2022TIP3    H230262   0.623   0.035  18.770  1.7021  0.2787  0.1500
 2023TIP3   OH230263   4.708   6.673  18.542 -0.1334  0.0171 -0.7556
 2023TIP3    H130264   4.635   6.615  18.565  0.6246 -0.3415  0.8805
 2023TIP3    H230265   4.667   6.747  18.497 -1.5481 -0.0271  0.3809
 2024TIP3   OH230266   7.099   2.231  17.273  0.2785  0.6196  0.2324
 2024TIP3    H130267   7.042   2.269  17.206  0.0392 -0.3673 -0.1432
 2024TIP3    H230268   7.064   2.143  17.287  2.0538 -0.2275 -0.4221
 2025TIP3   OH230269   4.434   7.034  18.086  0.3756  0.3039 -0.5878
 2025TIP3    H130270   4.436   7.015  18.180 -0.1353  1.8448 -0.2252
 2025TIP3    H230271   4.526   7.049  18.063  0.3128  2.3882  0.2754
 2026TIP3   OH230272   4.286   0.406  18.098 -0.0652 -0.2912 -0.9082
 2026TIP3    H130273   4.290   0.460  18.019 -1.6052 -0.3890 -1.0996
 2026TIP3    H230274   4.326   0.323  18.073  1.9940  0.6073 -0.7228
 2027TIP3   OH230275   4.320   7.406  17.546 -0.2975 -0.1572  1.0370
 2027TIP3    H130276   4.258   7.370  17.482  1.2182 -0.1171 -0.5188
 2027TIP3    H230277   4.332   7.497  17.519 -0.3389  0.1257  1.9527
 2028TIP3   OH230278   5.219   4.189  18.627  0.1290  0.3351 -0.3400
 2028TIP3    H130279   5.130   4.223  18.640 -0.7180 -1.5795 -0.6869
 2028TIP3    H230280   5.237   4.205  18.535 -0.8497 -1.2976 -0.8682
 2029TIP3   OH230281   0.810   4.823  17.532 -0.1876  0.3338  0.6248
 2029TIP3    H130282   0.901   4.850  17.539 -0.1717  0.1755  1.1371
 2029TIP3    H230283   0.759   4.901  17.553 -0.1393 -0.0684  2.4054
 2030TIP3   OH230284   5.538   1.183  17.850  0.0219  0.1122 -0.4011
 2030TIP3    H130285   5.584   1.229  17.919  0.2421  0.3142 -0.6808
 2030TIP3    H230286   5.569   1.223  17.769  0.5098 -0.7765 -0.6718
 2031TIP3   OH230287   6.244   2.646  17.484 -0.3209 -0.3828  0.5095
 2031TIP3    H130288   6.150   2.638  17.502 -0.5339 -0.9630 -0.7567
 2031TIP3    H230289   6.259   2.740  17.472 -0.6680 -0.2585  1.0199
 2032TIP3   OH230290   5.173   6.860  19.051  0.4962  0.4659  0.3879
 2032TIP3    H130291   5.151   6.800  19.123  2.9315 -0.0202  0.8093
 2032TIP3    H230292   5.125   6.825  18.976  1.6478 -1.9407  0.6781
 2033TIP3   OH230293   1.597   7.641  18.289 -0.0712 -0.3290 -0.1527
 2033TIP3    H130294   1.523   7.700  18.302 -0.8532 -1.3038 -0.0342
 2033TIP3    H230295   1.667   7.676  18.344  0.0750  1.4633 -1.4035
 2034TIP3   OH230296   2.820   7.041  17.481  0.4165 -0.9073 -0.5619
 2034TIP3    H130297   2.822   6.945  17.481 -1.7306 -0.9915 -1.0150
 2034TIP3    H230298   2.818   7.065  17.574  1.2688 -1.2755 -0.4411
 2035TIP3   OH230299   6.837   1.606  19.503 -0.3525  0.4456  0.3415
 2035TIP3    H130300   6.747   1.575  19.513 -0.3492  0.3073 -0.0354
 2035TIP3    H230301   6.891   1.538  19.542 -0.4077  0.5031  0.5196
 2036TIP3   OH230302   1.868   5.783  17.137 -0.2664  0.5389  0.1037
 2036TIP3    H130303   1.956   5.795  17.102 -0.8001 -0.1472 -1.5751
 2036TIP3    H230304   1.870   5.694  17.173 -0.1652  0.6750  0.4409
 2037TIP3   OH230305   6.024   0.814  18.877  0.3949 -0.7044  0.6783
 2037TIP3    H130306   6.108   0.819  18.923  0.2431  0.7685  0.8455
 2037TIP3    H230307   6.048   0.799  18.786  0.7498 -2.1712  0.9811
 2038TIP3   OH230308   0.317   1.560  19.475  0.3903 -0.6627  0.3373
 2038TIP3    H130309   0.374   1.486  19.454  0.6171 -0.8403  1.4971
 2038TIP3    H230310   0.269   1.531  19.553 -0.9037 -0.3110 -0.3043
 2039TIP3   OH230311   2.983   0.129  18.505  0.5578  0.2642  0.0617
 2039TIP3    H130312   2.899   0.103  18.468 -0.0820  2.7114 -0.3809
 2039TIP3    H230313   3.048   0.088  18.447 -0.3612  0.2742 -1.0154
 2040TIP3   OH230314   5.492   6.414  18.260  0.3806 -0.0235  0.6826
 2040TIP3    H130315   5.521   6.338  18.311  0.9136  0.4832  1.1422
 2040TIP3    H230316   5.542   6.487  18.296  0.0927  0.4949  0.0360
 2041TIP3   OH230317   1.230   6.167  18.820 -0.5659  0.7401 -0.1633
 2041TIP3    H130318   1.242   6.072  18.829 -1.9728  0.5662  0.2159
 2041TIP3    H230319   1.315   6.204  18.843 -0.7275 -0.3088  2.5886
 2042TIP3   OH230320   0.913   3.797  17.124  0.1975 -0.9248  0.2773
 2042TIP3    H130321   0.826   3.836  17.116  0.1542 -1.1686 -0.4407
 2042TIP3    H230322   0.923   3.780  17.218  0.2330  0.8321  0.6341
 2043TIP3   OH230323   3.250   5.667  17.647 -0.3985  0.7144 -0.5019
 2043TIP3    H130324   3.194   5.616  17.707 -0.5279  0.7678 -0.5755
 2043TIP3    H230325   3.296   5.729  17.704 -1.5480  1.7024 -0.6109
 2044TIP3   OH230326   3.412   0.650  16.472  0.2309  0.3337  0.4338
 2044TIP3    H130327   3.396   0.743  16.486  1.9405  0.7942 -0.4974
 2044TIP3    H230328   3.494   0.632  16.517  0.6680 -0.3840 -0.6024
 2045TIP3   OH230329   7.385   4.788  17.159 -0.0721 -0.1544 -0.5922
 2045TIP3    H130330   7.389   4.693  17.163 -0.0815 -0.2781 -2.5052
 2045TIP3    H230331   7.476   4.815  17.149 -0.0865  0.0218 -0.2389
 2046TIP3   OH230332   6.786   5.286  19.200  0.3451 -0.4431 -0.6970
 2046TIP3    H130333   6.825   5.321  19.280 -1.6236 -1.2266  0.6819
 2046TIP3    H230334   6.803   5.192  19.203  1.0770 -0.3661 -1.7252
 2047TIP3   OH230335   1.698   7.613  17.223  0.0363 -0.4526  0.0105
 2047TIP3    H130336   1.726   7.526  17.194  0.7296  0.0523 -0.9165
 2047TIP3    H230337   1.605   7.604  17.243 -0.7107 -0.7637 -3.0143
 2048TIP3   OH230338   6.125   5.109  18.728  0.3972  0.1746  0.4331
 2048TIP3    H130339   6.201   5.065  18.691  0.4170  1.4880 -1.2055
 2048TIP3    H230340   6.133   5.200  18.699 -2.3385  0.1319 -0.7589
 2049TIP3   OH230341   7.188   5.289  18.478 -0.5142 -0.0523 -0.1683
 2049TIP3    H130342   7.227   5.260  18.561 -0.0850  1.7806  0.3137
 2049TIP3    H230343   7.094   5.275  18.490 -0.3672 -0.8091  0.1926
 2050TIP3   OH230344   3.006   6.460  18.184 -0.7227  0.6623  0.2282
 2050TIP3    H130345   3.041   6.470  18.095 -2.8201  2.0475 -0.5114
 2050TIP3    H230346   3.042   6.377  18.215  3.5679  2.0708 -0.1919
 2051TIP3   OH230347   3.217   0.483  16.391  0.3765  0.1660 -0.2346
 2051TIP3    H130348   3.292   0.528  16.430  1.3109 -0.3148 -1.4091
 2051TIP3    H230349   3.174   0.440  16.464  1.2560  0.4480  0.4683
 2052TIP3   OH230350   5.109   6.760  19.659  0.8111  0.2311  0.0816
 2052TIP3    H130351   5.063   6.721  19.734  0.7780  0.4766  0.1889
 2052TIP3    H230352   5.179   6.697  19.639 -0.1349 -0.6025 -0.6702
 2053TIP3   OH230353   2.745   1.730  18.065  0.7645  0.2649 -0.4933
 2053TIP3    H130354   2.660   1.703  18.102 -0.0577  0.4398 -2.1884
 2053TIP3    H230355   2.800   1.652  18.072 -0.0504 -0.3508 -0.8324
 2054TIP3   OH230356   7.564   2.788  17.792 -0.1922 -0.7517  0.0814
 2054TIP3    H130357   7.470   2.788  17.774 -0.3390 -1.0325  0.8207
 2054TIP3    H230358   7.594   2.702  17.763 -0.3343 -1.0062  0.6719
 2055TIP3   OH230359   7.261   0.453  18.903  0.1717 -0.1398 -1.0163
 2055TIP3    H130360   7.329   0.422  18.843  1.3840  0.7320 -0.1235
 2055TIP3    H230361   7.181   0.454  18.849  1.0284 -0.3160 -2.3443
 2056TIP3   OH230362   3.993   6.762  18.405 -0.0061 -0.6633  0.6298
 2056TIP3    H130363   3.950   6.802  18.482 -1.3839 -1.4457  0.3058
 2056TIP3    H230364   3.967   6.818  18.332  1.2429  0.0363  0.6952
 2057TIP3   OH230365   6.669   1.122  17.498 -0.1481  0.4644  0.0662
 2057TIP3    H130366   6.675   1.068  17.419  1.5020 -0.3367  0.6798
 2057TIP3    H230367   6.589   1.173  17.487 -1.7306 -2.0023 -0.6357
 2058TIP3   OH230368   4.455   6.369  19.363 -0.1326  0.3671 -0.2633
 2058TIP3    H130369   4.545   6.397  19.351 -0.4558  0.6007 -2.6375
 2058TIP3    H230370   4.404   6.450  19.357 -0.7071 -0.0861 -2.4097
 2059TIP3   OH230371   5.088   1.345  17.623 -0.1763 -0.0301  0.1907
 2059TIP3    H130372   5.037   1.347  17.541 -1.1221  0.3868  0.7671
 2059TIP3    H230373   5.023   1.323  17.690  0.6580 -0.6887  0.7908
 2060TIP3   OH230374   5.322   0.996  19.375 -0.1646  0.1154 -0.1375
 2060TIP3    H130375   5.290   1.072  19.326 -0.0900  1.2199  1.4467
 2060TIP3    H230376   5.249   0.973  19.433  0.6237  0.4583  1.0240
 2061TIP3   OH230377   3.059   6.779  17.916 -0.5658  1.1176  0.4929
 2061TIP3    H130378   3.114   6.701  17.924 -0.4257  1.1207 -0.3700
 2061TIP3    H230379   2.973   6.745  17.889 -1.2449  1.0358  2.5780
 2062TIP3   OH230380   5.011   5.716  17.440  0.0807 -0.3703 -0.1236
 2062TIP3    H130381   4.966   5.631  17.441  1.6003 -1.2453  1.5347
 2062TIP3    H230382   4.972   5.765  17.512  0.8934 -0.6850  0.5597
 2063TIP3   OH230383   5.140   7.477  17.230 -0.0340  0.3646  0.0221
 2063TIP3    H130384   5.132   7.563  17.190 -1.3051  0.1830 -0.1838
 2063TIP3    H230385   5.215   7.483  17.288  0.1259  1.4856 -0.2927
 2064TIP3   OH230386   5.327   3.433  17.765 -0.0113  0.0812  0.0991
 2064TIP3    H130387   5.376   3.369  17.817  1.4420 -0.3231 -1.6505
 2064TIP3    H230388   5.345   3.516  17.808 -0.0931 -0.4059  1.1162
 2065TIP3   OH230389   3.189   2.689  19.105 -0.5375  0.4954  0.2425
 2065TIP3    H130390   3.164   2.748  19.176 -0.5519  0.7745  0.0116
 2065TIP3    H230391   3.161   2.735  19.026 -2.2318 -0.6668  0.1391
 2066TIP3   OH230392   6.245   0.219  19.362 -0.0219 -0.5196  0.2239
 2066TIP3    H130393   6.322   0.232  19.416 -1.3655  2.0968  1.6811
 2066TIP3    H230394   6.269   0.147  19.303  2.1945 -2.2714  2.9986
 2067TIP3   OH230395   4.052   0.259  19.169 -0.3340 -0.0560 -0.1127
 2067TIP3    H130396   4.144   0.278  19.151 -0.4890  0.1409 -0.7387
 2067TIP3    H230397   4.009   0.265  19.083 -1.0851  0.7543  0.2977
 2068TIP3   OH230398   6.941   1.593  19.038 -0.1295  0.1706  0.4778
 2068TIP3    H130399   7.012   1.530  19.025 -0.5517  0.0344 -1.4458
 2068TIP3    H230400   6.864   1.550  18.999 -0.0881  2.4894 -2.4753
 2069TIP3   OH230401   3.396   4.278  18.781  0.4023  0.5443  0.1547
 2069TIP3    H130402   3.441   4.336  18.720  1.3305 -1.2405 -0.9608
 2069TIP3    H230403   3.355   4.212  18.725  0.4620 -0.5955  1.4098
 2070TIP3   OH230404   0.353   1.393  18.060 -0.2251  0.2348 -0.1879
 2070TIP3    H130405   0.300   1.330  18.109  1.0279 -1.7418 -1.2380
 2070TIP3    H230406   0.326   1.381  17.969  2.8705 -1.9266 -0.9774
 2071TIP3   OH230407   0.558   5.011  18.915  0.7401 -0.0711 -0.0551
 2071TIP3    H130408   0.609   4.930  18.918  1.4215  0.3763  1.6748
 2071TIP3    H230409   0.624   5.081  18.918  0.1057  0.5282  0.1552
 2072TIP3   OH230410   2.440   6.703  18.384 -0.9027 -0.3945 -0.2954
 2072TIP3    H130411   2.519   6.746  18.349 -2.8612  2.5327 -1.5399
 2072TIP3    H230412   2.419   6.637  18.318 -0.8694  0.5823 -1.3345
 2073TIP3   OH230413   7.052   0.724  17.387  0.1310  0.1001 -0.1712
 2073TIP3    H130414   7.058   0.779  17.465  0.0197 -1.7291  1.2171
 2073TIP3    H230415   7.087   0.778  17.316 -1.1622  2.3792  0.8163
 2074TIP3   OH230416   1.031   1.059  19.108  0.1021  0.4461 -0.0538
 2074TIP3    H130417   1.075   1.144  19.105 -1.6696  1.4291  0.1448
 2074TIP3    H230418   0.997   1.054  19.198 -1.1920  0.2790 -0.5404
 2075TIP3   OH230419   4.226   0.206  17.582  0.1738  0.4068 -0.4492
 2075TIP3    H130420   4.153   0.177  17.527  0.8660 -0.9604 -0.6934
 2075TIP3    H230421   4.277   0.264  17.525 -0.4012  0.9083 -0.4620
 2076TIP3   OH230422   5.404   3.049  17.940 -0.2123  0.1118 -0.1955
 2076TIP3    H130423   5.463   3.038  17.866  0.3182 -1.2207  0.4017
 2076TIP3    H230424   5.321   3.012  17.911  0.2128 -1.1262  0.1255
 2077TIP3   OH230425   2.280   5.624  16.938 -0.0538  0.1957  0.2733
 2077TIP3    H130426   2.365   5.669  16.937 -0.2047  0.5463  1.5309
 2077TIP3    H230427   2.302   5.531  16.936  0.3164  0.2941 -0.5677
 2078TIP3   OH230428   4.275   4.218  17.688 -0.3396 -0.3192 -0.4991
 2078TIP3    H130429   4.224   4.222  17.607 -0.2755 -1.8094 -0.6413
 2078TIP3    H230430   4.366   4.225  17.659 -0.3855  2.7403 -0.2142
 2079TIP3   OH230431   4.048   3.859  18.560 -0.5465 -0.4220 -0.0182
 2079TIP3    H130432   4.083   3.942  18.590 -1.0343 -0.1705 -0.1386
 2079TIP3    H230433   3.983   3.835  18.625 -0.7873 -0.4438 -0.2670
 2080TIP3   OH230434   4.495   5.996  17.706 -0.2574 -0.3152 -0.2103
 2080TIP3    H130435   4.461   6.085  17.701 -3.8886 -1.3725  2.2638
 2080TIP3    H230436   4.418   5.941  17.716  1.9776 -3.4818  1.3984
 2081TIP3   OH230437   6.857   2.825  16.555  0.4036  0.1566  0.0716
 2081TIP3    H130438   6.856   2.902  16.612 -3.1742  1.9016 -1.9289
 2081TIP3    H230439   6.824   2.754  16.609  0.9927  0.7371  1.2162
 2082TIP3   OH230440   7.430   6.223  18.904 -0.0509  0.1489 -0.5426
 2082TIP3    H130441   7.465   6.254  18.820 -1.5398  0.7028 -0.9944
 2082TIP3    H230442   7.422   6.303  18.957  2.5544 -0.4036  0.8339
 2083TIP3   OH230443   4.236   5.239  17.448 -0.4366 -1.1662 -0.2445
 2083TIP3    H130444   4.265   5.249  17.539 -0.1810 -0.8560 -0.3593
 2083TIP3    H230445   4.220   5.145  17.438 -1.8264 -1.0440  0.5327
 2084TIP3   OH230446   0.134   4.071  19.192 -0.4813  0.0354 -0.0224
 2084TIP3    H130447   0.211   4.114  19.155 -1.4273  1.8697 -0.0035
 2084TIP3    H230448   0.108   4.006  19.126  1.2273 -0.8292  0.1150
 2085TIP3   OH230449   3.985   5.589  19.105  0.2334  0.2718 -0.0340
 2085TIP3    H130450   4.029   5.549  19.180  1.6230  1.7289 -0.0101
 2085TIP3    H230451   3.907   5.535  19.091  1.8778 -2.2677  0.0870
 2086TIP3   OH230452   3.350   5.795  19.688 -0.1496  0.0059 -0.1436
 2086TIP3    H130453   3.428   5.832  19.728 -0.4993 -1.9141  2.5496
 2086TIP3    H230454   3.308   5.869  19.644  2.3303  1.3965 -0.3428
 2087TIP3   OH230455   4.102   7.331  19.343  0.0600 -0.0428  0.1847
 2087TIP3    H130456   4.063   7.357  19.259 -0.9524 -0.3377  0.5532
 2087TIP3    H230457   4.081   7.402  19.403  1.3865  0.5026  0.0420
 2088TIP3   OH230458   6.319   6.408  17.062 -0.1145 -0.5253 -0.0159
 2088TIP3    H130459   6.392   6.376  17.009  0.6238  0.4850  0.3623
 2088TIP3    H230460   6.241   6.370  17.021  0.3990  0.5205 -2.0755
 2089TIP3   OH230461   5.027   6.099  17.212  0.1327  0.2653  0.1464
 2089TIP3    H130462   5.075   6.026  17.252  0.3963 -0.3616 -1.2479
 2089TIP3    H230463   5.030   6.081  17.118 -2.5812  0.3383 -0.0389
 2090TIP3   OH230464   6.121   2.712  19.409  0.3354  0.1885 -0.0193
 2090TIP3    H130465   6.085   2.796  19.435  1.6432  0.2221  1.8681
 2090TIP3    H230466   6.059   2.647  19.444  0.4178  0.3226  0.3812
 2091TIP3   OH230467   6.977   4.965  18.505  0.1956  0.2856 -0.2056
 2091TIP3    H130468   6.960   5.056  18.533 -2.4324  0.1364 -1.0483
 2091TIP3    H230469   7.016   4.974  18.418  0.4992  0.5911 -0.0456
 2092TIP3   OH230470   7.653   2.832  16.999  0.4335 -0.5994  0.5593
 2092TIP3    H130471   7.582   2.807  16.940  1.9104  0.6943 -1.8883
 2092TIP3    H230472   7.654   2.927  16.997  2.9190 -0.5722 -0.4277
 2093TIP3   OH230473   1.252   1.574  17.195  0.3255  0.2713  0.0290
 2093TIP3    H130474   1.220   1.664  17.206  0.5934  0.1244  2.6217
 2093TIP3    H230475   1.344   1.578  17.222  0.5004 -0.7044 -0.3763
 2094TIP3   OH230476   3.909   3.320  17.540 -0.6214  0.3845 -0.2628
 2094TIP3    H130477   3.855   3.254  17.584 -0.8967  1.7973  1.6564
 2094TIP3    H230478   3.962   3.357  17.610 -0.5813  2.3058 -1.2539
 2095TIP3   OH230479   0.624   0.727  18.160 -0.4803  0.3243  0.2705
 2095TIP3    H130480   0.570   0.784  18.215 -0.8055  0.3662 -0.0854
 2095TIP3    H230481   0.623   0.642  18.204 -2.3069 -0.1779 -0.6323
 2096TIP3   OH230482   5.441   2.036  19.101 -0.3061  0.0070  0.1336
 2096TIP3    H130483   5.456   2.074  19.015  1.6185 -1.1646 -0.0866
 2096TIP3    H230484   5.377   1.967  19.086 -0.9173  0.6039 -0.1051
 2097TIP3   OH230485   3.649   0.851  18.714 -0.5661  0.3311 -0.6090
 2097TIP3    H130486   3.653   0.785  18.644 -0.7530  0.3592 -0.6461
 2097TIP3    H230487   3.712   0.918  18.687  2.1169 -1.3516  1.0110
 2098TIP3   OH230488   5.185   5.865  18.642  0.3722  0.0897 -0.6148
 2098TIP3    H130489   5.237   5.806  18.697  0.6221  1.7912  1.0704
 2098TIP3    H230490   5.165   5.813  18.564  0.3746 -2.3041  0.8547
 2099TIP3   OH230491   6.726   5.954  19.338 -0.3016 -0.2896 -0.0574
 2099TIP3    H130492   6.790   5.903  19.289  0.7640  0.1836  0.8156
 2099TIP3    H230493   6.778   6.018  19.387 -1.6177  3.1986 -2.7300
 2100TIP3   OH230494   0.141   3.100  18.342 -0.1712 -0.2572 -0.4697
 2100TIP3    H130495   0.213   3.149  18.383 -0.0798 -0.5415 -0.2817
 2100TIP3    H230496   0.185   3.028  18.296 -0.3533 -0.6576 -0.0356
 2101TIP3   OH230497   6.210   6.875  18.084  0.8284  0.0660  0.6476
 2101TIP3    H130498   6.229   6.880  18.178 -1.6890  2.9454  1.1604
 2101TIP3    H230499   6.278   6.929  18.043  0.9330  0.2197  1.0214
 2102TIP3   OH230500   7.575   0.486  18.348  0.4595  0.1589  0.5810
 2102TIP3    H130501   7.658   0.456  18.310 -0.1070 -1.3293  0.4603
 2102TIP3    H230502   7.536   0.407  18.385 -1.1902  0.7226  0.1177
 2103TIP3   OH230503   4.433   1.155  18.087  0.0616 -0.3164 -0.4259
 2103TIP3    H130504   4.351   1.157  18.037 -1.1160 -1.4521  1.3743
 2103TIP3    H230505   4.454   1.063  18.096  0.8123 -0.0894  0.2875
 2104TIP3   OH230506   5.175   0.886  18.049  0.0161 -0.2564  0.2144
 2104TIP3    H130507   5.167   0.953  17.982 -0.4799  1.7484  2.1404
 2104TIP3    H230508   5.269   0.881  18.068  0.0028  0.2702  0.4158
 2105TIP3   OH230509   5.248   0.498  19.244 -0.3338  0.0480 -0.4655
 2105TIP3    H130510   5.332   0.531  19.278 -0.7164 -0.5177  1.0950
 2105TIP3    H230511   5.242   0.409  19.278 -1.1242 -0.2650 -1.4024
 2106TIP3   OH230512   6.425   4.541  18.327  0.0216  0.4234  0.0228
 2106TIP3    H130513   6.484   4.571  18.258  0.0245 -0.4431 -0.3563
 2106TIP3    H230514   6.416   4.447  18.312  0.5311  0.0985  1.5865
 2107TIP3   OH230515   1.048   6.376  17.625  0.0073  0.1045  0.7653
 2107TIP3    H130516   1.033   6.421  17.708  0.1683 -0.0056  0.8542
 2107TIP3    H230517   1.126   6.418  17.589  0.4488 -0.4347  1.0812
 2108TIP3   OH230518   1.234   1.033  17.314  0.4846  0.4324  0.0821
 2108TIP3    H130519   1.248   1.127  17.301  0.5116  0.4963  0.5572
 2108TIP3    H230520   1.230   0.997  17.226 -0.0289  0.9549 -0.1140
 2109TIP3   OH230521   2.206   3.107  18.994  0.0994  0.0699 -0.1096
 2109TIP3    H130522   2.241   3.184  19.039 -0.3757  1.1709 -1.5452
 2109TIP3    H230523   2.155   3.061  19.060  0.5938  0.8501  0.8382
 2110TIP3   OH230524   0.462   6.045  17.020  0.4668  0.6982 -0.0708
 2110TIP3    H130525   0.457   5.992  16.941  1.7263  1.6941 -0.8744
 2110TIP3    H230526   0.507   5.989  17.083  1.3044  0.6015 -0.7303
 2111TIP3   OH230527   5.664   2.344  18.770 -0.2475  0.0418 -0.1489
 2111TIP3    H130528   5.715   2.425  18.774 -2.2137  1.3567 -0.4057
 2111TIP3    H230529   5.688   2.305  18.686  1.6800 -0.3874  0.5272
 2112TIP3   OH230530   4.984   0.540  18.710  0.4213 -0.5845  0.5051
 2112TIP3    H130531   5.017   0.617  18.757 -0.4281 -0.8941  1.6600
 2112TIP3    H230532   4.913   0.573  18.655  1.8411 -0.1081 -1.1263
 2113TIP3   OH230533   4.776   3.588  18.487  0.6586  0.0740 -0.5932
 2113TIP3    H130534   4.690   3.620  18.514  0.2076 -0.6808 -1.1066
 2113TIP3    H230535   4.790   3.511  18.542  1.0052  0.1899 -0.5210
 2114TIP3   OH230536   0.771   1.858  17.619  0.6419  0.3296  0.1992
 2114TIP3    H130537   0.718   1.886  17.694  0.5227 -0.3548  0.3853
 2114TIP3    H230538   0.813   1.777  17.648  1.4238  0.6121 -0.1178
 2115TIP3   OH230539   4.846   1.423  18.671 -0.5415 -0.0210  0.1674
 2115TIP3    H130540   4.905   1.419  18.596 -0.0477  0.4712  0.5296
 2115TIP3    H230541   4.878   1.355  18.730 -0.8133 -0.2766  0.0262
 2116TIP3   OH230542   5.149   7.452  18.762  0.2517  0.2853  0.1159
 2116TIP3    H130543   5.141   7.482  18.671  0.8821  0.5663  0.1466
 2116TIP3    H230544   5.080   7.386  18.772  1.0450 -0.7593 -0.9815
 2117TIP3   OH230545   0.086   3.304  17.335 -0.0679 -0.8690 -0.7371
 2117TIP3    H130546   0.032   3.383  17.334  2.0404  0.6816 -0.1217
 2117TIP3    H230547   0.077   3.267  17.248 -1.4262 -0.1886 -0.9056
 2118TIP3   OH230548   7.401   1.318  19.426  0.4578  0.3353  0.3308
 2118TIP3    H130549   7.467   1.322  19.356  1.2619 -1.6135  0.9108
 2118TIP3    H230550   7.336   1.257  19.393  0.8869 -0.6697  1.2833
 2119TIP3   OH230551   2.237   1.352  18.367 -0.3348  0.6752  0.1682
 2119TIP3    H130552   2.278   1.405  18.434  1.1742  1.4713 -1.3052
 2119TIP3    H230553   2.195   1.280  18.415  2.3382  0.0952  1.8458
 2120TIP3   OH230554   1.989   4.082  18.739  0.6025  0.1165  0.1695
 2120TIP3    H130555   2.021   4.158  18.787 -0.6898  0.7583  0.0541
 2120TIP3    H230556   1.945   4.119  18.662  1.2216 -0.8210 -0.6496
 2121TIP3   OH230557   0.436   2.772  18.708  0.4821 -0.6731  0.3574
 2121TIP3    H130558   0.345   2.768  18.738  0.0570  1.3076 -0.5219
 2121TIP3    H230559   0.450   2.864  18.686  2.6048 -1.0069  0.1246
 2122TIP3   OH230560   0.526   2.999  18.857 -0.1466 -0.0710 -0.5155
 2122TIP3    H130561   0.597   3.026  18.916  0.0205  2.3917 -1.7244
 2122TIP3    H230562   0.462   2.957  18.915  0.4379  1.3938  1.2801
 2123TIP3   OH230563   3.304   0.205  18.296  0.2189  0.2680  0.4158
 2123TIP3    H130564   3.388   0.202  18.250 -0.0704  3.1183 -0.4699
 2123TIP3    H230565   3.247   0.146  18.245  1.1641 -0.2814 -0.0391
 2124TIP3   OH230566   4.896   7.509  18.597 -0.6032  0.0821  0.0129
 2124TIP3    H130567   4.976   7.507  18.544 -0.3971 -0.2025  0.3320
 2124TIP3    H230568   4.842   7.576  18.555  0.1037  0.8081  0.2117
 2125TIP3   OH230569   2.301   4.650  18.601  0.8714 -0.1152 -1.0226
 2125TIP3    H130570   2.382   4.640  18.650  0.0101 -0.2444  0.4054
 2125TIP3    H230571   2.265   4.734  18.630 -0.8875 -1.3199  0.4808
 2126TIP3   OH230572   6.404   1.138  18.434 -0.4228  0.0730  0.2336
 2126TIP3    H130573   6.474   1.192  18.398 -0.8857  0.7355  0.3165
 2126TIP3    H230574   6.347   1.199  18.481  1.2502 -0.9397  3.9482
 2127TIP3   OH230575   3.290   0.049  16.352 -0.0363  0.6624 -0.4947
 2127TIP3    H130576   3.347   0.119  16.321  0.1062  0.3156 -1.0369
 2127TIP3    H230577   3.202   0.086  16.348 -0.3103 -0.0596 -3.5184
 2128TIP3   OH230578   5.906   6.241  18.082 -0.1145  0.7830  0.0359
 2128TIP3    H130579   5.831   6.187  18.060  0.7565  0.2921 -1.8459
 2128TIP3    H230580   5.955   6.189  18.146  0.2597 -0.2798 -1.0990
 2129TIP3   OH230581   2.648   1.706  18.811 -0.4731 -0.2738  0.0281
 2129TIP3    H130582   2.555   1.717  18.830 -0.6963 -2.0995  0.1801
 2129TIP3    H230583   2.688   1.693  18.897 -0.3188 -0.9294 -0.1354
 2130TIP3   OH230584   5.524   5.925  17.114  0.2182  0.0184 -0.3766
 2130TIP3    H130585   5.490   6.014  17.128 -0.7039 -0.3955  0.1366
 2130TIP3    H230586   5.450   5.877  17.078  0.3844 -0.7991  0.3354
 2131TIP3   OH230587   1.523   1.663  17.221 -0.0513 -0.3376 -0.3713
 2131TIP3    H130588   1.477   1.746  17.211  0.7756 -0.0188 -1.7557
 2131TIP3    H230589   1.559   1.645  17.134  2.7311 -0.3959  0.6944
 2132TIP3   OH230590   4.575   4.982  17.117 -0.0586  0.3365 -0.7477
 2132TIP3    H130591   4.609   5.065  17.151 -1.0800  0.0539  1.1454
 2132TIP3    H230592   4.551   4.932  17.196 -0.6579 -1.2359 -1.8712
 2133TIP3   OH230593   5.204   6.230  18.736 -0.1199 -0.2889  0.0750
 2133TIP3    H130594   5.275   6.219  18.672  0.3985  1.7944  0.2044
 2133TIP3    H230595   5.128   6.187  18.696  0.5971 -0.4205 -1.2008
 2134TIP3   OH230596   4.893   0.945  18.558  0.4506  0.2574  0.3330
 2134TIP3    H130597   4.875   1.035  18.532  1.0137  0.4171  0.4911
 2134TIP3    H230598   4.982   0.928  18.527 -0.5653 -1.1394 -2.1646
 2135TIP3   OH230599   3.363   7.649  18.996 -0.6522 -0.1307 -0.2807
 2135TIP3    H130600   3.316   7.665  18.914 -3.9102  0.2962  1.4979
 2135TIP3    H230601   3.419   7.726  19.007 -2.1908  1.1173 -0.8375
 2136TIP3   OH230602   4.998   3.748  18.424 -0.8423 -0.5544 -0.3028
 2136TIP3    H130603   5.015   3.809  18.496 -0.5749  0.8457 -1.5083
 2136TIP3    H230604   4.914   3.708  18.446 -1.4532  0.8851  0.1294
 2137TIP3   OH230605   5.567   3.662  17.815 -0.4677  0.5736  0.0365
 2137TIP3    H130606   5.518   3.635  17.893  0.2212  1.8736  0.9687
 2137TIP3    H230607   5.530   3.747  17.793  0.7322  1.1699  0.2251
 2138TIP3   OH230608   0.113   1.921  18.105 -0.2428  0.0430 -0.2514
 2138TIP3    H130609   0.131   2.008  18.068  0.8132  0.2889  0.7696
 2138TIP3    H230610   0.097   1.865  18.029  1.1402  0.6768 -1.0531
 2139TIP3   OH230611   6.864   5.555  17.908  0.0201  0.7196  0.3147
 2139TIP3    H130612   6.907   5.641  17.909  1.8430 -0.1462  1.1153
 2139TIP3    H230613   6.919   5.500  17.964 -0.6750 -1.1679 -0.7518
 2140TIP3   OH230614   2.655   3.738  17.240  0.5534 -0.0603  0.3365
 2140TIP3    H130615   2.603   3.671  17.195  0.4851  0.7863 -0.8932
 2140TIP3    H230616   2.590   3.796  17.280  0.5943 -0.1390  0.5174
 2141TIP3   OH230617   4.816   2.897  17.838  0.3533 -0.7386  0.3372
 2141TIP3    H130618   4.760   2.824  17.865 -2.1615  0.0447 -2.2609
 2141TIP3    H230619   4.765   2.975  17.860  1.6040  0.1354  0.1952
 2142TIP3   OH230620   0.890   3.936  19.141  0.3835  0.0852  0.3779
 2142TIP3    H130621   0.960   3.871  19.143  1.0648  0.8178  0.6519
 2142TIP3    H230622   0.810   3.884  19.138  0.9318 -0.7657 -0.0727
 2143TIP3   OH230623   6.477   4.552  16.836  0.2998  0.5082  0.0718
 2143TIP3    H130624   6.502   4.460  16.833 -0.9474  0.0440  1.9396
 2143TIP3    H230625   6.528   4.588  16.909  0.6083  1.2472 -0.5003
 2144TIP3   OH230626   1.091   5.749  18.131  0.2873 -0.5104  0.0431
 2144TIP3    H130627   1.032   5.788  18.066  1.1671 -0.2513 -0.6246
 2144TIP3    H230628   1.045   5.757  18.214 -0.3068  0.3418 -0.3540
 2145TIP3   OH230629   2.668   6.803  18.283  0.1441 -0.3929  0.5092
 2145TIP3    H130630   2.626   6.880  18.245  0.1899 -0.5095  0.2238
 2145TIP3    H230631   2.756   6.833  18.306  0.4837 -0.6180 -0.4771
 2146TIP3   OH230632   3.695   0.068  17.376 -0.5004  0.3478 -0.4788
 2146TIP3    H130633   3.761   0.123  17.334  0.9474 -0.1095  1.0533
 2146TIP3    H230634   3.705  -0.017  17.334 -2.5100  1.0701 -2.6135
 2147TIP3   OH230635   7.590   1.164  18.582  0.2759 -0.1142 -0.2853
 2147TIP3    H130636   7.586   1.106  18.658 -0.2183  3.0509  2.3159
 2147TIP3    H230637   7.675   1.208  18.589 -0.1463  0.8809 -1.0443
 2148TIP3   OH230638   1.191   6.704  19.035 -0.2465 -0.1804  0.3449
 2148TIP3    H130639   1.102   6.739  19.031  0.0314  0.4730 -0.5688
 2148TIP3    H230640   1.182   6.613  19.010 -0.5608  0.0981 -0.5890
 2149TIP3   OH230641   2.204   6.909  18.649  0.6774  0.5451 -0.6099
 2149TIP3    H130642   2.126   6.853  18.659  1.4543 -0.4130  0.3681
 2149TIP3    H230643   2.276   6.847  18.637  1.3271  1.4164 -1.3712
 2150TIP3   OH230644   0.880   7.223  17.538 -0.1257  0.0654  0.0635
 2150TIP3    H130645   0.972   7.199  17.532 -0.5762 -2.5213  1.8625
 2150TIP3    H230646   0.880   7.311  17.577  1.5480 -0.1668  0.6322
 2151TIP3   OH230647   7.185   7.489  19.323 -0.1271  0.0639  0.2158
 2151TIP3    H130648   7.216   7.399  19.316  1.3084  0.5210  0.1560
 2151TIP3    H230649   7.097   7.483  19.360  0.0549 -1.3353  0.4532
 2152TIP3   OH230650   4.948   4.438  19.238  0.0989  0.7879  0.0094
 2152TIP3    H130651   4.868   4.386  19.231  0.1195  1.0079 -3.1609
 2152TIP3    H230652   5.011   4.378  19.278 -0.9640 -0.2207  0.2449
 2153TIP3   OH230653   4.733   2.381  17.782 -0.3971  0.2934 -0.4328
 2153TIP3    H130654   4.806   2.320  17.767 -0.1258 -0.0121  1.7829
 2153TIP3    H230655   4.678   2.371  17.705  1.6982  0.2572 -2.0096
 2154TIP3   OH230656   0.836   6.992  18.408  0.4136 -0.7214 -0.1428
 2154TIP3    H130657   0.924   6.963  18.431  0.6564 -0.7601 -1.0752
 2154TIP3    H230658   0.782   6.913  18.418  0.6310 -0.8986 -0.3437
 2155TIP3   OH230659   7.671   2.210  18.086  0.1289 -0.3732  0.3731
 2155TIP3    H130660   7.639   2.215  18.176 -1.6118  1.9222 -0.2687
 2155TIP3    H230661   7.592   2.212  18.032  1.1564 -1.0451 -1.2257
 2156TIP3   OH230662   1.109   5.294  19.075 -0.3260 -0.0214 -0.3578
 2156TIP3    H130663   1.188   5.244  19.056 -0.2026 -0.0299  0.1553
 2156TIP3    H230664   1.077   5.321  18.989 -0.9376 -1.7817 -0.7217
 2157TIP3   OH230665   0.762   6.971  17.832 -0.1121 -0.6442  0.0682
 2157TIP3    H130666   0.782   6.883  17.864 -0.6616 -0.4679  0.9383
 2157TIP3    H230667   0.724   6.957  17.746  0.9072 -1.1718 -0.3191
 2158TIP3   OH230668   1.998   0.923  18.656 -0.0831  0.0384 -0.4735
 2158TIP3    H130669   1.955   0.962  18.732  0.0122 -1.3016  0.2964
 2158TIP3    H230670   1.940   0.851  18.630  0.8341 -0.7246 -0.4655
 2159TIP3   OH230671   4.740   4.642  17.597  0.5417 -0.4166 -0.4955
 2159TIP3    H130672   4.808   4.633  17.665 -1.3567 -2.2810  1.3039
 2159TIP3    H230673   4.776   4.598  17.521  1.4968 -1.0775  0.3101
 2160TIP3   OH230674   1.204   6.735  18.406  0.3356  0.5375  0.1891
 2160TIP3    H130675   1.116   6.716  18.439  0.5369 -1.4307 -0.2880
 2160TIP3    H230676   1.212   6.830  18.414 -0.4481  0.4659  3.6847
 2161TIP3   OH230677   5.488   0.497  17.290  0.1538 -0.3494 -0.4779
 2161TIP3    H130678   5.398   0.516  17.264  0.1418 -0.6989 -0.6917
 2161TIP3    H230679   5.532   0.582  17.286 -0.7006  0.2784  1.8370
 2162TIP3   OH230680   3.479   6.600  18.909  0.3251  0.0361 -0.2988
 2162TIP3    H130681   3.502   6.507  18.905 -1.6586 -0.4617 -1.3905
 2162TIP3    H230682   3.411   6.605  18.976 -0.3096  0.5202 -0.9686
 2163TIP3   OH230683   5.611   1.986  19.361 -0.0041 -0.0357 -0.2246
 2163TIP3    H130684   5.687   2.027  19.401  0.0460 -0.6610  0.3367
 2163TIP3    H230685   5.601   2.031  19.277  1.6938 -0.7331 -0.8475
 2164TIP3   OH230686   1.481   0.316  17.905  0.1323 -0.3165 -0.1417
 2164TIP3    H130687   1.536   0.349  17.976 -1.1378 -1.1942  1.2888
 2164TIP3    H230688   1.484   0.385  17.839 -1.1293  1.9975  2.0537
 2165TIP3   OH230689   7.549   4.168  19.044  0.0906  0.8628 -0.1229
 2165TIP3    H130690   7.476   4.151  19.103  0.1759  0.9403  0.0074
 2165TIP3    H230691   7.624   4.182  19.103  0.4239 -0.1824 -0.2811
 2166TIP3   OH230692   5.196   2.028  16.916  0.0429  0.0098  0.1657
 2166TIP3    H130693   5.237   2.006  16.999 -1.3701  0.6020  1.0669
 2166TIP3    H230694   5.131   2.095  16.938 -1.2069 -0.6826 -1.2004
 2167TIP3   OH230695   2.498   1.995  17.911  0.1463  0.2027 -0.1680
 2167TIP3    H130696   2.501   1.960  18.000  1.3567 -0.3324 -0.4004
 2167TIP3    H230697   2.474   2.087  17.922  0.9415  0.3166  0.7629
 2168TIP3   OH230698   6.589   4.495  19.299  0.0132 -0.0433  0.4096
 2168TIP3    H130699   6.566   4.432  19.230  2.9455 -1.1326  0.2805
 2168TIP3    H230700   6.537   4.468  19.375 -1.1194 -0.6322 -0.5466
 2169TIP3   OH230701   3.807   4.681  19.125 -0.3474  0.0378  0.1071
 2169TIP3    H130702   3.768   4.717  19.046 -0.5172 -0.2911  0.0395
 2169TIP3    H230703   3.761   4.598  19.140  0.3477 -0.3797 -0.0025
 2170TIP3   OH230704   1.238   3.704  16.999 -0.1776  0.2029  0.2885
 2170TIP3    H130705   1.265   3.699  17.090 -0.8721  1.1809  0.5623
 2170TIP3    H230706   1.306   3.757  16.957 -0.1976  0.3031  0.3818
 2171TIP3   OH230707   3.316   2.914  18.633  0.5279 -0.1262 -0.6272
 2171TIP3    H130708   3.277   2.943  18.716  1.1088  0.0973 -0.4266
 2171TIP3    H230709   3.407   2.896  18.655  0.9245  0.8352 -1.4190
 2172TIP3   OH230710   2.498   3.685  18.417  0.0768  0.0883  0.1597
 2172TIP3    H130711   2.576   3.651  18.374  0.8312  1.2268  0.6034
 2172TIP3    H230712   2.521   3.773  18.444 -0.7379 -0.1905  1.9280
 2173TIP3   OH230713   5.554   5.462  17.827 -0.5016  0.0317  0.2427
 2173TIP3    H130714   5.634   5.417  17.855 -0.3323 -0.3349 -0.7639
 2173TIP3    H230715   5.485   5.427  17.883 -0.6096 -2.4632 -1.2683
 2174TIP3   OH230716   3.125   0.055  17.830 -0.0214 -0.0446  0.1791
 2174TIP3    H130717   3.029   0.058  17.837 -0.1361 -0.2999 -1.0931
 2174TIP3    H230718   3.148  -0.031  17.864 -0.3354 -0.3682 -0.4203
 2175TIP3   OH230719   2.664   6.175  18.590 -0.1673 -0.7045  0.6836
 2175TIP3    H130720   2.752   6.212  18.584 -0.5187 -0.0017 -0.4799
 2175TIP3    H230721   2.607   6.250  18.607 -0.5017 -1.2140  1.8718
 2176TIP3   OH230722   1.824   0.703  17.879 -0.2952  0.1316  0.3554
 2176TIP3    H130723   1.799   0.752  17.801 -2.4139 -3.6974 -1.6405
 2176TIP3    H230724   1.751   0.715  17.940  0.2697  1.2150  0.8483
 2177TIP3   OH230725   2.437   3.403  17.007 -0.0778 -0.0185 -0.2953
 2177TIP3    H130726   2.498   3.361  17.068  0.9669  0.2805 -1.1046
 2177TIP3    H230727   2.461   3.496  17.008 -0.9885  0.2266 -0.0999
 2178TIP3   OH230728   2.661   2.798  18.436  0.4125 -0.9186  0.0002
 2178TIP3    H130729   2.706   2.778  18.354 -2.4678 -1.9512 -1.4789
 2178TIP3    H230730   2.646   2.893  18.432  3.1007 -0.3411  1.0177
 2179TIP3   OH230731   5.768   4.544  18.117  0.3035 -0.0356  0.0932
 2179TIP3    H130732   5.810   4.629  18.130 -1.2860  0.9387 -0.8268
 2179TIP3    H230733   5.817   4.503  18.046  0.5382  0.4967 -0.0564
 2180TIP3   OH230734   6.094   0.437  17.463  0.4502 -0.4796 -0.3349
 2180TIP3    H130735   6.135   0.522  17.478  0.6949 -0.6755  0.1125
 2180TIP3    H230736   6.162   0.374  17.484  0.8785 -0.7828 -2.3759
 2181TIP3   OH230737   5.679   7.424  18.199 -0.2412  0.4659  0.0370
 2181TIP3    H130738   5.623   7.473  18.138  0.8958  1.3650 -0.3254
 2181TIP3    H230739   5.693   7.340  18.156  1.2054  1.3713 -1.4112
 2182TIP3   OH230740   4.222   5.175  19.202  0.1364 -0.1865 -0.0292
 2182TIP3    H130741   4.144   5.135  19.162 -0.7106 -1.0186  2.2581
 2182TIP3    H230742   4.201   5.268  19.207  1.1109  0.3260 -3.1908
 2183TIP3   OH230743   2.446   4.339  19.221  0.1646  0.6670 -0.0913
 2183TIP3    H130744   2.465   4.390  19.143  2.2724 -1.5694 -1.1981
 2183TIP3    H230745   2.526   4.345  19.274 -0.1421 -0.1344  0.4897
 2184TIP3   OH230746   0.199   7.564  17.600  0.3464  0.0983 -0.4204
 2184TIP3    H130747   0.282   7.518  17.586  0.8865  0.8566  0.1732
 2184TIP3    H230748   0.207   7.646  17.551 -0.0363  0.1971 -0.3259
 2185TIP3   OH230749   3.873   6.025  17.245  0.6711  0.6810 -0.0517
 2185TIP3    H130750   3.932   6.099  17.230  0.4002  0.8112 -0.4838
 2185TIP3    H230751   3.876   5.975  17.163 -0.8306  1.4066 -0.5794
 2186TIP3   OH230752   2.511   7.421  19.048  1.0243  0.2099  0.3396
 2186TIP3    H130753   2.440   7.486  19.054  0.2602 -0.7018  1.4628
 2186TIP3    H230754   2.492   7.373  18.968 -0.0760 -0.5177  1.0170
 2187TIP3   OH230755   4.951   4.780  18.963 -0.0369 -0.1044  0.0535
 2187TIP3    H130756   5.026   4.837  18.980 -0.5841  0.4805  0.5373
 2187TIP3    H230757   4.933   4.737  19.047 -1.3405  1.0956  0.4216
 2188TIP3   OH230758   6.917   0.328  19.159 -0.4103  0.5791 -0.4113
 2188TIP3    H130759   6.853   0.256  19.159 -0.6203  0.7538  0.3094
 2188TIP3    H230760   6.873   0.399  19.204 -1.0509  1.9763 -3.0702
 2189TIP3   OH230761   5.109   1.872  19.499 -0.5882  0.1658 -0.1639
 2189TIP3    H130762   5.195   1.914  19.498 -0.0078 -0.9116  1.4281
 2189TIP3    H230763   5.060   1.919  19.567  0.0782 -1.6539  1.6580
 2190TIP3   OH230764   6.025   4.334  17.147 -0.5320  0.0791  0.0388
 2190TIP3    H130765   6.112   4.340  17.106 -1.2699  0.0744 -1.6055
 2190TIP3    H230766   6.043   4.313  17.238  1.3780  3.8957  0.7356
 2191TIP3   OH230767   7.270   2.182  19.124  0.9593  0.2904  0.2119
 2191TIP3    H130768   7.277   2.092  19.157 -1.2753  0.4737  1.3613
 2191TIP3    H230769   7.210   2.176  19.050  0.8499  0.8413  0.2518
 2192TIP3   OH230770   4.745   6.952  19.471  0.0893  0.0510 -0.3719
 2192TIP3    H130771   4.704   7.039  19.463 -0.4139 -0.2030 -0.6185
 2192TIP3    H230772   4.783   6.936  19.385  0.7722  0.3094 -0.1261
 2193TIP3   OH230773   5.988   0.586  18.523  0.1253 -0.1394  0.7722
 2193TIP3    H130774   5.994   0.507  18.468  0.7773  1.5056 -1.6748
 2193TIP3    H230775   6.051   0.570  18.593  0.8794 -1.4485 -0.1440
 2194TIP3   OH230776   7.031   5.098  16.185  0.0170 -0.0326  0.4621
 2194TIP3    H130777   7.040   5.192  16.200 -0.5067  0.4023 -1.6721
 2194TIP3    H230778   6.961   5.071  16.245 -0.9859  1.2943 -0.0451
 2195TIP3   OH230779   6.582   4.743  17.590 -0.7015 -0.7671 -0.1273
 2195TIP3    H130780   6.492   4.736  17.558 -0.2609 -1.0792 -1.3775
 2195TIP3    H230781   6.623   4.807  17.531  0.0251 -1.0084  0.1090
 2196TIP3   OH230782   7.096   0.259  19.444  0.0691  0.0245  0.1031
 2196TIP3    H130783   7.096   0.188  19.379  1.7399  1.0471 -1.0844
 2196TIP3    H230784   7.140   0.222  19.520 -0.7277 -0.7667  0.2043
 2197TIP3   OH230785   1.127   3.248  18.452 -0.0871 -1.0574 -0.7883
 2197TIP3    H130786   1.193   3.183  18.478  0.6808  0.0705  0.2189
 2197TIP3    H230787   1.120   3.239  18.357  1.9410 -0.8768 -0.9964
 2198TIP3   OH230788   1.802   2.763  17.469 -0.3410 -0.4621 -0.6614
 2198TIP3    H130789   1.708   2.759  17.450 -0.7590  0.4416  1.0129
 2198TIP3    H230790   1.827   2.853  17.447 -0.1266 -0.3776 -0.1010
 2199TIP3   OH230791   7.376   7.412  17.568 -0.3426 -0.4025  0.4657
 2199TIP3    H130792   7.410   7.325  17.586  0.4226  0.1323  1.7527
 2199TIP3    H230793   7.453   7.464  17.545 -0.7346  0.0416  0.1315
 2200TIP3   OH230794   3.033   3.772  18.395  0.6934 -0.2500 -0.3861
 2200TIP3    H130795   2.964   3.812  18.448  1.8101 -0.3765  1.2313
 2200TIP3    H230796   3.022   3.810  18.308 -1.6105 -0.5275 -0.2792
 2201TIP3   OH230797   0.989   2.325  17.634 -0.4626  0.2071  0.1659
 2201TIP3    H130798   1.028   2.339  17.548  1.7787 -0.2703  1.0416
 2201TIP3    H230799   0.910   2.274  17.616  0.8122 -1.3148 -1.5259
 2202TIP3   OH230800   0.625   1.299  17.488 -0.1469 -0.0193 -0.0517
 2202TIP3    H130801   0.599   1.291  17.397 -0.4350 -1.0606  0.1115
 2202TIP3    H230802   0.633   1.393  17.503  0.0863  0.1502 -1.1942
 2203TIP3   OH230803   5.033   7.573  18.219 -0.2295 -0.0168 -0.1503
 2203TIP3    H130804   5.060   7.647  18.165  1.2414  0.3615  1.0205
 2203TIP3    H230805   5.099   7.505  18.201 -1.4100 -0.9779 -1.0192
 2204TIP3   OH230806   6.786   6.423  18.304 -0.1754  0.1210  0.4762
 2204TIP3    H130807   6.872   6.450  18.338 -0.4628  0.2471  1.1144
 2204TIP3    H230808   6.724   6.453  18.370 -0.5637 -1.5462  0.9324
 2205TIP3   OH230809   1.540   2.782  19.128  0.1311 -0.0169  0.2650
 2205TIP3    H130810   1.615   2.793  19.069  0.1477 -0.9646  0.1053
 2205TIP3    H230811   1.559   2.702  19.177  0.8216  1.4640  2.6179
 2206TIP3   OH230812   3.898   3.280  18.750  0.5528 -0.4590  0.2954
 2206TIP3    H130813   3.846   3.200  18.737  0.1490 -0.7203  3.0387
 2206TIP3    H230814   3.976   3.251  18.798  2.4380  0.2343 -2.1163
 2207TIP3   OH230815   0.237   4.660  17.531 -0.3583  0.2434  0.0718
 2207TIP3    H130816   0.231   4.628  17.621  1.7928 -0.2430  0.1125
 2207TIP3    H230817   0.312   4.720  17.532 -1.2118  1.3964 -1.1051
 2208TIP3   OH230818   3.964   6.867  19.082 -0.9578 -0.2314  0.0232
 2208TIP3    H130819   3.889   6.925  19.079 -0.6391  0.4303  2.4602
 2208TIP3    H230820   3.980   6.854  19.176  3.2767  1.4685 -0.2364
 2209TIP3   OH230821   0.626   3.840  19.098 -0.4831 -0.0088  0.2387
 2209TIP3    H130822   0.565   3.889  19.043  0.0100  1.3487  0.8517
 2209TIP3    H230823   0.582   3.757  19.115 -1.4160  0.2680 -0.7101
 2210TIP3   OH230824   4.365   0.077  17.029 -0.0758  0.1740  0.5103
 2210TIP3    H130825   4.410   0.159  17.046  0.6491 -0.1267  0.1185
 2210TIP3    H230826   4.435   0.016  17.003 -0.7220 -0.2756 -0.2432
 2211TIP3   OH230827   4.270   2.322  19.356  0.1773 -1.0305  0.3851
 2211TIP3    H130828   4.214   2.313  19.279 -0.4504  0.2588  0.6528
 2211TIP3    H230829   4.214   2.362  19.422  1.3773  0.2400  0.6939
 2212TIP3   OH230830   4.553   0.140  19.402 -0.0545 -0.1516  0.2692
 2212TIP3    H130831   4.626   0.170  19.456 -1.0867 -0.0953  1.6873
 2212TIP3    H230832   4.488   0.209  19.408  0.0641  0.1998 -1.6772
 2213TIP3   OH230833   6.075   6.495  19.264  0.1940  0.1424 -0.0307
 2213TIP3    H130834   6.131   6.422  19.291 -2.0474 -1.2671  1.1424
 2213TIP3    H230835   6.128   6.573  19.280  2.0841 -1.1283  0.2429
 2214TIP3   OH230836   3.553   0.742  18.096 -0.7927 -0.6028  0.1947
 2214TIP3    H130837   3.631   0.716  18.047  0.0216 -0.0187  1.1542
 2214TIP3    H230838   3.480   0.705  18.046 -0.3414  2.7553 -3.4444
 2215TIP3   OH230839   4.901   2.496  19.098 -0.3971 -0.0263  0.7250
 2215TIP3    H130840   4.962   2.478  19.169  0.8895  0.2008 -0.2940
 2215TIP3    H230841   4.954   2.538  19.030 -1.6042 -0.1832 -0.3587
 2216TIP3   OH230842   6.825   7.593  17.247  0.0483  0.2387  0.2271
 2216TIP3    H130843   6.862   7.614  17.161 -0.7416 -2.4367 -0.8823
 2216TIP3    H230844   6.730   7.600  17.234 -0.0618  1.4417  1.4146
 2217TIP3   OH230845   4.903   3.686  17.539 -0.0637  0.6918  0.2573
 2217TIP3    H130846   4.830   3.692  17.478 -0.3416 -0.6070  0.4339
 2217TIP3    H230847   4.867   3.642  17.616  1.1696 -1.1426 -0.1391
 2218TIP3   OH230848   4.505   3.874  17.052 -0.0981  1.2550 -0.2768
 2218TIP3    H130849   4.597   3.893  17.064 -0.1024  0.6425  0.9035
 2218TIP3    H230850   4.489   3.797  17.107 -0.7444 -0.2282 -2.4186
 2219TIP3   OH230851   4.659   3.641  19.084 -0.0685 -0.1933  0.4261
 2219TIP3    H130852   4.589   3.598  19.133  0.1681 -0.8162  0.2283
 2219TIP3    H230853   4.734   3.642  19.144  0.9226 -2.9425 -0.5761
 2220TIP3   OH230854   4.557   7.277  17.334  0.3759  0.5117  0.3192
 2220TIP3    H130855   4.554   7.219  17.258 -1.4298  0.7781  0.1502
 2220TIP3    H230856   4.482   7.250  17.388  0.6226  1.4448  1.1559
 2221TIP3   OH230857   2.889   6.310  18.590  0.1014 -0.6398  0.3116
 2221TIP3    H130858   2.921   6.321  18.680  0.3575 -0.0070  0.1514
 2221TIP3    H230859   2.920   6.388  18.545  0.8778 -1.4408 -0.5861
 2222TIP3   OH230860   1.107   0.727  18.810 -0.2295  0.0707  0.2728
 2222TIP3    H130861   1.065   0.811  18.792 -0.0199  0.3571  1.0445
 2222TIP3    H230862   1.071   0.668  18.745  1.7599  1.3765 -2.1746
 2223TIP3   OH230863   0.445   5.284  18.422  0.7286  0.5299  0.4274
 2223TIP3    H130864   0.369   5.320  18.467  0.6784  0.7606  0.1624
 2223TIP3    H230865   0.409   5.243  18.343  0.5511 -1.8243  1.6613
 2224TIP3   OH230866   6.776   6.972  16.604 -0.2414  0.3283 -0.3535
 2224TIP3    H130867   6.727   6.895  16.577 -0.7908 -0.0971  1.7202
 2224TIP3    H230868   6.728   7.046  16.566  1.1842 -0.2794 -3.7489
 2225TIP3   OH230869   2.182   6.125  16.963 -0.1910  0.6340 -0.3040
 2225TIP3    H130870   2.246   6.186  16.926  1.3710  0.2023  1.5605
 2225TIP3    H230871   2.234   6.053  16.997 -1.6979  0.0647  0.9270
 2226TIP3   OH230872   3.887   6.176  18.143 -0.1817 -0.2898  0.4481
 2226TIP3    H130873   3.899   6.268  18.169 -0.4240 -0.4164  1.0332
 2226TIP3    H230874   3.864   6.180  18.050 -0.4701  0.2639  0.5366
 2227TIP3   OH230875   7.204   2.360  18.319 -0.1628 -0.0812 -0.1065
 2227TIP3    H130876   7.158   2.336  18.399 -0.0319 -0.7058 -0.2154
 2227TIP3    H230877   7.258   2.284  18.298  0.8615  0.5851 -0.0255
 2228TIP3   OH230878   1.513   0.014  16.937  0.1764  0.1395 -0.0868
 2228TIP3    H130879   1.575   0.068  16.888  0.4977  0.1663  0.3435
 2228TIP3    H230880   1.437   0.005  16.878  0.3426  0.6033 -0.3789
 2229TIP3   OH230881   6.813   6.608  17.876  0.0140  0.6355 -0.3618
 2229TIP3    H130882   6.781   6.694  17.848 -1.4597  0.2875  0.1945
 2229TIP3    H230883   6.834   6.563  17.794  0.6114  1.4429 -0.6658
 2230TIP3   OH230884   4.878   3.643  19.250  0.0952 -0.4632 -0.1826
 2230TIP3    H130885   4.928   3.717  19.284  0.0341 -0.2545 -0.5327
 2230TIP3    H230886   4.934   3.604  19.183 -0.6440  0.4719 -1.3964
 2231TIP3   OH230887   6.470   5.912  18.860  0.9006  0.1104  0.2497
 2231TIP3    H130888   6.426   5.832  18.831 -1.9934  1.4262  0.6454
 2231TIP3    H230889   6.534   5.931  18.792 -1.1875 -0.3992 -1.9876
 2232TIP3   OH230890   0.894   0.774  18.156  0.6316  0.0083  0.4059
 2232TIP3    H130891   0.801   0.765  18.174  0.6612  1.6338  1.5419
 2232TIP3    H230892   0.930   0.687  18.177 -0.4579 -0.2975  1.1170
 2233TIP3   OH230893   5.871   4.828  18.937  0.2788  0.2128  0.2164
 2233TIP3    H130894   5.891   4.921  18.948 -0.4306  0.2863  0.9081
 2233TIP3    H230895   5.778   4.826  18.914  0.5845 -0.2528 -1.0469
 2234TIP3   OH230896   5.262   1.084  17.836  0.5845 -0.1882  0.0248
 2234TIP3    H130897   5.224   1.166  17.867  1.3842 -0.2670  1.2455
 2234TIP3    H230898   5.356   1.097  17.840  0.7270 -0.7311 -1.0095
 2235TIP3   OH230899   2.457   1.105  18.539  0.5933  0.1313  0.3915
 2235TIP3    H130900   2.364   1.101  18.560 -0.1723  0.5166 -2.5141
 2235TIP3    H230901   2.481   1.197  18.553  0.9827 -0.2506  2.5597
 2236TIP3   OH230902   1.035   7.645  18.349 -0.9413  0.8238 -0.1810
 2236TIP3    H130903   1.088   7.605  18.279 -0.7217 -0.8693  0.9121
 2236TIP3    H230904   0.958   7.679  18.304 -0.5797  0.1925 -1.3166
 2237TIP3   OH230905   5.182   1.367  17.923  0.2702 -0.6609  0.2170
 2237TIP3    H130906   5.233   1.342  18.000 -0.4079  1.4071  1.3965
 2237TIP3    H230907   5.231   1.438  17.882 -0.5755 -0.0964  0.1503
 2238TIP3   OH230908   6.560   0.413  18.153  0.2223  0.0229 -0.4559
 2238TIP3    H130909   6.507   0.337  18.181  1.4437 -0.3909  0.8253
 2238TIP3    H230910   6.646   0.397  18.191  0.8411  1.4637 -1.2087
 2239TIP3   OH230911   3.778   0.288  17.252  0.1503  0.3693  0.7481
 2239TIP3    H130912   3.702   0.296  17.194  1.3231  1.3960 -0.7029
 2239TIP3    H230913   3.766   0.357  17.317 -1.1645 -0.7850  1.8160
 2240TIP3   OH230914   4.896   6.341  19.315 -0.0107 -0.1707 -0.0882
 2240TIP3    H130915   4.910   6.266  19.373 -0.1189  0.7921  1.2397
 2240TIP3    H230916   4.951   6.323  19.239 -0.3703 -1.7903 -0.0024
 2241TIP3   OH230917   5.786   5.635  16.881 -0.3690  0.8472  0.3775
 2241TIP3    H130918   5.706   5.628  16.829  0.0741 -0.8683 -0.1473
 2241TIP3    H230919   5.839   5.700  16.834 -0.6185  0.4760 -0.4276
 2242TIP3   OH230920   5.791   3.852  18.458  0.9368  0.0575  0.2006
 2242TIP3    H130921   5.824   3.825  18.372 -0.1255  0.5269 -0.3807
 2242TIP3    H230922   5.761   3.941  18.444  1.4010  0.3892  1.2596
 2243TIP3   OH230923   5.964   4.398  17.922  0.5134  0.2786 -0.0908
 2243TIP3    H130924   6.037   4.423  17.979  0.3104 -0.8204  0.6758
 2243TIP3    H230925   6.006   4.370  17.841  0.7382  3.8041 -1.3970
 2244TIP3   OH230926   1.657   7.460  17.754 -0.6178 -0.7761 -0.0908
 2244TIP3    H130927   1.634   7.486  17.844  1.1575  2.5016 -0.4135
 2244TIP3    H230928   1.624   7.531  17.699  1.0480 -1.1253 -1.6540
 2245TIP3   OH230929   0.133   6.645  18.546  0.2531 -0.2433 -0.1350
 2245TIP3    H130930   0.143   6.732  18.586 -0.3616 -0.6560  0.9619
 2245TIP3    H230931   0.222   6.620  18.522  0.3766  0.9204 -0.9899
 2246TIP3   OH230932   2.884   6.833  17.227 -0.1676 -0.7915 -0.3030
 2246TIP3    H130933   2.799   6.852  17.267 -0.8101 -0.0038 -1.9465
 2246TIP3    H230934   2.866   6.834  17.133  1.5422 -1.2761 -0.6540
 2247TIP3   OH230935   6.252   3.808  18.833 -0.0077 -0.0214  0.2927
 2247TIP3    H130936   6.324   3.778  18.777  0.1627  1.2723 -0.2108
 2247TIP3    H230937   6.289   3.808  18.921  0.7157  0.8824  0.0097
 2248TIP3   OH230938   1.728   0.713  16.499  0.4233 -0.0930  0.4548
 2248TIP3    H130939   1.721   0.754  16.413 -1.0467 -0.0244  0.5952
 2248TIP3    H230940   1.727   0.786  16.561  0.3444 -0.2092  0.5904
 2249TIP3   OH230941   6.682   7.656  17.730  0.2015 -0.3778  0.4778
 2249TIP3    H130942   6.650   7.731  17.680  0.2268 -1.1919 -0.8100
 2249TIP3    H230943   6.732   7.605  17.667  1.7228 -0.5721  1.7681
 2250TIP3   OH230944   3.455   2.926  18.345 -0.1879  0.0495  0.6815
 2250TIP3    H130945   3.391   2.985  18.385 -0.9996 -1.1876  1.2742
 2250TIP3    H230946   3.534   2.936  18.398 -0.0810  1.1229  0.3309
 2251TIP3   OH230947   6.579   4.965  18.212 -0.4587  0.0598 -0.8413
 2251TIP3    H130948   6.665   4.998  18.187 -0.1688  1.5924  1.7645
 2251TIP3    H230949   6.590   4.870  18.214  0.5687  0.1132 -2.4519
 2252TIP3   OH230950   6.731   7.199  18.728  0.1045  0.3903  0.0147
 2252TIP3    H130951   6.826   7.210  18.726  0.1952  0.2317  1.7912
 2252TIP3    H230952   6.708   7.170  18.639  1.4778  2.0014 -0.9275
 2253TIP3   OH230953   6.012   5.806  18.384  0.2587  0.3966  0.3583
 2253TIP3    H130954   6.051   5.729  18.343 -3.2315 -1.7968  0.7820
 2253TIP3    H230955   5.948   5.837  18.319  0.2802  1.8119  0.9841
 2254TIP3   OH230956   3.675   4.760  17.159 -0.1287 -0.3877  0.0202
 2254TIP3    H130957   3.586   4.785  17.136 -0.1486  0.4797  0.9789
 2254TIP3    H230958   3.691   4.680  17.109 -1.4042 -0.4993 -0.2422
 2255TIP3   OH230959   0.884   7.660  16.874 -0.3390  0.3649  0.1869
 2255TIP3    H130960   0.801   7.634  16.832 -0.0507  0.4873 -0.4834
 2255TIP3    H230961   0.919   7.579  16.910  1.0004 -0.4479 -2.6745
 2256TIP3   OH230962   5.541   6.307  19.093 -0.0061 -0.1414 -0.3930
 2256TIP3    H130963   5.446   6.309  19.078  0.2051  1.1172 -1.9231
 2256TIP3    H230964   5.574   6.246  19.028  0.2652 -0.3663 -0.0459
 2257TIP3   OH230965   6.779   2.904  17.830  0.1427  0.1099  0.1936
 2257TIP3    H130966   6.766   2.905  17.736  0.0424 -0.1148  0.2038
 2257TIP3    H230967   6.742   2.820  17.859 -2.3832  1.3005  0.7795
 2258TIP3   OH230968   3.598   0.318  17.042 -0.1605  0.0542 -0.0033
 2258TIP3    H130969   3.615   0.353  16.955  1.2500 -0.6424 -0.0526
 2258TIP3    H230970   3.607   0.223  17.031  0.1327 -0.0325  0.9112
 2259TIP3   OH230971   4.140   6.211  18.736  0.6305 -0.1565  0.3027
 2259TIP3    H130972   4.088   6.139  18.699  1.2936 -0.2250 -0.5363
 2259TIP3    H230973   4.078   6.260  18.790  0.0251 -1.0176  0.4278
 2260TIP3   OH230974   1.885   4.504  17.210 -0.5736 -0.8945  0.3388
 2260TIP3    H130975   1.890   4.445  17.135  0.6971 -1.0649  0.5232
 2260TIP3    H230976   1.808   4.474  17.259 -0.7073 -1.5619 -0.2549
 2261TIP3   OH230977   3.431   1.239  18.479 -0.2381  0.2433  0.3108
 2261TIP3    H130978   3.396   1.150  18.480 -0.0501  0.0349 -2.6174
 2261TIP3    H230979   3.354   1.296  18.484 -0.4268 -0.0830  1.1921
 2262TIP3   OH230980   1.008   7.641  18.778 -0.2096  0.4232 -0.1589
 2262TIP3    H130981   0.955   7.718  18.798 -0.1773  0.5718 -0.6246
 2262TIP3    H230982   1.082   7.645  18.838 -0.1384  0.8281 -0.2750
 2263TIP3   OH230983   5.166   5.758  17.747 -0.4083 -0.1247 -0.4453
 2263TIP3    H130984   5.227   5.765  17.674  1.0552  0.8281  0.8075
 2263TIP3    H230985   5.142   5.848  17.767 -0.1089 -0.3109  0.8022
 2264TIP3   OH230986   4.779   7.190  18.519  0.3989 -0.5639  0.4221
 2264TIP3    H130987   4.795   7.282  18.540 -2.4345 -0.4871  2.9182
 2264TIP3    H230988   4.752   7.191  18.427  0.5064  1.0775  0.3670
 2265TIP3   OH230989   1.672   7.560  18.035  0.0453  0.3751  0.6098
 2265TIP3    H130990   1.651   7.558  18.129  0.4337  1.3645  0.7263
 2265TIP3    H230991   1.764   7.535  18.031  0.2473  1.1190  0.5671
 2266TIP3   OH230992   1.058   5.614  16.947 -0.3660  0.2993 -0.4110
 2266TIP3    H130993   1.134   5.651  16.901 -0.3476  1.6420  0.6193
 2266TIP3    H230994   0.983   5.660  16.910 -0.3244  1.6467  1.0280
 2267TIP3   OH230995   4.854   4.036  19.139 -0.0161 -0.1687 -0.3708
 2267TIP3    H130996   4.873   3.950  19.102 -0.4839  0.5858 -2.4783
 2267TIP3    H230997   4.775   4.065  19.094 -0.3697  1.0343  0.9189
 2268TIP3   OH230998   6.845   5.856  16.764  0.3714 -0.2755 -0.2553
 2268TIP3    H130999   6.879   5.934  16.720  1.6800 -0.8728 -0.3397
 2268TIP3    H231000   6.792   5.812  16.699 -1.4392  1.1649  0.1604
 2269TIP3   OH231001   1.330   4.486  17.842 -0.2316 -0.0339 -0.6874
 2269TIP3    H131002   1.371   4.573  17.842 -0.1974 -0.0357  0.1506
 2269TIP3    H231003   1.352   4.449  17.757  1.5938 -0.0790 -0.2296
 2270TIP3   OH231004   1.096   3.415  18.668 -0.5376 -0.2640  0.3865
 2270TIP3    H131005   1.012   3.456  18.686 -1.0516 -0.9066 -0.4623
 2270TIP3    H231006   1.074   3.340  18.612  0.6304 -0.2693 -0.0842
 2271TIP3   OH231007   0.848   2.573  16.776  0.6933  0.2334  0.4067
 2271TIP3    H131008   0.882   2.527  16.700  2.3710  1.6825  0.2255
 2271TIP3    H231009   0.758   2.595  16.753  0.4907 -1.1778 -0.2669
 2272TIP3   OH231010   7.385   2.242  17.378 -0.1326 -0.0821 -0.0696
 2272TIP3    H131011   7.419   2.179  17.315 -1.0763 -1.7871  1.0448
 2272TIP3    H231012   7.291   2.245  17.362 -0.2320  0.2991  0.5265
 2273TIP3   OH231013   7.309   7.266  18.540 -0.3860 -0.7010  0.2261
 2273TIP3    H131014   7.338   7.354  18.564 -0.7046 -0.2842 -0.8375
 2273TIP3    H231015   7.387   7.223  18.505 -0.3531 -0.6528  0.2411
 2274TIP3   OH231016   1.789   6.962  18.647  0.1140  0.1188  0.8413
 2274TIP3    H131017   1.755   7.003  18.568 -1.4981  0.1712  1.5304
 2274TIP3    H231018   1.883   6.951  18.630 -0.0912  0.6876 -0.8144
 2275TIP3   OH231019   2.764   3.473  18.127  0.1164  0.8429 -0.1197
 2275TIP3    H131020   2.763   3.408  18.197  1.6783  1.6170  0.6925
 2275TIP3    H231021   2.804   3.428  18.053 -1.7674 -0.0540 -0.6387
 2276TIP3   OH231022   0.510   2.829  17.933 -0.2405 -0.1320 -0.1957
 2276TIP3    H131023   0.603   2.849  17.940  0.0878 -1.1640 -1.3018
 2276TIP3    H231024   0.487   2.792  18.019  0.1836  0.7726  0.3206
 2277TIP3   OH231025   7.499   3.096  18.769 -0.3434  0.0951 -0.3122
 2277TIP3    H131026   7.442   3.084  18.845 -0.9535  0.9004 -0.6270
 2277TIP3    H231027   7.523   3.189  18.772 -0.6700  0.2187 -1.3025
 2278TIP3   OH231028   1.264   2.497  17.705 -0.1586  0.1024  0.6016
 2278TIP3    H131029   1.302   2.442  17.637 -0.5886  0.8529 -0.2569
 2278TIP3    H231030   1.282   2.449  17.787 -1.1865 -1.6975 -0.1620
 2279TIP3   OH231031   0.879   6.412  18.945  0.4412  0.0903  0.4971
 2279TIP3    H131032   0.818   6.485  18.932  0.2119 -0.0803  0.6022
 2279TIP3    H231033   0.868   6.388  19.037 -0.9015 -1.3226  0.0261
 2280TIP3   OH231034   0.615   2.756  18.429  0.0265  0.0853 -0.7835
 2280TIP3    H131035   0.680   2.801  18.375  0.5454  0.5414  0.2027
 2280TIP3    H231036   0.617   2.802  18.513  0.2014 -1.4665  0.0877
 2281TIP3   OH231037   5.094   3.716  18.841  0.4132 -0.7983  0.1048
 2281TIP3    H131038   5.014   3.695  18.890 -1.2834 -1.4666 -2.6881
 2281TIP3    H231039   5.072   3.797  18.794  2.0103 -0.1226  0.4543
 2282TIP3   OH231040   4.406   7.674  17.597  0.0767  0.0725  1.1425
 2282TIP3    H131041   4.329   7.715  17.636 -1.3778 -1.8140  0.4083
 2282TIP3    H231042   4.379   7.650  17.508  1.5663 -0.4778  0.8014
 2283TIP3   OH231043   0.724   5.551  18.448 -0.5119  0.1987  0.1092
 2283TIP3    H131044   0.812   5.582  18.469  0.6258  0.5166 -4.2135
 2283TIP3    H231045   0.733   5.456  18.445 -1.0445  0.0406  2.0121
 2284TIP3   OH231046   1.515   1.711  19.075  0.3737 -0.6852 -0.0625
 2284TIP3    H131047   1.522   1.765  19.153  0.3417  2.0317 -1.8363
 2284TIP3    H231048   1.593   1.731  19.023 -0.3531 -1.2239 -1.4350
 2285TIP3   OH231049   2.033   1.256  18.026  0.0749 -0.1647 -0.2365
 2285TIP3    H131050   2.017   1.195  18.098  0.4236  1.5577  1.3793
 2285TIP3    H231051   2.125   1.280  18.034 -0.5642  2.2855  0.6286
 2286TIP3   OH231052   2.285   5.292  18.546 -0.2023  0.1400  0.3064
 2286TIP3    H131053   2.270   5.208  18.501 -0.7639 -0.5538  1.7432
 2286TIP3    H231054   2.204   5.341  18.532  0.3254  0.6913 -0.9905
 2287TIP3   OH231055   6.899   3.963  17.769  0.2353  0.3442 -0.5797
 2287TIP3    H131056   6.900   3.872  17.797 -0.6996  1.1153  2.3537
 2287TIP3    H231057   6.959   4.007  17.829 -2.4435  2.2750  0.9167
 2288TIP3   OH231058   3.653   7.527  18.602  0.1894 -0.1111  0.6684
 2288TIP3    H131059   3.601   7.603  18.628 -0.4027  0.9969 -3.1550
 2288TIP3    H231060   3.602   7.452  18.633 -1.4160  1.0065  0.8635
 2289TIP3   OH231061   3.197   2.573  17.427  0.4804 -0.2758  0.0676
 2289TIP3    H131062   3.107   2.603  17.415  0.7869  0.8655  0.4676
 2289TIP3    H231063   3.218   2.596  17.518  1.1982 -0.4771 -0.0383
 2290TIP3   OH231064   3.897   2.801  17.562  0.6085  0.0337  0.3424
 2290TIP3    H131065   3.824   2.740  17.554  0.0735  0.7930 -0.7551
 2290TIP3    H231066   3.859   2.887  17.545  1.5273  0.5913  0.9698
 2291TIP3   OH231067   7.480   5.878  19.212  0.0179  0.5698  0.2975
 2291TIP3    H131068   7.403   5.821  19.208 -0.3173  0.9338  1.1981
 2291TIP3    H231069   7.485   5.918  19.126 -0.5151  0.1716  0.0777
 2292TIP3   OH231070   0.495   7.477  17.623 -0.5263  0.2310 -0.4383
 2292TIP3    H131071   0.525   7.470  17.532 -0.5935 -1.5436 -0.3575
 2292TIP3    H231072   0.473   7.387  17.648  1.0626  0.4103  1.8641
 2293TIP3   OH231073   1.871   0.035  17.635  0.1163 -0.5647  0.4526
 2293TIP3    H131074   1.880   0.099  17.564 -2.5636 -1.2237 -0.6131
 2293TIP3    H231075   1.904   0.080  17.712  0.6743  1.1604 -0.7317
 2294TIP3   OH231076   6.843   3.357  18.275  0.1477 -0.4155 -0.2587
 2294TIP3    H131077   6.825   3.317  18.190 -0.8736  0.7566 -0.6338
 2294TIP3    H231078   6.763   3.345  18.325  0.8198 -1.2913  0.6445
 2295TIP3   OH231079   5.714   0.880  17.709 -0.4683 -0.2900 -0.2912
 2295TIP3    H131080   5.765   0.961  17.707 -0.5300 -0.1221  2.1107
 2295TIP3    H231081   5.639   0.898  17.652  0.2269  0.8219 -0.9028
 2296TIP3   OH231082   5.041   4.488  17.947  0.1837 -0.2763  0.2569
 2296TIP3    H131083   4.968   4.427  17.949  0.4287 -0.5621  0.6576
 2296TIP3    H231084   5.073   4.490  18.038  0.5304  0.0134  0.1290
 2297TIP3   OH231085   7.387   7.561  18.498 -0.0299 -0.0430  0.1778
 2297TIP3    H131086   7.355   7.593  18.583  0.0620 -0.1587  0.2575
 2297TIP3    H231087   7.310   7.560  18.442  0.3341  2.4653 -0.5018
 2298TIP3   OH231088   4.220   1.345  19.154 -0.6121 -0.5772  0.2376
 2298TIP3    H131089   4.227   1.314  19.064  3.4576 -1.3288  0.5760
 2298TIP3    H231090   4.193   1.436  19.147 -1.5558 -0.9648 -1.6248
 2299TIP3   OH231091   6.185   3.999  18.589 -0.2413  0.6135  0.3667
 2299TIP3    H131092   6.127   4.056  18.638  0.6374  1.2975  0.6309
 2299TIP3    H231093   6.265   3.994  18.642  0.2634  0.3803 -0.3958
 2300TIP3   OH231094   7.218   4.886  16.760 -0.6065  0.0934  0.7241
 2300TIP3    H131095   7.283   4.900  16.829 -0.5899  0.3915  0.6507
 2300TIP3    H231096   7.178   4.972  16.747 -0.0710  0.2133 -0.1914
 2301TIP3   OH231097   0.319   3.386  16.478 -0.3013  0.1780  0.2419
 2301TIP3    H131098   0.236   3.428  16.458  0.3879  1.3772 -0.1935
 2301TIP3    H231099   0.384   3.456  16.469  0.5950 -0.3584  2.0234
 2302TIP3   OH231100   5.429   7.408  17.636  0.0368  0.5911 -0.0237
 2302TIP3    H131101   5.495   7.442  17.697  1.2198 -0.0961 -0.8798
 2302TIP3    H231102   5.446   7.314  17.633  0.6549  0.7198 -2.1279
 2303TIP3   OH231103   2.131   0.023  18.069  0.0030 -0.0339  0.6630
 2303TIP3    H131104   2.213   0.012  18.022 -1.3786  0.6184 -2.1728
 2303TIP3    H231105   2.088  -0.063  18.065 -0.6057  0.2991 -0.3547
 2304TIP3   OH231106   5.443   1.733  19.159 -0.2663  0.0928 -0.4564
 2304TIP3    H131107   5.506   1.805  19.155 -0.1921 -0.0051 -2.8449
 2304TIP3    H231108   5.358   1.776  19.151 -0.2693 -0.0072 -1.0055
 2305TIP3   OH231109   7.677   5.677  19.151  0.7340  0.1567 -0.5391
 2305TIP3    H131110   7.726   5.741  19.101  1.6436 -0.1451 -0.0593
 2305TIP3    H231111   7.608   5.727  19.194  0.0569  0.4491 -1.9158
 2306TIP3   OH231112   7.270   1.090  18.216 -0.2298  0.3088  0.2556
 2306TIP3    H131113   7.339   1.117  18.156  0.8522  1.6516  1.9993
 2306TIP3    H231114   7.226   1.172  18.240 -1.3512 -0.3324  0.4701
 2307TIP3   OH231115   5.953   2.838  17.851  0.1212 -0.3954  0.2737
 2307TIP3    H131116   6.021   2.854  17.786 -0.6472  2.2322  0.0135
 2307TIP3    H231117   5.876   2.884  17.818 -0.5987  0.1771  2.5349
 2308TIP3   OH231118   6.950   2.227  19.075 -0.0583  0.6953 -0.6300
 2308TIP3    H131119   6.880   2.280  19.113 -2.5071 -1.6090 -1.5669
 2308TIP3    H231120   7.017   2.223  19.143 -2.4681  0.0281  1.8955
 2309TIP3   OH231121   5.906   3.435  17.830 -0.0456  0.3543 -0.1637
 2309TIP3    H131122   5.839   3.393  17.884  0.1302 -1.2347 -1.1141
 2309TIP3    H231123   5.938   3.365  17.773  1.3690  1.4396 -0.7625
 2310TIP3   OH231124   5.618   6.541  18.933  0.4325 -0.1061 -0.0935
 2310TIP3    H131125   5.534   6.576  18.904  0.6017 -2.2915 -3.8520
 2310TIP3    H231126   5.595   6.461  18.979  0.4136 -0.1072 -0.1049
 2311TIP3   OH231127   3.367   3.327  18.113  0.1726 -0.3762 -0.1530
 2311TIP3    H131128   3.398   3.411  18.079 -0.9279 -0.2299 -0.8081
 2311TIP3    H231129   3.305   3.296  18.048 -0.0199 -1.3355  0.4732
 2312TIP3   OH231130   5.786   4.200  17.944  0.2446  0.0144 -0.1066
 2312TIP3    H131131   5.817   4.178  18.032 -0.7576  0.4373  0.3691
 2312TIP3    H231132   5.825   4.285  17.925  0.2653  0.0371  0.0330
 2313TIP3   OH231133   1.148   4.320  17.291  0.2788  0.5282  0.6132
 2313TIP3    H131134   1.208   4.357  17.226  0.6806 -1.3729 -0.1655
 2313TIP3    H231135   1.067   4.370  17.280  0.7855  1.1741 -0.3615
 2314TIP3   OH231136   2.355   2.021  18.870  0.0026  0.0866  0.0582
 2314TIP3    H131137   2.260   2.005  18.877  0.2385 -0.5590  2.7032
 2314TIP3    H231138   2.385   1.952  18.810 -1.2178  0.5922 -1.2125
 2315TIP3   OH231139   2.037   7.542  18.404  0.3613  0.5499 -0.0820
 2315TIP3    H131140   2.010   7.522  18.315 -0.7083  0.9157  0.1485
 2315TIP3    H231141   1.955   7.553  18.452  0.9242  0.4756  0.9205
 2316TIP3   OH231142   3.418   2.339  16.935 -0.2636  0.1387  0.4657
 2316TIP3    H131143   3.350   2.345  16.868 -0.0098  2.3299  0.3063
 2316TIP3    H231144   3.499   2.358  16.888 -0.0545  1.4314  1.2941
 2317TIP3   OH231145   2.359   1.123  16.638 -0.0524 -0.0779 -0.0146
 2317TIP3    H131146   2.355   1.148  16.731  1.1495  1.2560 -0.2757
 2317TIP3    H231147   2.276   1.152  16.602 -0.5197 -0.5789  0.6310
 2318TIP3   OH231148   4.644   3.112  17.877  0.0029  0.1974 -0.1667
 2318TIP3    H131149   4.677   3.190  17.921 -1.0181  0.5955 -0.0795
 2318TIP3    H231150   4.619   3.142  17.790 -1.2898  0.2152  0.1777
 2319TIP3   OH231151   1.406   5.145  17.629 -0.1107 -0.1713 -0.3497
 2319TIP3    H131152   1.410   5.226  17.681 -2.0435 -0.5540  0.4727
 2319TIP3    H231153   1.378   5.174  17.543  2.3811  0.3773 -1.0477
 2320TIP3   OH231154   0.434   4.922  18.391 -0.0202  0.1767 -0.7503
 2320TIP3    H131155   0.419   4.929  18.485 -2.6525  0.8094 -1.1472
 2320TIP3    H231156   0.425   4.828  18.373  2.1516 -0.1989 -0.2082
 2321TIP3   OH231157   1.691   6.626  16.979  0.1572 -0.2692  0.2132
 2321TIP3    H131158   1.763   6.687  16.970  0.3477 -0.3896  0.8292
 2321TIP3    H231159   1.719   6.547  16.932 -0.1435  0.1503 -0.6902
 2322TIP3   OH231160   5.140   2.162  18.218  0.0243  0.2688  0.3369
 2322TIP3    H131161   5.218   2.202  18.178  0.4460 -0.8465  0.0088
 2322TIP3    H231162   5.114   2.094  18.156 -1.0734  0.4637  0.5729
 2323TIP3   OH231163   1.234   7.460  17.731  0.0746 -0.1580 -0.2973
 2323TIP3    H131164   1.301   7.522  17.762 -1.1612  0.8993  0.3276
 2323TIP3    H231165   1.275   7.417  17.656  1.4719  0.4272  0.0878
 2324TIP3   OH231166   4.378   1.704  17.267  0.2819  0.1810 -0.2716
 2324TIP3    H131167   4.315   1.633  17.275 -0.7570  0.9035 -1.7153
 2324TIP3    H231168   4.462   1.664  17.289  0.0465 -2.0379 -2.8890
 2325TIP3   OH231169   0.306   0.116  17.035  0.6771 -0.0551  0.0007
 2325TIP3    H131170   0.341   0.028  17.018  0.3038  0.0493 -1.3773
 2325TIP3    H231171   0.347   0.171  16.968  0.5213  0.7336  0.5456
 2326TIP3   OH231172   0.034   6.792  16.812 -0.1787  0.2203 -0.0811
 2326TIP3    H131173   0.031   6.795  16.716  1.2617  0.2878 -0.1380
 2326TIP3    H231174  -0.042   6.843  16.840  1.7057  3.9951 -1.1890
 2327TIP3   OH231175   0.002   6.450  17.888  0.0058 -0.3066 -0.3120
 2327TIP3    H131176  -0.068   6.385  17.880  0.2618 -0.5801 -0.3252
 2327TIP3    H231177  -0.001   6.499  17.806 -1.4429  0.9596  0.4486
 2328TIP3   OH231178   6.255   0.995  17.768  0.0847  0.0134  0.3750
 2328TIP3    H131179   6.331   0.991  17.709  0.1671 -1.0478  0.5381
 2328TIP3    H231180   6.277   0.935  17.839 -0.0997  1.1339  1.4164
 2329TIP3   OH231181   1.072   3.123  17.190  0.5401 -0.2947  0.1283
 2329TIP3    H131182   1.068   3.041  17.141  1.4305 -0.4037  0.2212
 2329TIP3    H231183   1.000   3.117  17.252  0.4687 -0.9210 -0.0093
 2330TIP3   OH231184   4.529   2.380  19.076  0.4152  0.0246  0.0512
 2330TIP3    H131185   4.594   2.316  19.105  0.1694  0.0839  0.7615
 2330TIP3    H231186   4.581   2.455  19.047  0.7052 -0.5046 -0.8345
 2331TIP3   OH231187   4.625   5.534  18.340 -0.0623 -0.5684  0.1468
 2331TIP3    H131188   4.716   5.511  18.358  0.0859 -0.3743 -0.3341
 2331TIP3    H231189   4.609   5.611  18.394  0.3848  0.0293 -0.5613
 2332TIP3   OH231190   1.580   1.620  17.749 -0.3535 -0.2502  0.1918
 2332TIP3    H131191   1.579   1.592  17.658 -1.5370  1.6105 -0.4236
 2332TIP3    H231192   1.656   1.677  17.756 -0.9967  0.6581 -0.0107
 2333TIP3   OH231193   0.245   2.254  18.957  0.5290 -0.2605  0.5070
 2333TIP3    H131194   0.194   2.299  19.024  1.1220 -1.1123  1.5695
 2333TIP3    H231195   0.189   2.181  18.929  1.4587 -1.7955  2.3863
 2334TIP3   OH231196   6.740   7.058  16.859 -0.7379 -0.7264 -0.6021
 2334TIP3    H131197   6.756   7.041  16.767  1.9040  0.4575 -0.4442
 2334TIP3    H231198   6.754   7.153  16.869 -0.1392 -0.9569  1.1522
 2335TIP3   OH231199   2.142   5.644  17.678  0.1353 -0.4961 -0.2202
 2335TIP3    H131200   2.229   5.610  17.698  0.6570 -0.1053 -1.6610
 2335TIP3    H231201   2.143   5.657  17.583 -1.0031  0.8779 -0.0773
 2336TIP3   OH231202   1.640   0.107  18.531  0.4697  0.1136  0.1773
 2336TIP3    H131203   1.611   0.067  18.613 -0.8157  0.6747  0.0139
 2336TIP3    H231204   1.682   0.189  18.558  1.6493 -0.5345  0.3871
 2337TIP3   OH231205   6.933   5.897  17.369  0.0602 -0.0507 -0.1586
 2337TIP3    H131206   6.990   5.821  17.359  2.1173  1.2367  1.0038
 2337TIP3    H231207   6.916   5.902  17.463  1.6277  1.9806  0.0910
 2338TIP3   OH231208   0.915   5.244  17.884  0.4022  0.0825  0.3448
 2338TIP3    H131209   0.922   5.272  17.976 -1.0084  1.1814  0.1553
 2338TIP3    H231210   0.928   5.324  17.834 -1.1383 -0.0468 -0.3191
 2339TIP3   OH231211   5.821   2.560  18.840 -0.1691 -0.4218 -0.1942
 2339TIP3    H131212   5.872   2.506  18.900  0.0998 -0.5601 -0.5413
 2339TIP3    H231213   5.806   2.642  18.888 -0.2153 -0.6419  0.1715
 2340TIP3   OH231214   6.073   6.879  17.693  0.2219 -0.5461  0.7719
 2340TIP3    H131215   5.993   6.836  17.722 -1.6291  2.7013  0.9514
 2340TIP3    H231216   6.046   6.968  17.671  3.7047  0.5264  0.2115
 2341TIP3   OH231217   5.848   5.659  17.396  0.1994  1.0263 -0.1324
 2341TIP3    H131218   5.929   5.653  17.345 -1.0166 -1.6086 -1.9737
 2341TIP3    H231219   5.787   5.703  17.337 -1.5807 -3.1188 -1.7829
 2342TIP3   OH231220   5.523   5.503  18.900  0.1713 -0.5235 -0.1296
 2342TIP3    H131221   5.491   5.525  18.987 -1.5260 -0.0748 -0.8377
 2342TIP3    H231222   5.611   5.540  18.897 -0.1510  0.3903  1.0174
 2343TIP3   OH231223   0.144   0.782  19.136  0.1852 -0.0367 -0.3420
 2343TIP3    H131224   0.097   0.778  19.219  0.2053  1.3987 -0.2392
 2343TIP3    H231225   0.211   0.849  19.150  0.4058 -0.0232 -1.4065
 2344TIP3   OH231226   5.822   0.986  18.943  0.2415 -0.0138  0.0220
 2344TIP3    H131227   5.887   0.917  18.932 -0.8082 -1.2953  1.3568
 2344TIP3    H231228   5.741   0.948  18.907 -0.3029  0.6071  0.5645
 2345TIP3   OH231229   3.887   5.152  18.073 -0.3408 -0.5544 -0.2595
 2345TIP3    H131230   3.850   5.163  17.985 -0.3072 -0.3927 -0.2532
 2345TIP3    H231231   3.947   5.226  18.084  0.6131 -1.2536 -0.5882
 2346TIP3   OH231232   6.982   1.302  17.294 -0.2506 -0.1044 -0.1756
 2346TIP3    H131233   6.960   1.288  17.202  1.7236  0.0349 -0.7218
 2346TIP3    H231234   6.977   1.215  17.333 -1.3656 -0.1250 -0.3316
 2347TIP3   OH231235   1.791   2.036  17.887 -0.8366 -0.1885 -0.4893
 2347TIP3    H131236   1.834   2.118  17.864  3.1008 -2.1344 -0.8662
 2347TIP3    H231237   1.804   2.028  17.981 -2.2195  0.0720 -0.2536
 2348TIP3   OH231238   5.680   4.762  17.192 -0.3646 -0.0932 -0.3919
 2348TIP3    H131239   5.737   4.733  17.120  0.2649  2.2410 -0.9031
 2348TIP3    H231240   5.706   4.707  17.266  1.9299  0.2613 -0.8600
 2349TIP3   OH231241   3.881   3.232  16.967 -0.4198  0.3660 -0.3008
 2349TIP3    H131242   3.964   3.195  16.937  0.1590 -0.6178  2.2717
 2349TIP3    H231243   3.817   3.162  16.954 -0.6070  0.6684 -1.0765
 2350TIP3   OH231244   5.162   3.252  17.633  0.0477  0.7068 -0.2032
 2350TIP3    H131245   5.097   3.246  17.702 -0.5612 -2.8419 -0.8864
 2350TIP3    H231246   5.222   3.321  17.662 -0.7392  0.1010  3.3042
 2351TIP3   OH231247   7.474   5.781  17.104 -0.0299 -0.0954 -0.3797
 2351TIP3    H131248   7.490   5.788  17.198 -0.7526  0.1084 -0.2671
 2351TIP3    H231249   7.510   5.695  17.081  2.4961  0.9069 -0.4386
 2352TIP3   OH231250   3.926   7.284  18.731  0.1862  0.1066  0.5532
 2352TIP3    H131251   3.871   7.233  18.672 -0.0446  0.8741  0.0905
 2352TIP3    H231252   3.873   7.294  18.811  1.1468 -2.3573  1.5877
 2353TIP3   OH231253   4.176   6.519  17.024 -0.1290  0.0316 -0.1107
 2353TIP3    H131254   4.221   6.603  17.025 -0.0556  0.0016  1.9050
 2353TIP3    H231255   4.243   6.454  17.043 -0.4832 -0.3290 -0.0591
 2354TIP3   OH231256   7.432   6.891  18.380 -0.6630  0.3555 -0.4233
 2354TIP3    H131257   7.436   6.796  18.384  1.3764  0.4435  1.3219
 2354TIP3    H231258   7.463   6.913  18.293  0.3213 -0.5635 -0.3299
 2355TIP3   OH231259   1.649   0.387  17.511 -0.6569  0.0929  0.0757
 2355TIP3    H131260   1.619   0.443  17.583 -0.4639  0.4414 -0.1077
 2355TIP3    H231261   1.654   0.447  17.436 -0.4783 -0.1831 -0.1321
 2356TIP3   OH231262   2.799   5.285  18.071  0.0454  0.1356 -0.0408
 2356TIP3    H131263   2.858   5.241  18.010  0.1948 -0.2355  0.3691
 2356TIP3    H231264   2.715   5.242  18.060  0.3508 -0.7320  0.8447
 2357TIP3   OH231265   2.983   0.816  18.040 -0.4113 -0.6089  0.2725
 2357TIP3    H131266   2.995   0.741  18.098  0.9220 -0.2538  0.4940
 2357TIP3    H231267   2.888   0.825  18.031 -0.6259 -2.8730 -0.4810
 2358TIP3   OH231268   2.831   3.509  16.999  0.1807 -0.1233  0.2577
 2358TIP3    H131269   2.778   3.463  17.064 -1.1709  0.0895 -0.6486
 2358TIP3    H231270   2.816   3.602  17.017  0.1017 -0.0622 -0.1144
 2359TIP3   OH231271   4.304   3.647  18.602  0.0779  0.2009 -0.4300
 2359TIP3    H131272   4.286   3.741  18.605  0.3669  0.2556 -0.3832
 2359TIP3    H231273   4.227   3.607  18.644 -0.7998  0.3049 -1.8695
 2360TIP3   OH231274   0.258   6.639  17.495  0.4623  0.4710  0.2849
 2360TIP3    H131275   0.319   6.604  17.559  0.8147  0.9404  0.2125
 2360TIP3    H231276   0.302   6.716  17.459  0.3556  0.1113 -0.6590
 2361TIP3   OH231277   4.793   3.279  17.540  0.7894  0.3479  0.5060
 2361TIP3    H131278   4.875   3.244  17.574  0.2186  1.3037  3.1236
 2361TIP3    H231279   4.788   3.368  17.576  0.4017  1.7862 -2.7694
 2362TIP3   OH231280   2.919   3.414  18.980  0.0542  0.7550 -0.5080
 2362TIP3    H131281   2.973   3.425  19.058  0.5978  0.0692 -0.7797
 2362TIP3    H231282   2.843   3.365  19.009 -0.5568  1.9101 -0.0782
 2363TIP3   OH231283   7.002   4.638  17.421 -0.4471 -0.5478  0.5000
 2363TIP3    H131284   6.912   4.606  17.408 -0.0949 -1.7007  0.7819
 2363TIP3    H231285   7.006   4.659  17.514 -0.5309 -0.1512  0.4140
 2364TIP3   OH231286   0.418   2.575  17.383 -0.1092 -0.0309 -0.7623
 2364TIP3    H131287   0.468   2.513  17.329 -1.8239 -0.8172 -1.5304
 2364TIP3    H231288   0.374   2.520  17.447 -0.5749  0.5653 -0.5664
 2365TIP3   OH231289   2.592   0.153  19.002  1.5201 -0.4235  0.2507
 2365TIP3    H131290   2.535   0.081  18.974  0.5219  0.1169  0.8243
 2365TIP3    H231291   2.657   0.160  18.933  1.8951 -2.1531  0.3732
 2366TIP3   OH231292   5.414   3.596  16.877  0.2536 -0.1883 -0.0982
 2366TIP3    H131293   5.399   3.690  16.864  0.3328  0.1046  1.6251
 2366TIP3    H231294   5.331   3.555  16.851  0.7164  0.1722 -2.3078
 2367TIP3   OH231295   6.369   5.092  19.001 -0.0847 -0.5146  0.0551
 2367TIP3    H131296   6.446   5.148  18.994 -1.4002  1.5140  0.9951
 2367TIP3    H231297   6.359   5.055  18.913  2.5171 -1.6809  0.1731
 2368TIP3   OH231298   6.746   3.329  19.327  0.7867 -0.1923 -0.2197
 2368TIP3    H131299   6.743   3.272  19.250 -0.4715 -0.6943  0.1800
 2368TIP3    H231300   6.819   3.294  19.379  0.2491 -1.2656 -0.1438
 2369TIP3   OH231301   2.715   0.534  19.220 -0.2593  0.6706  0.1336
 2369TIP3    H131302   2.628   0.529  19.258 -0.5634 -0.3022 -0.6414
 2369TIP3    H231303   2.752   0.446  19.233  0.1133  0.7004 -0.6592
 2370TIP3   OH231304   6.683   1.027  18.228  0.3278 -0.4346 -0.3475
 2370TIP3    H131305   6.771   1.050  18.198  0.0814 -0.1275 -0.8427
 2370TIP3    H231306   6.645   0.978  18.155 -0.3516  0.4944 -0.6380
 2371TIP3   OH231307   2.837   1.566  18.363  0.5543  0.2156 -0.2924
 2371TIP3    H131308   2.763   1.624  18.382  0.1840 -0.2503 -0.2607
 2371TIP3    H231309   2.799   1.478  18.368  1.1739 -0.0410 -0.0196
 2372TIP3   OH231310   0.416   3.378  19.285 -0.5007 -0.1888 -0.7825
 2372TIP3    H131311   0.349   3.374  19.354  0.4063 -0.7151  0.0816
 2372TIP3    H231312   0.442   3.287  19.271  1.2556  0.1532  0.1109
 2373TIP3   OH231313   4.616   0.279  18.172  0.6775 -0.1466  0.0600
 2373TIP3    H131314   4.551   0.208  18.165 -0.6781  1.0259  0.2328
 2373TIP3    H231315   4.686   0.253  18.112  0.3076 -1.7082  0.2399
 2374TIP3   OH231316   0.073   5.708  17.658 -0.4300 -0.5318  0.0139
 2374TIP3    H131317   0.134   5.715  17.585  1.0498  2.5565  1.3116
 2374TIP3    H231318   0.006   5.774  17.640 -1.1814 -1.1679  0.4488
 2375TIP3   OH231319   7.368   7.124  19.128  0.9679  0.3111 -0.6563
 2375TIP3    H131320   7.462   7.129  19.113  1.1596  1.1285  0.5987
 2375TIP3    H231321   7.347   7.031  19.118  2.1132 -0.0582  0.0685
 2376TIP3   OH231322   6.480   6.411  17.665 -0.4553  0.1853  0.0334
 2376TIP3    H131323   6.565   6.443  17.635 -0.2459  0.6918  1.1327
 2376TIP3    H231324   6.501   6.342  17.728 -0.8973 -1.2992 -1.3506
 2377TIP3   OH231325   2.389   6.217  18.256 -0.1462  0.0923 -0.5022
 2377TIP3    H131326   2.344   6.141  18.293  1.9072 -0.7451  0.4579
 2377TIP3    H231327   2.479   6.209  18.287  0.7895  1.4693 -2.6113
 2378TIP3   OH231328   5.062   1.761  19.256  0.0025  0.4517 -0.0923
 2378TIP3    H131329   5.094   1.671  19.245  1.3613  0.9293 -0.2387
 2378TIP3    H231330   5.050   1.770  19.351  1.2560  0.5645  0.0652
 2379TIP3   OH231331   1.575   7.039  18.916  0.0760 -0.1991 -0.5411
 2379TIP3    H131332   1.500   7.024  18.973 -0.9931  0.8633 -1.5990
 2379TIP3    H231333   1.610   6.952  18.898  0.2807 -0.5849  1.4666
 2380TIP3   OH231334   2.295   3.214  17.529 -0.5110  0.8399  0.4458
 2380TIP3    H131335   2.239   3.259  17.465  0.1894 -0.0317 -0.8044
 2380TIP3    H231336   2.235   3.156  17.575 -0.6376 -0.3333 -1.1105
 2381TIP3   OH231337   3.765   7.452  17.353 -0.1850 -0.0218  0.3753
 2381TIP3    H131338   3.764   7.400  17.434 -0.1961  0.3146  0.5961
 2381TIP3    H231339   3.848   7.500  17.357  0.1798 -0.5934 -0.1943
 2382TIP3   OH231340   4.377   6.712  17.102  0.1676  0.2811 -0.4114
 2382TIP3    H131341   4.334   6.779  17.050  0.3501  0.6742 -0.0709
 2382TIP3    H231342   4.454   6.687  17.051  0.7830  1.2395  0.0143
 2383TIP3   OH231343   6.267   5.471  17.730  0.1626  0.1522  0.0681
 2383TIP3    H131344   6.233   5.530  17.664 -1.5560 -0.4960  0.3138
 2383TIP3    H231345   6.354   5.504  17.750 -0.1292  1.6195 -0.9586
 2384TIP3   OH231346   1.327   0.177  17.662  0.0109 -0.7070 -0.3004
 2384TIP3    H131347   1.354   0.095  17.620  1.0521  0.0393 -1.1368
 2384TIP3    H231348   1.400   0.200  17.720 -0.0687 -0.1412 -0.4196
 2385TIP3   OH231349   7.493   1.034  16.645 -0.0311 -0.2489 -0.7719
 2385TIP3    H131350   7.510   0.941  16.629  1.0315 -0.2587  0.3007
 2385TIP3    H231351   7.577   1.069  16.673 -0.2406  1.2187 -1.8664
 2386TIP3   OH231352   3.095   2.804  18.873 -0.3710  0.0510 -0.4762
 2386TIP3    H131353   3.077   2.717  18.838  0.4241  0.5305 -2.2095
 2386TIP3    H231354   3.033   2.862  18.829  1.2627  0.8107 -1.9166
 2387TIP3   OH231355   7.178   3.769  17.078  0.4495  0.1585  0.3878
 2387TIP3    H131356   7.215   3.716  17.007 -1.2041 -0.9021  0.2773
 2387TIP3    H231357   7.125   3.835  17.033 -1.9026 -1.4777  0.5631
 2388TIP3   OH231358   2.902   5.811  19.362  0.7953  0.0626 -0.1948
 2388TIP3    H131359   2.902   5.716  19.347 -1.3936  0.1160 -0.9285
 2388TIP3    H231360   2.950   5.847  19.288 -0.6898 -0.3588 -1.4165
 2389TIP3   OH231361   5.873   5.436  18.647  0.1396 -0.1932 -0.2787
 2389TIP3    H131362   5.817   5.403  18.717  2.0689  1.7696  2.4339
 2389TIP3    H231363   5.961   5.411  18.673  0.9611  0.9298 -1.8081
 2390TIP3   OH231364   5.479   2.790  17.299 -0.0338 -0.9631 -0.2424
 2390TIP3    H131365   5.460   2.857  17.233 -0.2054  0.0008  0.7541
 2390TIP3    H231366   5.573   2.797  17.316 -0.1619 -0.5269  0.3196
 2391TIP3   OH231367   5.480   5.438  16.903 -0.4913  1.0136  0.5453
 2391TIP3    H131368   5.501   5.359  16.953  0.0743  1.1371  0.5065
 2391TIP3    H231369   5.397   5.417  16.860  0.3718 -0.1400 -0.6752
 2392TIP3   OH231370   3.101   7.050  18.534 -0.1480  0.0107  0.2790
 2392TIP3    H131371   3.108   7.119  18.468 -0.2283 -0.3402 -0.1002
 2392TIP3    H231372   3.157   7.079  18.606 -1.7559  1.4862  1.0254
 2393TIP3   OH231373   2.470   1.942  18.219 -0.0142  0.0612  0.2224
 2393TIP3    H131374   2.429   1.856  18.209 -1.0709  0.4852  0.7165
 2393TIP3    H231375   2.434   1.976  18.301 -0.8447  1.6195 -0.7423
 2394TIP3   OH231376   0.354   4.236  17.056 -0.2077  0.3880  0.2258
 2394TIP3    H131377   0.334   4.163  17.115  2.1228 -1.0056 -0.5826
 2394TIP3    H231378   0.269   4.260  17.019 -1.2185 -1.0722  1.4534
 2395TIP3   OH231379   2.191   3.857  16.685  0.0976  0.5287 -0.6759
 2395TIP3    H131380   2.238   3.784  16.725 -2.8000 -1.7022 -0.9728
 2395TIP3    H231381   2.249   3.932  16.695  1.8847 -1.0885  2.6567
 2396TIP3   OH231382   7.566   7.166  18.465 -0.4955  0.0119  0.6044
 2396TIP3    H131383   7.601   7.147  18.551 -1.4172  1.9771  1.4811
 2396TIP3    H231384   7.521   7.086  18.439  1.4066 -1.2703  1.0537
 2397TIP3   OH231385   5.092   0.205  19.057 -0.6220  0.1543 -0.2236
 2397TIP3    H131386   5.157   0.190  19.126  0.3600 -0.8196 -1.3271
 2397TIP3    H231387   5.016   0.152  19.083 -0.3333 -0.0524  0.2049
 2398TIP3   OH231388   1.364   3.164  18.007 -0.2804 -0.6638  0.0188
 2398TIP3    H131389   1.362   3.244  17.955 -1.8355  0.1142  1.2040
 2398TIP3    H231390   1.457   3.149  18.024  0.2045 -0.3475 -2.0072
 2399TIP3   OH231391   2.243   4.266  16.948  0.5962  0.0056 -0.1695
 2399TIP3    H131392   2.188   4.328  16.995  0.2539 -0.3602 -0.0868
 2399TIP3    H231393   2.328   4.310  16.941 -0.3501  1.6012 -2.4553
 2400TIP3   OH231394   6.701   1.710  18.237  0.2261  0.2655 -0.4101
 2400TIP3    H131395   6.683   1.703  18.143 -1.5719  0.8915 -0.1480
 2400TIP3    H231396   6.777   1.767  18.242  1.1891 -0.8295 -1.5149
 2401TIP3   OH231397   3.808   0.958  18.109  0.3152  0.4552  0.3244
 2401TIP3    H131398   3.798   0.889  18.176  0.7860 -0.1762 -0.2397
 2401TIP3    H231399   3.892   0.939  18.069 -0.1052  0.6382 -0.6612
 2402TIP3   OH231400   6.584   6.773  17.694  0.2013 -0.4115 -0.1044
 2402TIP3    H131401   6.572   6.868  17.702 -0.8172 -0.6332  1.5661
 2402TIP3    H231402   6.529   6.737  17.763  1.8502 -2.1509  0.3715
 2403TIP3   OH231403   1.239   7.481  17.256 -0.2352 -0.1919  0.4690
 2403TIP3    H131404   1.178   7.512  17.324  0.3437 -0.8125  1.2981
 2403TIP3    H231405   1.292   7.558  17.237 -2.4791  0.9571 -1.7209
 2404TIP3   OH231406   5.387   2.298  18.405 -0.1353  0.5704 -0.2593
 2404TIP3    H131407   5.470   2.346  18.403  1.4819 -2.0647 -1.1128
 2404TIP3    H231408   5.329   2.350  18.349  1.8148  1.0796 -1.9492
 2405TIP3   OH231409   6.028   1.087  16.795  0.0832  0.2184 -0.0009
 2405TIP3    H131410   6.038   1.172  16.753  1.0309 -0.4330 -1.1635
 2405TIP3    H231411   5.937   1.085  16.825  0.4680  2.2498  1.4739
 2406TIP3   OH231412   2.790   0.472  18.884 -0.7149  0.3028  0.4790
 2406TIP3    H131413   2.779   0.498  18.975 -1.0015  1.2184  0.1871
 2406TIP3    H231414   2.710   0.502  18.840 -1.6860 -2.1615  0.3531
 2407TIP3   OH231415   4.890   5.682  18.678  0.1909 -0.4375 -0.1832
 2407TIP3    H131416   4.909   5.592  18.702  2.3823  0.5227  2.0765
 2407TIP3    H231417   4.959   5.706  18.616 -0.4115 -0.2898 -0.8152
 2408TIP3   OH231418   0.702   1.135  18.257 -0.5442  0.2170 -0.4361
 2408TIP3    H131419   0.674   1.189  18.182  1.6321 -2.5297 -3.4989
 2408TIP3    H231420   0.647   1.057  18.252  1.7469 -1.4292 -1.2863
 2409TIP3   OH231421   6.487   4.057  18.654  0.7019 -0.6533  0.5535
 2409TIP3    H131422   6.508   4.143  18.617  0.9753 -1.3574 -0.9889
 2409TIP3    H231423   6.563   4.003  18.634 -0.0340 -1.6191  0.3174
 2410TIP3   OH231424   0.346   4.005  17.632 -0.0833 -0.0167  0.2079
 2410TIP3    H131425   0.356   4.048  17.717  0.6503  1.1351 -0.4327
 2410TIP3    H231426   0.373   3.914  17.648  0.7349  0.3568  1.0626
 2411TIP3   OH231427   1.473   0.216  17.346  0.0393  0.5112 -0.5369
 2411TIP3    H131428   1.514   0.274  17.410  0.3840  0.9065 -1.1050
 2411TIP3    H231429   1.391   0.259  17.323 -0.5429 -0.1112  0.3483
 2412TIP3   OH231430   0.614   5.821  18.138  0.1033 -0.2440  0.7485
 2412TIP3    H131431   0.595   5.727  18.141 -1.9350  0.0178 -1.2689
 2412TIP3    H231432   0.549   5.861  18.196 -0.6384  0.0710 -0.2696
 2413TIP3   OH231433   0.869   5.762  17.344  0.5863  0.0997  0.8527
 2413TIP3    H131434   0.900   5.849  17.319  1.0853  0.1291  1.5587
 2413TIP3    H231435   0.829   5.774  17.430  3.0869 -0.8160  2.2521
 2414TIP3   OH231436   5.134   6.438  17.075 -0.3198 -0.5518  0.7709
 2414TIP3    H131437   5.104   6.417  16.987 -1.1099 -2.9825  1.5534
 2414TIP3    H231438   5.230   6.437  17.068 -0.3741 -0.8008 -0.0334
 2415TIP3   OH231439   4.882   0.465  16.995 -0.0688  0.0951  0.1652
 2415TIP3    H131440   4.929   0.382  16.987 -1.4272 -0.5218 -2.1539
 2415TIP3    H231441   4.805   0.454  16.941 -0.2808  2.9016 -0.2167
 2416TIP3   OH231442   0.809   3.650  17.892 -0.0556  0.5707  1.2766
 2416TIP3    H131443   0.717   3.624  17.889 -0.3027  1.4371  0.8458
 2416TIP3    H231444   0.858   3.569  17.879 -0.7686  0.2205  0.7269
 2417TIP3   OH231445   7.270   5.023  17.906  0.4421 -0.1459  0.3512
 2417TIP3    H131446   7.320   4.983  17.834  1.8209  1.2376  0.4688
 2417TIP3    H231447   7.292   4.970  17.983  0.1707 -0.7177  0.0409
 2418TIP3   OH231448   6.078   3.802  18.087 -0.0841  0.4516 -0.2718
 2418TIP3    H131449   5.998   3.765  18.049  0.1545  1.3158 -1.6832
 2418TIP3    H231450   6.129   3.832  18.012  1.0450  0.9714  0.6688
 2419TIP3   OH231451   6.582   0.386  19.194 -0.5248 -0.6243  0.0222
 2419TIP3    H131452   6.618   0.303  19.164 -0.3110 -0.6318  0.2953
 2419TIP3    H231453   6.514   0.361  19.257 -0.3701 -0.5877  0.2025
 2420TIP3   OH231454   5.247   0.226  17.818  0.0655  0.2228 -0.1906
 2420TIP3    H131455   5.323   0.267  17.777  0.3383 -1.3642 -1.3702
 2420TIP3    H231456   5.218   0.289  17.884  2.6735  0.6663  0.6317
 2421TIP3   OH231457   0.373   6.557  17.123 -0.4703 -0.2825 -0.2899
 2421TIP3    H131458   0.305   6.624  17.119 -1.2888 -1.0125  0.8254
 2421TIP3    H231459   0.337   6.483  17.076  0.3409 -0.0436 -1.3211
 2422TIP3   OH231460   5.104   1.304  18.444  0.6434  0.1306  0.0440
 2422TIP3    H131461   5.179   1.348  18.485 -0.1682  0.3378  1.3571
 2422TIP3    H231462   5.143   1.250  18.375  1.8965  1.0148  0.0208
 2423TIP3   OH231463   4.321   5.871  18.668  0.1112 -0.1792 -0.5552
 2423TIP3    H131464   4.314   5.861  18.573  1.4226  0.7875 -0.7807
 2423TIP3    H231465   4.376   5.948  18.681 -0.5658  0.0884  1.0081
 2424TIP3   OH231466   5.050   1.642  17.518  0.1313 -0.2764  0.6795
 2424TIP3    H131467   5.023   1.669  17.430  0.2461  1.4274  1.1332
 2424TIP3    H231468   4.982   1.580  17.545 -0.1805 -0.4397 -0.3966
 2425TIP3   OH231469   7.557   7.059  17.275 -0.2134  0.1441 -0.4959
 2425TIP3    H131470   7.519   7.109  17.203 -0.2839  1.0865  0.1879
 2425TIP3    H231471   7.622   7.117  17.314 -1.4284  0.3542  1.3336
 2426TIP3   OH231472   1.170   2.728  17.505 -0.5539  0.1954  0.0998
 2426TIP3    H131473   1.088   2.697  17.542 -0.9066  2.8362  1.8023
 2426TIP3    H231474   1.235   2.711  17.573 -0.3550  1.1320  0.1597
 2427TIP3   OH231475   4.340   7.608  17.338 -0.1394  0.2229  0.0635
 2427TIP3    H131476   4.273   7.655  17.288 -0.4143 -1.4011 -1.1719
 2427TIP3    H231477   4.368   7.537  17.280  1.1943 -0.3527  1.3564
 2428TIP3   OH231478   0.219   7.502  17.875 -0.4293  0.2894 -0.3205
 2428TIP3    H131479   0.184   7.525  17.789 -1.8413  1.3943  0.4949
 2428TIP3    H231480   0.263   7.582  17.904  0.9383 -0.4005 -0.4141
 2429TIP3   OH231481   6.209   4.174  17.977 -0.4550  0.0712  0.1876
 2429TIP3    H131482   6.174   4.202  18.061  1.7766 -0.0446  1.2529
 2429TIP3    H231483   6.253   4.251  17.943 -2.5275  0.5281 -1.6152
 2430TIP3   OH231484   7.286   2.991  18.607  0.0947  0.5318  0.3808
 2430TIP3    H131485   7.222   2.965  18.673  0.0367 -1.2041 -0.3124
 2430TIP3    H231486   7.354   3.036  18.657 -1.1894  1.5981  1.2512
 2431TIP3   OH231487   3.294   7.337  17.774  0.0595 -0.2641  0.0293
 2431TIP3    H131488   3.330   7.249  17.783 -0.0218 -0.2475  0.5885
 2431TIP3    H231489   3.370   7.393  17.760  0.4508 -0.0343  2.5841
 2432TIP3   OH231490   7.249   1.372  17.517 -0.4161  0.2093  0.3532
 2432TIP3    H131491   7.199   1.331  17.447  1.0962 -0.2607 -0.5086
 2432TIP3    H231492   7.202   1.350  17.597  0.6908 -4.0446  0.0855
 2433TIP3   OH231493   5.726   2.191  19.032 -0.7488  0.6571  0.3430
 2433TIP3    H131494   5.734   2.216  18.940  0.3627  0.3595  0.3405
 2433TIP3    H231495   5.803   2.229  19.074 -0.8363  0.1369  0.9993
 2434TIP3   OH231496   1.132   1.635  19.060 -0.2789  0.0682 -0.5435
 2434TIP3    H131497   1.099   1.702  19.119  0.0912 -1.4300  1.4853
 2434TIP3    H231498   1.225   1.655  19.050 -0.1994 -0.0575 -0.0625
 2435TIP3   OH231499   3.123   4.167  17.902 -0.1161  0.9494  0.4445
 2435TIP3    H131500   3.055   4.173  17.969  0.8369 -0.1341  1.5495
 2435TIP3    H231501   3.204   4.187  17.948  0.6108 -0.2013 -0.2887
 2436TIP3   OH231502   6.948   7.022  19.208 -0.0163  0.1067  0.1595
 2436TIP3    H131503   6.856   6.997  19.202  0.1654 -0.0822 -3.3320
 2436TIP3    H231504   6.990   6.947  19.250 -1.1567 -0.6418  0.0095
 2437TIP3   OH231505   5.033   7.412  17.806  0.5228 -0.0412  0.0444
 2437TIP3    H131506   4.970   7.343  17.827  0.2029  0.3526  0.3914
 2437TIP3    H231507   5.047   7.405  17.712  1.9072 -1.7928  0.3157
 2438TIP3   OH231508   1.860   1.513  18.980 -0.3454  0.3256  0.1289
 2438TIP3    H131509   1.832   1.601  18.956 -1.1496 -0.1988 -0.8964
 2438TIP3    H231510   1.785   1.475  19.025 -0.1489  0.0178  0.2019
 2439TIP3   OH231511   4.447   7.012  18.403  0.0580 -0.4931 -0.2779
 2439TIP3    H131512   4.530   6.985  18.441  0.7739 -0.1080 -1.5126
 2439TIP3    H231513   4.420   7.088  18.455  0.9667 -0.0291 -0.4727
 2440TIP3   OH231514   5.181   4.691  17.551 -0.2516 -0.5198  0.1931
 2440TIP3    H131515   5.114   4.700  17.618  0.0730 -0.1100  0.4620
 2440TIP3    H231516   5.241   4.625  17.586  0.3088  0.2109  0.6350
 2441TIP3   OH231517   7.485   6.965  18.823  0.2903  0.0389  0.1662
 2441TIP3    H131518   7.455   6.902  18.758  1.8199 -0.8189  0.2471
 2441TIP3    H231519   7.431   7.043  18.808 -2.2786 -1.5295  0.6643
 2442TIP3   OH231520   4.918   6.705  19.462  0.1363  0.4371  0.2466
 2442TIP3    H131521   4.830   6.717  19.497  0.1642  0.9616  0.1538
 2442TIP3    H231522   4.975   6.722  19.537  0.1377 -1.4917  0.7240
 2443TIP3   OH231523   4.605   0.721  19.649  0.0992  0.0070 -0.1273
 2443TIP3    H131524   4.650   0.783  19.592  2.7678 -0.8811  0.8637
 2443TIP3    H231525   4.603   0.765  19.734 -0.5668 -0.1531 -0.0527
 2444TIP3   OH231526   6.913   2.199  18.345  0.2047 -0.2562 -0.1745
 2444TIP3    H131527   6.927   2.239  18.431 -1.1361 -2.0837  0.9683
 2444TIP3    H231528   6.969   2.249  18.286  2.5610 -0.0496  2.0589
 2445TIP3   OH231529   1.189   5.421  19.420  0.0033 -0.5140  0.4152
 2445TIP3    H131530   1.126   5.409  19.349  1.7883 -0.1845 -1.3290
 2445TIP3    H231531   1.194   5.336  19.463 -2.7851 -0.1233  1.6832
 2446TIP3   OH231532   0.853   6.421  16.665  0.4860  0.5516  0.3434
 2446TIP3    H131533   0.900   6.498  16.633 -1.8598  1.3184 -1.6077
 2446TIP3    H231534   0.853   6.360  16.592  0.1747 -0.2636  1.0016
 2447TIP3   OH231535   2.307   5.426  19.264 -0.6960  0.3489 -0.2680
 2447TIP3    H131536   2.363   5.437  19.341 -2.6337  0.5827  1.1865
 2447TIP3    H231537   2.331   5.497  19.205 -1.1707  2.0054  1.4460
 2448TIP3   OH231538   6.917   2.773  18.084 -0.0016  0.2605 -0.3679
 2448TIP3    H131539   6.856   2.796  18.015 -1.8040 -0.9361  0.7239
 2448TIP3    H231540   6.932   2.679  18.072  2.4229  0.6630 -1.1462
 2449TIP3   OH231541   7.045   2.419  17.541 -0.5371  0.0451  0.1808
 2449TIP3    H131542   7.025   2.440  17.633 -1.4897 -0.1132  0.0161
 2449TIP3    H231543   7.010   2.330  17.529 -0.5297  0.1178 -0.3749
 2450TIP3   OH231544   3.346   0.787  16.864  0.7932  0.4566  0.7995
 2450TIP3    H131545   3.330   0.824  16.778  0.2403 -0.2895  0.5678
 2450TIP3    H231546   3.393   0.705  16.847 -1.3366 -0.9007  0.9998
 2451TIP3   OH231547   4.945   4.524  17.059 -0.6989  0.0088 -0.5056
 2451TIP3    H131548   4.950   4.433  17.089 -0.7596  0.2186  0.1623
 2451TIP3    H231549   4.912   4.572  17.135 -0.2601  0.6509 -0.7138
 2452TIP3   OH231550   1.855   7.235  17.540  0.9578 -0.5456 -0.9111
 2452TIP3    H131551   1.896   7.257  17.623 -2.3889 -1.0167  1.0290
 2452TIP3    H231552   1.865   7.314  17.487  1.1475  0.6279  0.7993
 2453TIP3   OH231553   7.404   1.142  17.179 -0.1891 -0.7270  0.3696
 2453TIP3    H131554   7.447   1.171  17.260  0.4794 -0.0797 -0.2084
 2453TIP3    H231555   7.382   1.050  17.196  1.8142 -1.2226  0.5458
 2454TIP3   OH231556   2.077   1.238  17.738 -0.8886 -0.1053 -0.2829
 2454TIP3    H131557   2.072   1.253  17.832 -1.3554 -0.2077 -0.2901
 2454TIP3    H231558   2.114   1.319  17.703 -1.6937  0.3432 -0.1199
 2455TIP3   OH231559   1.105   3.126  18.874 -1.1674  0.3782 -0.1669
 2455TIP3    H131560   1.075   3.050  18.924  0.8410  0.4374  1.2371
 2455TIP3    H231561   1.154   3.179  18.937  0.0869  1.2807 -1.8168
 2456TIP3   OH231562   5.903   7.562  18.263 -0.4157 -0.3503  0.4336
 2456TIP3    H131563   5.975   7.503  18.285 -0.4554 -0.2199  0.9486
 2456TIP3    H231564   5.827   7.504  18.253  0.1241 -0.7187 -2.1163
 2457TIP3   OH231565   2.301   5.960  16.724  0.3171 -0.7660 -0.6576
 2457TIP3    H131566   2.391   5.927  16.721  0.2002 -1.1890  0.2376
 2457TIP3    H231567   2.308   6.051  16.695  1.1415 -0.5874  0.0662
 2458TIP3   OH231568   2.379   6.508  18.891  0.1035  0.1443  0.3732
 2458TIP3    H131569   2.339   6.541  18.811  0.6718 -0.6373 -0.2376
 2458TIP3    H231570   2.339   6.561  18.961 -0.1653  1.0380 -0.4390
 2459TIP3   OH231571   0.639   5.290  19.141 -0.1918 -0.3997  0.0886
 2459TIP3    H131572   0.545   5.307  19.135  0.0033  0.6193 -0.1644
 2459TIP3    H231573   0.680   5.375  19.131  0.7521 -0.7593  0.7242
 2460TIP3   OH231574   0.237   3.336  19.080  0.0151 -0.2763  0.1752
 2460TIP3    H131575   0.322   3.300  19.054  0.4265 -0.7853  2.0517
 2460TIP3    H231576   0.258   3.408  19.139 -0.8529  0.1506 -0.0176
 2461TIP3   OH231577   4.288   4.647  17.965 -0.5744 -0.2992  0.5331
 2461TIP3    H131578   4.293   4.669  18.058 -0.6545 -0.0233  0.4699
 2461TIP3    H231579   4.196   4.624  17.951 -0.4002 -1.1411  0.7055
 2462TIP3   OH231580   5.357   1.994  19.490 -0.2939 -0.0626  0.0044
 2462TIP3    H131581   5.429   2.010  19.429 -1.5884 -0.9962 -1.8574
 2462TIP3    H231582   5.398   1.999  19.577  2.1043 -1.0577 -0.9761
 2463TIP3   OH231583   3.282   0.559  18.829  0.1988  0.3287 -0.4429
 2463TIP3    H131584   3.200   0.588  18.869 -1.0197  0.2901 -2.7277
 2463TIP3    H231585   3.256   0.490  18.768  2.2424 -1.1795  0.2763
 2464TIP3   OH231586   5.370   5.623  19.132 -0.1792 -0.1113 -0.0689
 2464TIP3    H131587   5.312   5.591  19.202 -0.2891 -0.5224 -0.3398
 2464TIP3    H231588   5.403   5.707  19.164 -0.2262 -0.2955  0.4784
 2465TIP3   OH231589   6.941   3.867  18.835 -0.2928  0.0008 -0.0166
 2465TIP3    H131590   6.869   3.808  18.858  0.0554  0.0406  1.3081
 2465TIP3    H231591   6.911   3.954  18.861  0.0319  0.0907  0.0679
 2466TIP3   OH231592   7.374   0.938  17.605  0.4782 -0.9608 -0.0299
 2466TIP3    H131593   7.296   0.975  17.646  1.7061 -0.8550  2.3654
 2466TIP3    H231594   7.345   0.853  17.572 -0.7591 -0.7136  0.3711
 2467TIP3   OH231595   6.504   6.166  16.649  0.2263  0.0817  0.2457
 2467TIP3    H131596   6.421   6.121  16.635  0.0662  0.9027 -1.7245
 2467TIP3    H231597   6.568   6.113  16.603  0.4481  0.5381  0.0202
 2468TIP3   OH231598   7.178   5.967  18.196  0.3569 -0.0310 -0.0739
 2468TIP3    H131599   7.087   5.992  18.215 -0.4631 -1.2052 -2.0925
 2468TIP3    H231600   7.181   5.873  18.213  1.5023  0.1722  0.9421
 2469TIP3   OH231601   3.384   6.099  16.619  0.1501  0.1572 -0.5797
 2469TIP3    H131602   3.465   6.139  16.650  0.1174 -0.3495  0.1917
 2469TIP3    H231603   3.402   6.073  16.529  0.0184  2.3170 -1.2884
 2470TIP3   OH231604   1.973   6.113  17.597  0.4831  0.1942  0.1006
 2470TIP3    H131605   1.929   6.197  17.602 -2.0262 -0.9912 -0.4218
 2470TIP3    H231606   1.947   6.077  17.512  0.7054 -1.4947  0.7066
 2471TIP3   OH231607   4.609   5.165  16.868 -0.1525 -0.0342  0.1383
 2471TIP3    H131608   4.562   5.192  16.790  0.0805  0.2267  0.0875
 2471TIP3    H231609   4.697   5.203  16.858  0.2778 -1.0432 -0.0831
 2472TIP3   OH231610   0.170   6.740  17.062  0.5897 -0.4876 -0.0752
 2472TIP3    H131611   0.133   6.737  16.974 -0.1346 -0.5911  0.2245
 2472TIP3    H231612   0.093   6.741  17.120  1.0113  1.5714  0.5103
 2473TIP3   OH231613   3.235   0.006  18.766 -0.1239 -0.0680  0.2078
 2473TIP3    H131614   3.289   0.058  18.708  0.1811 -0.7758 -0.1594
 2473TIP3    H231615   3.159  -0.019  18.713  0.0278 -0.4963  0.1878
 2474TIP3   OH231616   4.460   7.301  17.766  0.1046 -0.2805  0.2333
 2474TIP3    H131617   4.416   7.336  17.689  0.7018  0.6041  0.2768
 2474TIP3    H231618   4.407   7.226  17.793 -0.8911  0.2586 -0.1969
 2475TIP3   OH231619   3.044   2.970  19.137 -0.3833 -0.5978  0.2104
 2475TIP3    H131620   3.024   2.950  19.228 -0.2297  2.8734  1.1760
 2475TIP3    H231621   2.963   2.952  19.090 -1.5251  0.4499  1.6506
 2476TIP3   OH231622   7.653   0.595  18.599  0.8242  0.5807 -0.0417
 2476TIP3    H131623   7.610   0.580  18.514  0.2814  0.5207  0.2379
 2476TIP3    H231624   7.616   0.678  18.629 -0.2779 -0.2298  0.9194
 2477TIP3   OH231625   2.201   5.368  18.153  0.2089  0.0258 -0.3455
 2477TIP3    H131626   2.246   5.336  18.075  1.4097  1.1532 -0.1310
 2477TIP3    H231627   2.221   5.462  18.156  1.2457 -0.2141  2.0027
 2478TIP3   OH231628   3.329   6.091  17.631 -0.4610  0.0863  0.5732
 2478TIP3    H131629   3.408   6.074  17.683  0.1524 -1.3969 -0.7622
 2478TIP3    H231630   3.267   6.130  17.693  0.9323  0.2672  1.9098
 2479TIP3   OH231631   0.423   0.568  17.940  0.3508 -0.4263  0.6718
 2479TIP3    H131632   0.421   0.642  18.000  0.7745 -0.6773  1.0041
 2479TIP3    H231633   0.354   0.586  17.876  1.0519  0.7121  0.2034
 2480TIP3   OH231634   1.857   3.224  16.536  0.8659  0.0028  0.1081
 2480TIP3    H131635   1.928   3.275  16.574  0.5588  0.1231  0.5267
 2480TIP3    H231636   1.847   3.148  16.595  1.4567 -0.6521 -0.6196
 2481TIP3   OH231637   3.426   0.267  18.925  0.1195  0.0990  0.2061
 2481TIP3    H131638   3.369   0.293  18.997  0.0936 -0.6248  0.4521
 2481TIP3    H231639   3.427   0.343  18.866 -0.6452  0.3245  0.4803
 2482TIP3   OH231640   2.146   6.042  16.395 -0.1037 -0.3283  0.5197
 2482TIP3    H131641   2.226   6.073  16.437  0.6499 -1.7480  0.2103
 2482TIP3    H231642   2.177   5.997  16.316 -1.4288  1.5457 -1.1579
 2483TIP3   OH231643   3.234   1.943  18.533  0.4949  0.6091 -0.2365
 2483TIP3    H131644   3.290   1.907  18.602 -0.9327 -2.5297 -0.5593
 2483TIP3    H231645   3.147   1.909  18.552 -0.3745  1.4445 -2.3901
 2484TIP3   OH231646   0.012   4.732  17.990  0.1511 -0.2469 -0.5395
 2484TIP3    H131647  -0.038   4.700  18.066 -1.2410  0.2882 -1.2048
 2484TIP3    H231648  -0.011   4.824  17.983  2.7123  0.5338  0.2363
 2485TIP3   OH231649   1.997   0.284  19.120  0.2512 -0.3858 -0.1265
 2485TIP3    H131650   1.969   0.295  19.029  0.4505  1.7934  0.0260
 2485TIP3    H231651   2.040   0.366  19.142  0.3208 -0.9206  1.9186
 2486TIP3   OH231652   1.585   6.284  18.666  0.2076  0.2544 -1.1152
 2486TIP3    H131653   1.589   6.264  18.573  0.5910 -0.3612 -0.9672
 2486TIP3    H231654   1.665   6.248  18.703 -1.0828 -1.8075 -0.1212
 2487TIP3   OH231655   4.974   6.492  17.300 -0.3021  0.0962  0.7439
 2487TIP3    H131656   4.919   6.540  17.238 -1.4686 -0.7118  1.0936
 2487TIP3    H231657   5.045   6.456  17.247  0.5331  2.0577  0.4593
 2488TIP3   OH231658   7.328   6.414  18.122 -0.1467  0.1070  0.5132
 2488TIP3    H131659   7.383   6.442  18.049  0.9547 -1.4348  0.7210
 2488TIP3    H231660   7.286   6.334  18.092  1.6367 -1.5174  2.0949
 2489TIP3   OH231661   5.362   6.636  17.569  0.2886  0.0454 -0.8237
 2489TIP3    H131662   5.382   6.547  17.539  0.0198 -0.5366  0.5820
 2489TIP3    H231663   5.269   6.632  17.593 -0.0687  1.0875 -1.9324
 2490TIP3   OH231664   4.259   4.674  18.274 -0.3985 -0.0898  0.1746
 2490TIP3    H131665   4.228   4.638  18.357 -0.8428 -0.7064 -0.2414
 2490TIP3    H231666   4.207   4.753  18.260 -0.3069  0.0266  0.4914
 2491TIP3   OH231667   7.668   0.648  17.556  0.0588  0.4839  0.2478
 2491TIP3    H131668   7.755   0.656  17.516  1.3188  1.1938  2.9223
 2491TIP3    H231669   7.631   0.570  17.515  1.4928  0.7662 -1.7485
 2492TIP3   OH231670   0.210   7.115  19.380  0.1983  0.1647 -0.0728
 2492TIP3    H131671   0.285   7.157  19.421 -0.5303 -0.2593  1.7739
 2492TIP3    H231672   0.144   7.184  19.372 -0.4245 -0.1974  1.5061
 2493TIP3   OH231673   1.944   2.939  17.944 -0.0695  0.3839 -0.3983
 2493TIP3    H131674   1.892   3.002  17.995 -2.5665 -1.0335 -1.0493
 2493TIP3    H231675   2.005   2.903  18.008 -0.8502  1.0770  0.7979
 2494TIP3   OH231676   3.948   2.471  18.773 -0.5812  0.6887  0.2368
 2494TIP3    H131677   4.030   2.515  18.754  0.0002  0.0214  1.1126
 2494TIP3    H231678   3.956   2.386  18.729 -0.7739  0.6007  0.3708
 2495TIP3   OH231679   3.787   5.194  17.801  0.0937 -0.1789  0.3616
 2495TIP3    H131680   3.723   5.265  17.808 -1.4940 -1.5179  0.2433
 2495TIP3    H231681   3.817   5.197  17.710  0.4576  0.6634  0.5028
 2496TIP3   OH231682   2.955   4.788  19.072 -0.0311  0.1590 -0.1635
 2496TIP3    H131683   2.980   4.837  19.150 -0.3357  1.0052 -0.5898
 2496TIP3    H231684   2.953   4.697  19.101  1.6810  0.2575  0.3487
 2497TIP3   OH231685   1.199   5.732  18.888  0.4392 -0.5926  0.4353
 2497TIP3    H131686   1.249   5.652  18.899  0.3494 -0.5322  1.3147
 2497TIP3    H231687   1.246   5.798  18.938 -0.3596 -0.4734  1.0453
 2498TIP3   OH231688   5.417   5.810  18.320  0.2734 -0.1066  0.4806
 2498TIP3    H131689   5.509   5.788  18.332  0.3792  0.8278  1.5476
 2498TIP3    H231690   5.417   5.879  18.254  0.4836  0.8277  1.4243
 2499TIP3   OH231691   2.180   7.502  18.643 -0.3037 -0.5754  0.3448
 2499TIP3    H131692   2.112   7.518  18.710  0.1008 -1.5047  1.0062
 2499TIP3    H231693   2.136   7.521  18.560 -0.6432  1.1900  0.8816
 2500TIP3   OH231694   2.938   3.671  17.785 -0.3765  0.4749  0.7815
 2500TIP3    H131695   2.963   3.763  17.796  1.5748 -0.0645  1.4211
 2500TIP3    H231696   3.016   3.622  17.813 -1.1455 -1.3671 -0.1249
 2501TIP3   OH231697   5.061   1.950  18.574  0.2509 -0.1395 -0.3025
 2501TIP3    H131698   5.145   1.990  18.551 -0.7516  0.6733 -2.9295
 2501TIP3    H231699   4.996   2.004  18.529 -1.5316 -1.9572 -0.0498
 2502TIP3   OH231700   3.583   3.389  17.591 -0.4410  0.2792  0.1162
 2502TIP3    H131701   3.640   3.421  17.521  1.2863 -0.6872  1.0216
 2502TIP3    H231702   3.637   3.391  17.669 -0.5430 -3.6472  0.4662
 2503TIP3   OH231703   7.493   1.302  17.372 -0.2146  0.9494  0.5309
 2503TIP3    H131704   7.417   1.325  17.425  0.3189  1.7575  0.9718
 2503TIP3    H231705   7.510   1.381  17.319 -0.8214  0.1223 -0.9702
 2504TIP3   OH231706   3.179   6.154  18.554  0.2637  0.3115 -0.5716
 2504TIP3    H131707   3.203   6.207  18.630 -0.2547 -1.0399  0.5814
 2504TIP3    H231708   3.157   6.069  18.591 -2.4364  0.3171 -1.9368
 2505TIP3   OH231709   3.073   5.950  19.190  0.9049  1.0195 -0.7088
 2505TIP3    H131710   3.164   5.928  19.172  1.0487 -0.4896  1.3713
 2505TIP3    H231711   3.077   6.019  19.256  0.7058 -0.9042  1.4685
 2506TIP3   OH231712   5.872   2.792  18.560 -0.7281  0.1456 -0.4195
 2506TIP3    H131713   5.850   2.814  18.651  0.3506  0.4333 -0.2077
 2506TIP3    H231714   5.863   2.696  18.557 -1.4096  0.1954 -0.1979
 2507TIP3   OH231715   3.199   3.904  19.226  0.4466  0.8290  1.0177
 2507TIP3    H131716   3.219   3.959  19.150  1.1096 -0.8439 -0.0807
 2507TIP3    H231717   3.248   3.943  19.298  2.5782  0.5206 -0.2034
 2508TIP3   OH231718   0.772   2.550  18.177 -0.3287 -0.1180 -0.2515
 2508TIP3    H131719   0.730   2.625  18.219 -0.3916 -0.1506 -0.2572
 2508TIP3    H231720   0.866   2.566  18.189 -0.3178  0.3916 -1.0001
 2509TIP3   OH231721   5.556   2.555  18.393  0.3419 -0.0450  0.1191
 2509TIP3    H131722   5.499   2.615  18.441  1.6484 -0.5124  2.4388
 2509TIP3    H231723   5.636   2.605  18.379  0.5883 -0.4846 -0.0514
 2510TIP3   OH231724   3.898   2.835  18.601  0.1694  0.3841  0.0716
 2510TIP3    H131725   3.823   2.879  18.640  0.1851 -0.5228  1.1660
 2510TIP3    H231726   3.865   2.751  18.572  1.3918 -1.6038  3.8123
 2511TIP3   OH231727   6.604   4.772  17.305 -0.1022 -0.7452 -0.0563
 2511TIP3    H131728   6.692   4.787  17.271 -1.4351  2.0277 -2.6511
 2511TIP3    H231729   6.582   4.683  17.276  1.1503 -0.7727 -0.9999
 2512TIP3   OH231730   3.907   3.750  17.470  0.0159  0.2565 -0.4042
 2512TIP3    H131731   3.952   3.791  17.543 -0.1968  0.4120 -0.3565
 2512TIP3    H231732   3.976   3.707  17.419 -0.0391 -1.5602  0.9642
 2513TIP3   OH231733   0.362   2.168  18.487 -0.0291  0.2277  0.5987
 2513TIP3    H131734   0.436   2.113  18.463  0.4145  0.9788  0.2015
 2513TIP3    H231735   0.297   2.155  18.417  0.0605  0.1861  0.5236
 2514TIP3   OH231736   3.246   5.158  17.591 -0.4669  0.1993 -0.5586
 2514TIP3    H131737   3.296   5.087  17.630  0.2774 -0.2443 -2.2505
 2514TIP3    H231738   3.245   5.226  17.659  0.9925 -0.4283  0.1390
 2515TIP3   OH231739   2.655   6.016  19.400  0.5224 -0.4501 -0.4260
 2515TIP3    H131740   2.650   5.928  19.437  0.4416  0.0750  0.8521
 2515TIP3    H231741   2.730   6.056  19.443 -0.5859  0.7543  0.4814
 2516TIP3   OH231742   4.316   5.652  17.656  0.4246 -0.4119 -0.3637
 2516TIP3    H131743   4.341   5.588  17.722 -0.1501 -1.4241 -1.0976
 2516TIP3    H231744   4.270   5.601  17.589  0.4082  0.6861 -1.2229
 2517TIP3   OH231745   2.850   1.375  18.697  0.9495 -0.2906  0.8052
 2517TIP3    H131746   2.782   1.426  18.741 -0.4543  0.0548 -1.5953
 2517TIP3    H231747   2.916   1.440  18.671 -0.7990  0.4946 -2.1824
 2518TIP3   OH231748   1.583   7.172  17.085  0.5897  0.1997  0.1417
 2518TIP3    H131749   1.505   7.193  17.136  0.7943  0.2699  0.4271
 2518TIP3    H231750   1.550   7.125  17.008  0.2895  0.0037  0.3892
 2519TIP3   OH231751   0.898   0.731  19.245  0.1894 -0.0617  0.3086
 2519TIP3    H131752   0.899   0.809  19.301  1.0549  0.0411  0.1706
 2519TIP3    H231753   0.868   0.763  19.160  1.1387  0.2666  0.0792
 2520TIP3   OH231754   2.969   6.393  18.863 -0.4935  0.0416  0.3499
 2520TIP3    H131755   3.003   6.477  18.893  1.2682 -0.7825  0.8031
 2520TIP3    H231756   2.900   6.371  18.926 -0.9790  1.1380  0.2154
 2521TIP3   OH231757   4.421   1.474  16.948 -0.3833 -0.4103 -0.1798
 2521TIP3    H131758   4.377   1.389  16.949  0.3963 -0.8309 -0.4589
 2521TIP3    H231759   4.505   1.457  16.991 -0.6621  0.4715  0.7396
 2522TIP3   OH231760   2.043   2.406  17.283  0.1572 -0.2860  0.0659
 2522TIP3    H131761   2.050   2.491  17.326 -0.2832  0.3607 -1.0776
 2522TIP3    H231762   2.133   2.378  17.267  0.3141 -0.3267  0.9636
 2523TIP3   OH231763   0.004   1.678  17.454 -0.7513 -0.2246 -0.4945
 2523TIP3    H131764   0.014   1.584  17.446 -0.2695 -0.1833 -0.4173
 2523TIP3    H231765  -0.050   1.703  17.378  0.3433 -0.3755 -1.3496
 2524TIP3   OH231766   0.759   7.257  17.789  0.5131  0.2747 -0.2113
 2524TIP3    H131767   0.666   7.241  17.775  0.6299 -1.1770  0.4222
 2524TIP3    H231768   0.802   7.177  17.757  1.3857  0.2168  1.0119
 2525TIP3   OH231769   6.914   3.150  17.873  0.2698  0.3645  0.0998
 2525TIP3    H131770   6.867   3.227  17.903  0.9490  1.1436 -0.7834
 2525TIP3    H231771   6.848   3.080  17.873 -0.4742  1.0553  0.4216
 2526TIP3   OH231772   6.979   1.841  19.418 -0.0377 -0.1809  0.3032
 2526TIP3    H131773   6.912   1.780  19.449  0.3409 -0.5587  0.3897
 2526TIP3    H231774   7.019   1.797  19.343 -0.4515  0.4084 -0.2692
 2527TIP3   OH231775   4.226   2.918  18.702  0.3061  0.8879 -0.0932
 2527TIP3    H131776   4.290   2.850  18.726 -1.2037 -0.5434  0.0820
 2527TIP3    H231777   4.239   2.930  18.608 -0.0904 -0.4590 -0.3503
 2528TIP3   OH231778   0.741   1.090  17.622  0.5953 -0.4659 -0.3626
 2528TIP3    H131779   0.713   1.018  17.565  2.5499 -0.3180 -1.6049
 2528TIP3    H231780   0.732   1.168  17.567 -2.1494  0.4397  1.1746
 2529TIP3   OH231781   7.079   3.407  18.039 -0.2355 -0.1455  0.3344
 2529TIP3    H131782   7.010   3.469  18.063 -0.1215  0.6852 -1.3635
 2529TIP3    H231783   7.053   3.326  18.082 -2.3200  0.1310 -0.2583
 2530TIP3   OH231784   4.182   5.476  19.248  0.3816  0.2243 -0.3163
 2530TIP3    H131785   4.265   5.479  19.295  0.8048 -0.0707 -1.0368
 2530TIP3    H231786   4.197   5.530  19.170  0.9761 -2.3982 -2.1292
 2531TIP3   OH231787   5.514   2.077  17.084  0.2053 -0.4391  0.0556
 2531TIP3    H131788   5.522   2.140  17.012  0.0847 -0.6843 -0.1720
 2531TIP3    H231789   5.573   2.111  17.152 -0.5150  0.4095  0.2927
 2532TIP3   OH231790   2.168   4.378  18.652  0.0423  0.1459 -0.2736
 2532TIP3    H131791   2.171   4.422  18.737  0.6850 -0.6138  0.1077
 2532TIP3    H231792   2.076   4.383  18.626 -0.1432  0.4853  0.4113
 2533TIP3   OH231793   0.836   7.541  17.803 -0.3580  0.1102  0.0629
 2533TIP3    H131794   0.760   7.577  17.848 -0.1391 -0.3481  0.8088
 2533TIP3    H231795   0.825   7.446  17.809  0.5042  0.0331  0.5911
 2534TIP3   OH231796   2.754   2.403  18.796 -1.0570  0.4107  0.4571
 2534TIP3    H131797   2.733   2.475  18.738 -0.6705 -0.3600 -0.6765
 2534TIP3    H231798   2.675   2.348  18.797 -0.2593 -0.8521 -1.3227
 2535TIP3   OH231799   5.163   3.713  17.568  0.1062  0.3925 -0.4474
 2535TIP3    H131800   5.075   3.675  17.559  0.0690  0.2775  0.3013
 2535TIP3    H231801   5.196   3.675  17.649  0.5202  1.0904 -0.2888
 2536TIP3   OH231802   2.180   7.637  16.879 -0.6568  0.1571 -0.2621
 2536TIP3    H131803   2.142   7.695  16.814 -0.0186 -0.3324 -1.0898
 2536TIP3    H231804   2.210   7.561  16.829  0.0447 -0.1310  0.5730
 2537TIP3   OH231805   5.776   2.223  19.424 -0.2655  0.2632  0.3125
 2537TIP3    H131806   5.732   2.308  19.428 -0.1189  0.4462 -1.1418
 2537TIP3    H231807   5.803   2.204  19.514  0.6535  2.2653  0.5020
 2538TIP3   OH231808   0.385   2.677  19.520  0.2959  0.1176 -0.3381
 2538TIP3    H131809   0.443   2.721  19.457 -1.0220  1.6822 -0.5150
 2538TIP3    H231810   0.439   2.606  19.555  1.6053  0.1782 -2.0481
 2539TIP3   OH231811   0.667   7.046  17.531  0.0579 -0.0472  0.3334
 2539TIP3    H131812   0.587   7.084  17.567 -1.3921 -1.8743 -0.7380
 2539TIP3    H231813   0.726   7.120  17.518 -1.0081  1.2129  2.2080
 2540TIP3   OH231814   6.873   6.055  19.047 -0.3962  0.3454  0.0613
 2540TIP3    H131815   6.801   6.110  19.015  0.9926  2.1679 -0.1138
 2540TIP3    H231816   6.951   6.091  19.004  0.6901 -1.2614  0.6217
 2541TIP3   OH231817   5.146   2.666  19.597 -0.0025  0.6011 -0.3732
 2541TIP3    H131818   5.078   2.607  19.629 -0.0958 -0.0753 -1.7565
 2541TIP3    H231819   5.131   2.672  19.503  0.2842  2.5023 -0.3524
 2542TIP3   OH231820   2.795   3.216  16.642  0.7916  0.5281 -0.3068
 2542TIP3    H131821   2.769   3.301  16.677  1.6915  1.0868 -0.9375
 2542TIP3    H231822   2.885   3.229  16.612  1.5210 -1.0975  1.0265
 2543TIP3   OH231823   4.907   6.344  16.552  0.5869 -0.2401 -0.1022
 2543TIP3    H131824   4.920   6.438  16.549  1.4478 -0.1248  3.0528
 2543TIP3    H231825   4.812   6.332  16.545  0.2001  1.1231  2.0184
 2544TIP3   OH231826   2.956   1.548  18.056 -0.2071 -0.4064 -0.4670
 2544TIP3    H131827   2.947   1.598  18.137 -3.8697  1.3778 -1.7219
 2544TIP3    H231828   3.047   1.559  18.031  0.5171  0.7920  2.2848
 2545TIP3   OH231829   3.507   6.946  17.095  0.0033 -0.9032  0.3490
 2545TIP3    H131830   3.466   6.872  17.050  0.3125 -0.3685 -0.8536
 2545TIP3    H231831   3.575   6.907  17.150  0.2242 -1.5053 -0.3484
 2546TIP3   OH231832   6.159   1.731  18.037  0.4110  0.7358 -0.0773
 2546TIP3    H131833   6.167   1.652  18.090 -0.4331  1.2590  0.8568
 2546TIP3    H231834   6.211   1.713  17.959  0.5114 -0.6051  0.2825
 2547TIP3   OH231835   5.463   6.627  18.040 -0.4800  0.1749  0.0900
 2547TIP3    H131836   5.476   6.709  18.087  2.4324  0.3619 -0.8412
 2547TIP3    H231837   5.525   6.566  18.080 -1.4387 -1.0958 -0.2993
 2548TIP3   OH231838   1.514   3.610  16.952 -0.1878 -0.3403  0.2001
 2548TIP3    H131839   1.467   3.617  16.869  0.9611 -1.4715 -0.5642
 2548TIP3    H231840   1.606   3.624  16.930 -0.1020  2.0291  1.7069
 2549TIP3   OH231841   7.014   0.088  18.913  0.0528  0.8324  0.4580
 2549TIP3    H131842   6.998   0.014  18.853  1.0152 -0.4786  1.7456
 2549TIP3    H231843   6.931   0.135  18.915 -0.3399  0.2562 -1.0366
 2550TIP3   OH231844   5.036   6.902  17.772  0.2326  0.2296  0.4517
 2550TIP3    H131845   5.037   6.836  17.702  0.4874  0.7809 -0.0667
 2550TIP3    H231846   5.125   6.899  17.809 -0.0293 -0.3752  1.0614
 2551TIP3   OH231847   1.698   5.988  17.045 -0.0651 -0.3089  0.2868
 2551TIP3    H131848   1.769   5.936  17.083 -0.6603 -0.7451  0.8179
 2551TIP3    H231849   1.708   6.075  17.084  1.8853  0.4988 -1.7640
 2552TIP3   OH231850   1.307   2.785  18.310  0.1051  0.1725 -0.3345
 2552TIP3    H131851   1.242   2.811  18.245 -0.4220 -0.1543  0.0457
 2552TIP3    H231852   1.255   2.764  18.388  0.7328  0.6812  0.2321
 2553TIP3   OH231853   0.962   5.394  18.115 -0.0041  0.3382  0.5111
 2553TIP3    H131854   1.020   5.431  18.182 -0.1433 -0.3937  1.0570
 2553TIP3    H231855   0.882   5.371  18.163  0.0886 -0.6857  0.2078
 2554TIP3   OH231856   1.710   0.249  16.433  0.1119  0.3229  0.3379
 2554TIP3    H131857   1.711   0.344  16.446  0.6855  0.7043 -2.0853
 2554TIP3    H231858   1.755   0.235  16.350 -0.1063 -2.0849  0.5446
 2555TIP3   OH231859   2.640   6.242  17.069 -0.6726  0.6443 -0.3591
 2555TIP3    H131860   2.696   6.217  17.143 -0.9290  3.0270  0.7185
 2555TIP3    H231861   2.651   6.170  17.006  1.8964 -0.0284  0.7127
 2556TIP3   OH231862   4.167   3.455  18.201  0.5309  0.2666  0.1668
 2556TIP3    H131863   4.091   3.398  18.206 -0.1407  0.9869 -1.2950
 2556TIP3    H231864   4.157   3.516  18.273  0.6758 -0.7280  1.0595
 2557TIP3   OH231865   4.257   6.110  17.554 -0.2678 -0.1850 -0.0735
 2557TIP3    H131866   4.186   6.169  17.579 -0.4390 -0.9298  1.2968
 2557TIP3    H231867   4.245   6.033  17.610  1.5789 -0.3641  0.1409
 2558TIP3   OH231868   6.058   7.574  16.609 -0.0512 -0.3179  0.6157
 2558TIP3    H131869   5.972   7.547  16.578  0.7631 -0.8795 -1.3450
 2558TIP3    H231870   6.113   7.496  16.597  0.9839  0.3719  0.6835
 2559TIP3   OH231871   6.004   3.039  18.711 -0.2450  0.1983  0.4045
 2559TIP3    H131872   6.033   2.970  18.771 -0.6863 -0.8872 -0.6015
 2559TIP3    H231873   5.936   3.086  18.760  0.0447 -0.0888  1.0966
 2560TIP3   OH231874   6.846   4.120  18.866  0.0789 -0.7158  0.1582
 2560TIP3    H131875   6.888   4.190  18.916  1.7545 -0.9415 -0.8501
 2560TIP3    H231876   6.833   4.156  18.779  0.7054 -1.5230 -0.2960
 2561TIP3   OH231877   2.021   2.470  19.259 -0.3586  0.8238 -0.0286
 2561TIP3    H131878   2.084   2.524  19.211  0.3097 -0.8055 -1.0588
 2561TIP3    H231879   1.941   2.473  19.206 -0.2259  0.5625 -0.2447
 2562TIP3   OH231880   5.103   5.633  18.476  0.4683  0.3267 -0.6655
 2562TIP3    H131881   5.083   5.619  18.383 -1.3286 -1.0084 -0.1267
 2562TIP3    H231882   5.144   5.551  18.504  0.0799  0.3327 -0.0607
 2563TIP3   OH231883   2.017   1.446  18.739 -0.2285  0.2724  0.4604
 2563TIP3    H131884   1.980   1.454  18.827 -0.0985  0.6483  0.4820
 2563TIP3    H231885   2.007   1.533  18.701  1.6637  0.7297  0.8832
 2564TIP3   OH231886   0.039   4.521  19.137 -0.4428  0.4504 -0.0214
 2564TIP3    H131887   0.053   4.606  19.179 -0.9656  0.8652 -0.6598
 2564TIP3    H231888  -0.038   4.535  19.081  1.0681  0.3920 -2.2864
 2565TIP3   OH231889   0.812   3.205  18.215 -0.0726 -0.1735  0.4742
 2565TIP3    H131890   0.873   3.208  18.142  1.1968  2.1316  1.5094
 2565TIP3    H231891   0.760   3.285  18.207 -0.2587 -0.1385  1.7682
 2566TIP3   OH231892   2.072   6.213  18.543  0.2258  0.2575 -0.2090
 2566TIP3    H131893   2.132   6.232  18.615 -1.0607 -0.6784  1.1961
 2566TIP3    H231894   2.041   6.299  18.515  2.0048  0.7388 -0.8165
 2567TIP3   OH231895   1.736   6.403  17.924  0.2608  0.5188 -0.0474
 2567TIP3    H131896   1.746   6.453  17.843  1.9703  1.2128  0.5470
 2567TIP3    H231897   1.824   6.395  17.959 -0.2502 -1.0763  0.9998
 2568TIP3   OH231898   0.875   0.110  17.538 -0.0169 -0.3763  0.1459
 2568TIP3    H131899   0.807   0.119  17.605  0.9558 -0.8034  1.2277
 2568TIP3    H231900   0.943   0.172  17.565  0.1971 -0.2098 -0.7286
 2569TIP3   OH231901   5.732   4.292  18.783 -0.0015 -0.2795  0.3092
 2569TIP3    H131902   5.683   4.352  18.838  0.1983 -0.7012  0.9626
 2569TIP3    H231903   5.666   4.247  18.730 -0.0183  2.1285 -1.9142
 2570TIP3   OH231904   4.315   1.203  16.932 -0.5217 -0.0970 -0.0710
 2570TIP3    H131905   4.252   1.225  16.863 -1.7324 -0.9991  0.6901
 2570TIP3    H231906   4.264   1.150  16.994  0.2179  1.5746  2.0960
 2571TIP3   OH231907   3.566   4.297  18.292  0.4210  0.0527 -0.5899
 2571TIP3    H131908   3.604   4.350  18.362 -2.4016 -0.0523  1.1814
 2571TIP3    H231909   3.507   4.358  18.246  0.1004 -0.6025 -1.0628
 2572TIP3   OH231910   6.698   6.261  18.920 -0.5282  0.6024 -0.6751
 2572TIP3    H131911   6.604   6.273  18.907 -1.5190  0.9225  4.5224
 2572TIP3    H231912   6.723   6.334  18.977  2.6133 -0.1641 -0.9044
 2573TIP3   OH231913   2.670   0.771  17.823  0.5599 -0.1314  0.1160
 2573TIP3    H131914   2.668   0.678  17.843  0.7929 -0.1335  0.1255
 2573TIP3    H231915   2.658   0.814  17.908 -2.3147 -0.1574 -0.1712
 2574TIP3   OH231916   2.493   0.619  17.485 -0.0686 -0.2213 -0.4762
 2574TIP3    H131917   2.450   0.587  17.565 -0.5213 -0.1715 -0.6954
 2574TIP3    H231918   2.507   0.712  17.500  0.3597 -0.3240 -0.2307
 2575TIP3   OH231919   1.754   2.091  18.748  0.0385  0.0040  0.2523
 2575TIP3    H131920   1.752   2.008  18.797 -0.4039 -0.2493 -0.1868
 2575TIP3    H231921   1.773   2.064  18.658 -0.6687  0.3329  0.0069
 2576TIP3   OH231922   2.935   2.659  17.373 -0.1703  0.2743  0.5023
 2576TIP3    H131923   2.937   2.722  17.446  1.6666  1.6724 -0.6484
 2576TIP3    H231924   2.842   2.641  17.359 -0.7579  2.5338  1.0779
 2577TIP3   OH231925   0.165   2.130  18.307  0.1877 -0.2332  0.2429
 2577TIP3    H131926   0.144   2.057  18.249  2.2862 -0.3832 -0.3774
 2577TIP3    H231927   0.147   2.208  18.255 -0.7172 -0.3047  0.4284
 2578TIP3   OH231928   4.399   3.625  18.291  0.1781 -0.1913  0.2205
 2578TIP3    H131929   4.408   3.530  18.300 -1.1716 -0.4151 -0.4993
 2578TIP3    H231930   4.308   3.642  18.317 -0.4008  0.5480 -2.0700
 2579TIP3   OH231931   3.132   6.755  18.751 -0.2657  0.0930  0.0530
 2579TIP3    H131932   3.049   6.800  18.737 -0.3295 -0.3007 -0.8790
 2579TIP3    H231933   3.175   6.804  18.821 -1.1525  0.4751  0.3351
 2580TIP3   OH231934   0.414   4.656  18.872 -0.4006 -0.3542  0.4046
 2580TIP3    H131935   0.470   4.654  18.950 -0.7498  1.3279  0.7508
 2580TIP3    H231936   0.472   4.629  18.801  0.1979 -0.9338  1.0887
 2581TIP3   OH231937   1.892   2.200  16.713 -0.2317  0.1657 -0.3645
 2581TIP3    H131938   1.877   2.126  16.772 -0.8348  0.2037 -0.4543
 2581TIP3    H231939   1.843   2.272  16.754 -0.3299  0.2928 -0.7032
 2582TIP3   OH231940   5.554   1.303  17.547 -0.0087  0.5968 -0.7069
 2582TIP3    H131941   5.489   1.362  17.585  1.3904  1.0540  1.1094
 2582TIP3    H231942   5.586   1.349  17.469 -1.8791  0.3064 -1.7204
 2583TIP3   OH231943   0.958   1.267  17.265 -0.0734  0.0143  0.1161
 2583TIP3    H131944   0.974   1.225  17.180 -0.4088 -1.2951  0.6802
 2583TIP3    H231945   0.889   1.215  17.305  0.8269 -0.0519  1.6459
 2584TIP3   OH231946   4.518   6.712  18.819  0.2899 -0.4303 -0.5370
 2584TIP3    H131947   4.436   6.681  18.782 -1.5189 -0.8428  3.3105
 2584TIP3    H231948   4.554   6.637  18.866  1.4421  0.4801  0.1219
 2585TIP3   OH231949   5.809   3.926  17.058  0.0331 -0.4360  0.1599
 2585TIP3    H131950   5.857   3.893  16.982  1.4673  1.0679  0.3563
 2585TIP3    H231951   5.754   3.853  17.085  1.3107 -1.8320 -0.8393
 2586TIP3   OH231952   4.590   7.305  16.879  0.7249  0.1111 -0.0795
 2586TIP3    H131953   4.522   7.243  16.854  0.4077  0.7731 -0.9249
 2586TIP3    H231954   4.666   7.250  16.898  0.3608 -0.5549 -0.4996
 2587TIP3   OH231955   6.022   3.464  17.502  0.3705 -0.1794  0.4594
 2587TIP3    H131956   5.952   3.401  17.483 -1.3162  1.2837  1.4804
 2587TIP3    H231957   6.023   3.521  17.425  0.5766 -0.3144  0.3624
 2588TIP3   OH231958   4.642   1.666  17.555  0.4445 -0.3672 -0.5017
 2588TIP3    H131959   4.634   1.757  17.581 -0.2460 -0.2601 -1.0547
 2588TIP3    H231960   4.709   1.630  17.613 -0.2628  0.1430  0.6613
 2589TIP3   OH231961   4.005   2.025  17.013  0.0781 -0.1654 -0.0110
 2589TIP3    H131962   4.063   1.984  16.948 -0.2276  0.3204 -0.5913
 2589TIP3    H231963   3.962   2.096  16.966 -0.6191 -0.2029  0.5525
 2590TIP3   OH231964   2.231   1.195  18.908 -0.0786  0.1546  0.0795
 2590TIP3    H131965   2.180   1.262  18.954 -0.5629 -0.5102  0.5254
 2590TIP3    H231966   2.272   1.144  18.978  0.6421  0.2454 -0.2640
 2591TIP3   OH231967   5.920   2.159  19.681 -0.9230 -0.3142  0.3365
 2591TIP3    H131968   5.961   2.073  19.690  1.1029  0.5218 -0.3570
 2591TIP3    H231969   5.993   2.220  19.674 -2.3075  1.3593 -0.2622
 2592TIP3   OH231970   2.137   4.271  17.746 -0.3010 -0.0726 -0.5585
 2592TIP3    H131971   2.069   4.313  17.799 -0.2718  2.5215 -2.4300
 2592TIP3    H231972   2.095   4.251  17.663  0.0280 -2.8615 -0.1777
 2593TIP3   OH231973   6.610   0.221  17.623  0.2381 -0.3377 -0.5485
 2593TIP3    H131974   6.690   0.267  17.598 -0.2370  0.4603 -0.6723
 2593TIP3    H231975   6.578   0.270  17.700 -1.0800  0.5290 -1.5857
 2594TIP3   OH231976   6.790   2.153  17.326  0.0241 -0.2412  0.1122
 2594TIP3    H131977   6.824   2.215  17.261 -0.1032  0.3739  0.6245
 2594TIP3    H231978   6.773   2.073  17.276 -1.4600  0.6731 -0.9335
 2595TIP3   OH231979   5.627   2.460  19.439 -0.1344  0.3737  0.3285
 2595TIP3    H131980   5.599   2.436  19.350  0.5854  0.0556  0.1802
 2595TIP3    H231981   5.565   2.528  19.466  0.0239  0.9280 -0.6578
 2596TIP3   OH231982   4.446   4.316  17.954 -0.0260  0.4750 -0.0608
 2596TIP3    H131983   4.505   4.252  17.995  0.7515 -1.1846 -3.4449
 2596TIP3    H231984   4.497   4.397  17.953  0.8791 -0.0774  0.0580
 2597TIP3   OH231985   3.588   6.736  17.247  0.0922 -0.1382 -0.0451
 2597TIP3    H131986   3.494   6.721  17.257  0.4974 -3.0880  0.2338
 2597TIP3    H231987   3.610   6.697  17.162  1.4089 -1.8641  1.0111
 2598TIP3   OH231988   2.638   3.368  17.707 -0.1891 -0.1599  0.2529
 2598TIP3    H131989   2.670   3.287  17.747 -0.1702 -0.5385 -0.5045
 2598TIP3    H231990   2.556   3.387  17.752 -0.4748 -0.9063  0.0604
 2599TIP3   OH231991   3.657   4.768  18.925  0.2495  0.3930  0.3915
 2599TIP3    H131992   3.589   4.833  18.948  0.0524  0.4680 -0.3843
 2599TIP3    H231993   3.624   4.726  18.846 -0.2702 -1.6186  1.6167
 2600TIP3   OH231994   0.795   4.070  17.701 -0.1879 -0.3655  0.1723
 2600TIP3    H131995   0.730   4.128  17.662 -1.7494 -1.4268  1.0852
 2600TIP3    H231996   0.877   4.118  17.696 -1.2031  1.3874 -0.2257
 2601TIP3   OH231997   5.339   2.300  18.833 -0.3071 -0.4180  0.9312
 2601TIP3    H131998   5.366   2.334  18.747  1.2209 -1.9031  0.7757
 2601TIP3    H231999   5.383   2.216  18.841  0.3639  0.0835  3.5776
 2602TIP3   OH232000   3.684   1.614  17.404  0.0306  0.1897 -0.0004
 2602TIP3    H132001   3.687   1.700  17.363 -0.7391 -0.1644 -0.8421
 2602TIP3    H232002   3.616   1.621  17.471 -0.1092  0.2083 -0.1450
 2603TIP3   OH232003   4.114   5.521  18.820  0.2662 -0.0476 -0.1787
 2603TIP3    H132004   4.168   5.595  18.846 -2.6812  2.1964  0.1018
 2603TIP3    H232005   4.079   5.486  18.902  0.3454 -0.7206 -0.4219
 2604TIP3   OH232006   6.836   5.257  16.604 -0.0951  0.1350  0.2289
 2604TIP3    H132007   6.851   5.307  16.524 -1.4597  0.1102 -0.0662
 2604TIP3    H232008   6.877   5.172  16.587  0.1211  0.3242 -0.2193
 2605TIP3   OH232009   4.007   1.310  18.561 -0.2946 -0.2059 -0.0111
 2605TIP3    H132010   3.959   1.271  18.634  0.9588 -1.5575  0.1291
 2605TIP3    H232011   3.960   1.283  18.483  0.1984 -1.5235  0.1270
 2606TIP3   OH232012   1.823   3.137  18.685  0.2421 -0.1710 -0.1953
 2606TIP3    H132013   1.865   3.101  18.607 -0.2513  0.3018 -0.6811
 2606TIP3    H232014   1.731   3.111  18.678  0.1176  0.1995  0.0410
 2607TIP3   OH232015   5.397   1.567  19.378 -0.2997 -0.1235 -0.3921
 2607TIP3    H132016   5.433   1.611  19.301 -1.1454 -0.6499 -1.1178
 2607TIP3    H232017   5.403   1.631  19.448 -0.0185  0.5621 -1.0337
 2608TIP3   OH232018   0.725   5.568  17.726  0.0812 -0.1407  0.6545
 2608TIP3    H132019   0.695   5.477  17.724  0.8701 -0.3839 -0.3836
 2608TIP3    H232020   0.816   5.563  17.756 -0.1410  0.4022  1.4851
 2609TIP3   OH232021   6.329   7.385  19.002 -0.0194  0.0115  0.1041
 2609TIP3    H132022   6.252   7.390  18.945  1.3051  0.3832 -1.7328
 2609TIP3    H232023   6.398   7.350  18.946  1.4434  0.7226  1.3927
 2610TIP3   OH232024   7.130   1.027  18.734 -0.5598 -0.0062 -0.3368
 2610TIP3    H132025   7.135   1.121  18.717  0.2983 -0.5319 -3.7542
 2610TIP3    H232026   7.037   1.007  18.733 -0.6854  0.5550 -1.6348
 2611TIP3   OH232027   2.816   0.734  16.949  0.4306 -0.4932 -0.3277
 2611TIP3    H132028   2.757   0.784  16.893  1.5808 -0.8966 -1.9858
 2611TIP3    H232029   2.863   0.677  16.889  1.0638 -1.6425  1.1916
 2612TIP3   OH232030   6.769   6.794  16.965  0.4655  0.0080  0.5995
 2612TIP3    H132031   6.767   6.877  16.918 -1.0119 -0.2459  0.1640
 2612TIP3    H232032   6.737   6.730  16.902 -1.8329 -0.3002  1.9689
 2613TIP3   OH232033   6.362   5.539  18.491  0.3849 -0.0738  0.5117
 2613TIP3    H132034   6.409   5.464  18.453 -0.3713  0.0672 -0.7489
 2613TIP3    H232035   6.401   5.615  18.448 -0.7157  0.0689 -0.2620
 2614TIP3   OH232036   0.652   1.569  19.093  0.7330 -0.0757  0.8864
 2614TIP3    H132037   0.678   1.645  19.041 -0.2321 -0.6283 -0.4310
 2614TIP3    H232038   0.735   1.524  19.112  1.1059  0.1132 -0.2136
 2615TIP3   OH232039   2.139   6.991  19.084  0.2684 -0.6798  0.7952
 2615TIP3    H132040   2.118   6.931  19.155  0.5301 -0.6088  0.9346
 2615TIP3    H232041   2.077   7.063  19.092 -0.6080 -1.3341  0.1137
 2616TIP3   OH232042   6.001   6.012  16.845 -0.0940  0.3677 -0.0607
 2616TIP3    H132043   5.914   6.033  16.880  1.1916  2.3600  2.2395
 2616TIP3    H232044   6.040   5.956  16.911  1.2748  1.6190  0.2376
 2617TIP3   OH232045   4.359   2.591  19.398 -0.5979  0.4897  0.4642
 2617TIP3    H132046   4.275   2.613  19.360 -0.2925  0.0235 -0.5303
 2617TIP3    H232047   4.365   2.495  19.390 -0.4792  0.3835  1.6175
 2618TIP3   OH232048   1.485   7.157  19.209  0.2818 -0.8261  0.2035
 2618TIP3    H132049   1.484   7.215  19.285 -0.2903  0.0403 -0.4508
 2618TIP3    H232050   1.402   7.173  19.164  0.3791 -1.7125 -0.3235
 2619TIP3   OH232051   3.785   7.509  17.850 -0.8872  0.0180  0.1771
 2619TIP3    H132052   3.816   7.600  17.855 -1.2661  0.1296  0.4858
 2619TIP3    H232053   3.851   7.460  17.899 -0.6454  0.1175 -0.0458
 2620TIP3   OH232054   0.232   1.319  17.821 -0.3300  0.2739 -0.3109
 2620TIP3    H132055   0.170   1.253  17.851 -0.0731  0.1501 -0.0482
 2620TIP3    H232056   0.300   1.268  17.775  1.8762 -0.1447  3.0262
 2621TIP3   OH232057   0.814   0.101  18.214 -0.3760 -0.2720  0.0627
 2621TIP3    H132058   0.745   0.117  18.279  1.3321  3.4812  1.2501
 2621TIP3    H232059   0.791   0.158  18.140  0.2101 -0.7964 -0.5297
 2622TIP3   OH232060   0.972   1.736  17.105  0.8517 -0.3144 -0.2636
 2622TIP3    H132061   1.027   1.760  17.179  2.3855  1.1230 -1.8151
 2622TIP3    H232062   0.889   1.780  17.122  1.2353  0.1256  0.5126
 2623TIP3   OH232063   1.462   2.069  18.870  0.2138  0.4442  0.5388
 2623TIP3    H132064   1.538   2.050  18.927 -0.8903  2.5183  2.8882
 2623TIP3    H232065   1.430   1.982  18.845  1.7675 -0.5438  1.7102
 2624TIP3   OH232066   6.082   1.890  17.575  0.3134 -0.5090  0.1387
 2624TIP3    H132067   5.991   1.909  17.600  0.5494  0.4664  0.2929
 2624TIP3    H232068   6.104   1.960  17.513  1.9563  1.1390  2.4325
 2625TIP3   OH232069   2.018   2.064  17.438  0.0901 -0.7042  0.6400
 2625TIP3    H132070   2.078   2.059  17.513  2.4398 -1.9900 -1.1947
 2625TIP3    H232071   2.046   1.992  17.381 -1.9677 -0.0878 -1.2425
 2626TIP3   OH232072   5.309   5.413  17.973 -0.2151 -0.0902  0.1342
 2626TIP3    H132073   5.338   5.498  18.006 -0.8100  0.3331 -0.4072
 2626TIP3    H232074   5.230   5.433  17.924  0.7958 -0.6479 -1.8110
 2627TIP3   OH232075   3.539   5.034  18.896 -0.2065  0.6411 -0.0484
 2627TIP3    H132076   3.530   5.059  18.988 -1.4232  2.3158 -0.5787
 2627TIP3    H232077   3.470   5.082  18.851  0.4425 -0.0421 -1.8722
 2628TIP3   OH232078   0.276   3.805  18.027  0.5281 -0.3866 -0.1162
 2628TIP3    H132079   0.190   3.817  18.067  0.4672 -2.4623  0.5233
 2628TIP3    H232080   0.336   3.792  18.101  1.1310 -0.3937 -0.5927
 2629TIP3   OH232081   0.128   4.448  18.245  0.0437 -0.0536 -0.2981
 2629TIP3    H132082   0.046   4.412  18.212  0.6572 -1.6090 -0.1957
 2629TIP3    H232083   0.108   4.479  18.333 -0.5340 -0.0149 -0.4416
 2630TIP3   OH232084   7.334   2.083  19.581 -0.3655 -0.0250 -0.4854
 2630TIP3    H132085   7.415   2.044  19.549  0.0805 -0.1666  0.7557
 2630TIP3    H232086   7.356   2.115  19.669 -1.2430  1.3077 -0.7217
 2631TIP3   OH232087   2.799   1.652  19.046  0.5250 -0.4314 -0.4252
 2631TIP3    H132088   2.774   1.643  19.138 -0.7268  0.0041 -0.7022
 2631TIP3    H232089   2.866   1.585  19.032  2.2042  0.8018  1.2913
 2632TIP3   OH232090   0.090   6.136  18.710 -0.1999 -0.4934  0.1553
 2632TIP3    H132091   0.001   6.139  18.675  0.0601 -0.7787 -0.5552
 2632TIP3    H232092   0.146   6.150  18.633  0.3766 -0.7399  0.5249
 2633TIP3   OH232093   2.317   3.065  19.273  0.2012 -0.4754 -0.1490
 2633TIP3    H132094   2.224   3.071  19.250  0.2584  0.9745 -0.1076
 2633TIP3    H232095   2.317   3.020  19.358 -0.4788 -0.3347 -0.0667
 2634TIP3   OH232096   4.300   0.456  16.584  0.3111  0.2198  0.1894
 2634TIP3    H132097   4.383   0.408  16.585  0.6489  0.7099 -1.3582
 2634TIP3    H232098   4.293   0.492  16.673  1.7539  0.1645  0.3605
 2635TIP3   OH232099   7.440   1.367  17.865 -0.1002  0.3404  0.0033
 2635TIP3    H132100   7.361   1.322  17.836 -0.3204  2.1029 -2.3973
 2635TIP3    H232101   7.502   1.355  17.793  1.5784 -0.2981  1.4824
 2636TIP3   OH232102   7.056   6.980  16.693 -0.3764 -0.2713 -0.8753
 2636TIP3    H132103   7.093   6.914  16.634  0.7395 -1.3713  0.9456
 2636TIP3    H232104   6.966   6.990  16.664 -0.1402 -1.4932 -2.1462
 2637TIP3   OH232105   5.285   6.157  16.507  0.5173  0.0712 -0.2289
 2637TIP3    H132106   5.285   6.239  16.457 -2.1125 -0.0797 -0.5802
 2637TIP3    H232107   5.292   6.089  16.440  3.0713 -0.0835  0.0842
 2638TIP3   OH232108   1.593   4.510  18.517  0.2665 -0.3432 -0.0946
 2638TIP3    H132109   1.649   4.545  18.587  0.7498 -0.3542 -0.4733
 2638TIP3    H232110   1.551   4.587  18.480  2.1228  0.0068 -1.6251
 2639TIP3   OH232111   5.495   7.181  18.546 -0.1606  0.7781 -0.3680
 2639TIP3    H132112   5.501   7.168  18.641 -0.0344 -0.8733 -0.5630
 2639TIP3    H232113   5.543   7.262  18.530  2.5536 -0.4910  0.6792
 2640TIP3   OH232114   5.983   6.336  17.694  0.2526  0.0887  0.1394
 2640TIP3    H132115   5.993   6.258  17.748 -0.1695  0.4869  0.7970
 2640TIP3    H232116   6.069   6.348  17.653  0.9093  0.4066  1.5565
 2641TIP3   OH232117   5.756   0.156  18.488 -0.0650 -0.1464 -0.7476
 2641TIP3    H132118   5.680   0.147  18.430  0.2474 -1.4055 -1.0010
 2641TIP3    H232119   5.800   0.236  18.459 -2.7484  2.2195  1.1618
 2642TIP3   OH232120   3.487   2.682  19.244 -0.1405 -0.0652 -0.5007
 2642TIP3    H132121   3.512   2.589  19.247 -0.1921 -0.0769  1.9441
 2642TIP3    H232122   3.392   2.681  19.234  0.0167 -0.1929 -2.2806
 2643TIP3   OH232123   4.258   7.630  18.855  0.1313 -0.8345 -0.2417
 2643TIP3    H132124   4.235   7.669  18.939  0.3354  0.9649 -0.9726
 2643TIP3    H232125   4.174   7.611  18.813 -0.0935  1.6008 -1.0613
 2644TIP3   OH232126   0.815   2.131  17.496  0.2206  0.5915  0.1415
 2644TIP3    H132127   0.765   2.155  17.418  0.7319  1.3795  0.0419
 2644TIP3    H232128   0.756   2.074  17.545  0.2996 -0.8822 -1.3643
 2645TIP3   OH232129   1.425   4.069  17.752 -0.3223 -0.3062 -0.3526
 2645TIP3    H132130   1.403   4.136  17.817  2.0528  0.7372 -0.5076
 2645TIP3    H232131   1.342   4.024  17.734 -1.3570  0.4551  2.1460
 2646TIP3   OH232132   2.497   4.784  19.004  0.4312  0.0555  0.1898
 2646TIP3    H132133   2.405   4.780  19.031  0.1558 -1.3507 -0.8666
 2646TIP3    H232134   2.545   4.745  19.077  0.0746 -0.2019  0.2915
 2647TIP3   OH232135   0.614   5.081  17.177 -0.1997  0.0256 -0.2844
 2647TIP3    H132136   0.536   5.026  17.177 -0.1619 -0.0929 -2.0331
 2647TIP3    H232137   0.581   5.170  17.179 -0.3759 -0.0329 -0.5264
 2648TIP3   OH232138   7.260   2.680  19.400  0.5296 -0.9601 -0.0395
 2648TIP3    H132139   7.314   2.757  19.384 -1.0871  0.1302 -0.5732
 2648TIP3    H232140   7.321   2.606  19.396  2.0208  0.2298 -0.1590
 2649TIP3   OH232141   1.831   4.831  19.004  0.3693  0.1768 -0.1816
 2649TIP3    H132142   1.870   4.791  19.082 -0.5338 -0.3375  0.0207
 2649TIP3    H232143   1.892   4.808  18.933  1.7649  1.5470  0.5054
 2650TIP3   OH232144   5.553   4.110  18.657  0.2441 -0.4340  0.0103
 2650TIP3    H132145   5.521   4.079  18.742 -0.6008  0.8313  0.1747
 2650TIP3    H232146   5.492   4.072  18.593  0.7517 -1.2058 -0.0369
 2651TIP3   OH232147   7.629   7.332  17.432 -0.1696 -0.0785  0.0709
 2651TIP3    H132148   7.688   7.327  17.358 -0.7683  0.5775 -0.4732
 2651TIP3    H232149   7.635   7.423  17.461 -1.7586  0.3376 -0.7483
 2652TIP3   OH232150   2.532   7.637  16.906 -0.1097 -0.4239 -0.4124
 2652TIP3    H132151   2.511   7.631  16.813  0.6888 -0.5705 -0.5916
 2652TIP3    H232152   2.620   7.675  16.908 -1.1437  2.1370  0.3645
 2653TIP3   OH232153   6.254   3.171  18.094 -0.3361  0.1110  0.0251
 2653TIP3    H132154   6.165   3.135  18.091  0.0309 -0.9664  1.2215
 2653TIP3    H232155   6.306   3.105  18.138  1.0109  0.8846 -0.3211
 2654TIP3   OH232156   0.121   3.007  17.822 -0.3844 -0.4883  0.6473
 2654TIP3    H132157   0.039   3.032  17.865 -1.7368  1.0150 -2.4797
 2654TIP3    H232158   0.110   2.915  17.801 -0.7415 -0.6004  1.3031
 2655TIP3   OH232159   3.420   4.891  18.590 -0.5867  0.4600 -0.6085
 2655TIP3    H132160   3.457   4.960  18.535 -1.8260  1.3876 -0.3315
 2655TIP3    H232161   3.366   4.938  18.653 -0.1106 -0.6739  0.6713
 2656TIP3   OH232162   0.168   2.687  17.403  0.3881 -0.3688 -0.5578
 2656TIP3    H132163   0.253   2.665  17.363  0.4960  0.3942 -0.7606
 2656TIP3    H232164   0.161   2.627  17.477  0.6971 -1.0463 -1.0621
 2657TIP3   OH232165   3.919   4.482  17.757  0.0241 -0.4991  0.0975
 2657TIP3    H132166   4.010   4.489  17.727  0.4212  1.4882  1.5631
 2657TIP3    H232167   3.926   4.449  17.847 -0.7635 -0.9611 -0.0046
 2658TIP3   OH232168   0.451   5.313  17.599 -0.2822  0.3310  0.2434
 2658TIP3    H132169   0.442   5.400  17.561  1.0743 -0.4082 -2.0078
 2658TIP3    H232170   0.532   5.316  17.649  0.1078  0.2266 -0.3663
 2659TIP3   OH232171   3.889   0.189  19.396  0.2634  0.2524  0.0259
 2659TIP3    H132172   3.815   0.128  19.399  0.3309  0.0557 -1.5353
 2659TIP3    H232173   3.893   0.217  19.305  3.0145 -0.8472 -0.2680
 2660TIP3   OH232174   7.569   5.222  19.343 -0.1562 -0.4723 -0.0651
 2660TIP3    H132175   7.578   5.201  19.250  0.8847 -1.1091  0.1606
 2660TIP3    H232176   7.618   5.304  19.355 -0.3388 -0.3595 -0.0895
 2661TIP3   OH232177   6.777   3.783  18.325  0.1462  0.2728  0.2057
 2661TIP3    H132178   6.721   3.739  18.389  0.1297  0.4460  0.3099
 2661TIP3    H232179   6.803   3.865  18.367  1.1598 -0.1797  0.4973
 2662TIP3   OH232180   1.197   2.555  18.598 -0.2357 -0.1155 -0.3635
 2662TIP3    H132181   1.126   2.501  18.563  0.4702 -0.5671 -1.1474
 2662TIP3    H232182   1.153   2.622  18.651 -1.0628 -3.0605  3.0700
 2663TIP3   OH232183   3.210   6.916  16.956 -0.2177  0.1531  0.2909
 2663TIP3    H132184   3.259   6.994  16.981  0.1211  0.4068 -1.0887
 2663TIP3    H232185   3.252   6.886  16.876  0.2484 -1.9977  1.2760
 2664TIP3   OH232186   1.742   6.273  17.121 -0.5868 -0.0555 -0.5269
 2664TIP3    H132187   1.690   6.289  17.200  0.1320 -1.1357  0.1914
 2664TIP3    H232188   1.688   6.306  17.049 -0.3303  3.0799  0.5575
 2665TIP3   OH232189   5.017   7.423  19.064  0.0469 -0.1898 -0.2506
 2665TIP3    H132190   4.963   7.400  18.988  1.0248 -0.8873 -0.7567
 2665TIP3    H232191   4.994   7.514  19.084 -2.2999 -0.8515  0.4028
 2666TIP3   OH232192   5.702   2.397  17.438  0.5092  0.1632  0.0093
 2666TIP3    H132193   5.615   2.436  17.433  0.1013 -0.7770 -0.5470
 2666TIP3    H232194   5.758   2.456  17.387  0.2774  0.9504  0.6540
 2667TIP3   OH232195   4.385   7.566  18.617 -0.0235 -0.3707  0.4102
 2667TIP3    H132196   4.307   7.529  18.576 -1.0251  1.2015  0.8199
 2667TIP3    H232197   4.356   7.595  18.703  0.5355  1.7860 -0.0614
 2668TIP3   OH232198   1.861   3.626  18.782  0.3011  0.2783 -0.2768
 2668TIP3    H132199   1.887   3.595  18.695  1.0279 -2.0294  0.7044
 2668TIP3    H232200   1.776   3.586  18.797 -0.6285  2.0481 -0.5608
 2669TIP3   OH232201   0.655   2.950  17.049 -0.3233 -0.1883  0.2414
 2669TIP3    H132202   0.590   2.880  17.055  0.1001 -0.5035  1.5340
 2669TIP3    H232203   0.694   2.939  16.963 -0.1994 -1.6176  0.4506
 2670TIP3   OH232204   5.962   2.937  18.266  0.4326  0.1906 -0.0232
 2670TIP3    H132205   5.980   2.971  18.178 -0.4805  2.8473  0.7316
 2670TIP3    H232206   5.999   3.002  18.325 -2.2371  0.4398  1.5220
 2671TIP3   OH232207   2.425   2.928  16.859 -0.1827 -0.3295  0.2488
 2671TIP3    H132208   2.468   2.974  16.787 -1.4940  0.7260  0.1120
 2671TIP3    H232209   2.476   2.847  16.869  1.9108  0.9270  0.2150
 2672TIP3   OH232210   3.896   4.771  17.747  0.1737 -0.2364  0.4050
 2672TIP3    H132211   3.980   4.762  17.794 -0.7995 -1.9850  2.0018
 2672TIP3    H232212   3.884   4.686  17.705 -2.0495 -1.1400  2.5907
 2673TIP3   OH232213   1.244   1.133  18.347  0.1281  0.2251  0.2352
 2673TIP3    H132214   1.324   1.183  18.328  0.2110 -0.0813 -0.2515
 2673TIP3    H232215   1.210   1.109  18.261 -0.4668  0.3142  0.4428
 2674TIP3   OH232216   3.660   0.052  18.290  0.1387 -0.2604 -0.0104
 2674TIP3    H132217   3.713   0.129  18.311 -1.0895  0.6241 -0.0481
 2674TIP3    H232218   3.599   0.083  18.224 -0.6584 -1.1589  0.2924
 2675TIP3   OH232219   5.672   3.174  19.567  0.0480  0.4437  0.0969
 2675TIP3    H132220   5.642   3.131  19.648  1.2218  2.0494  1.4686
 2675TIP3    H232221   5.645   3.265  19.578  0.4229  0.7295 -1.2471
 2676TIP3   OH232222   2.059   7.424  18.101 -0.2578 -0.8391 -0.5367
 2676TIP3    H132223   2.064   7.331  18.123 -0.7598 -1.2533 -2.0325
 2676TIP3    H232224   1.986   7.430  18.039 -1.2422  0.8149  0.7069
 2677TIP3   OH232225   4.605   5.037  18.874 -0.2661  0.3928 -0.0342
 2677TIP3    H132226   4.586   4.951  18.835 -0.0191 -0.1236  0.9308
 2677TIP3    H232227   4.691   5.060  18.840 -1.1795  1.2430 -1.9105
 2678TIP3   OH232228   7.647   2.312  18.393 -0.5442 -0.3752  0.2200
 2678TIP3    H132229   7.739   2.301  18.417 -0.6051 -0.7290  0.2944
 2678TIP3    H232230   7.633   2.407  18.397  0.3648 -0.1080 -1.8709
 2679TIP3   OH232231   1.862   2.521  19.022 -0.5824  0.1534  0.1836
 2679TIP3    H132232   1.804   2.471  18.963 -0.3727  1.0855 -0.8430
 2679TIP3    H232233   1.950   2.508  18.986 -0.1236 -1.1154  1.6336
 2680TIP3   OH232234   7.434   3.760  18.695 -0.3824 -0.1535  0.0875
 2680TIP3    H132235   7.462   3.733  18.607  1.1953 -0.3227  0.6159
 2680TIP3    H232236   7.365   3.699  18.718  0.3290 -1.1551 -0.3766
 2681TIP3   OH232237   5.043   3.016  17.900  0.1481 -0.1112  0.6878
 2681TIP3    H132238   4.965   2.961  17.888 -0.5383  1.0876 -0.7205
 2681TIP3    H232239   5.094   3.003  17.820  0.7454  0.1047  1.0339
 2682TIP3   OH232240   1.548   6.309  16.899  0.0558 -0.2403  0.1280
 2682TIP3    H132241   1.629   6.342  16.860 -0.0230 -0.3074 -0.0918
 2682TIP3    H232242   1.485   6.379  16.888 -0.4169 -0.8549 -1.3092
 2683TIP3   OH232243   1.443   0.969  18.084 -0.0391 -0.7109 -0.5005
 2683TIP3    H132244   1.356   1.010  18.086  0.6421  0.8955 -1.5997
 2683TIP3    H232245   1.441   0.915  18.005  0.3564  0.2972 -1.2120
 2684TIP3   OH232246   3.123   7.599  16.707 -0.1009  0.3887 -0.0314
 2684TIP3    H132247   3.053   7.571  16.648  0.3575  0.3806 -0.5761
 2684TIP3    H232248   3.111   7.545  16.786 -0.8973  0.6089  0.0093
 2685TIP3   OH232249   2.530   7.420  17.047  0.0197  0.3409 -0.5306
 2685TIP3    H132250   2.535   7.506  17.004  0.5248  0.4488 -0.2648
 2685TIP3    H232251   2.489   7.363  16.982  0.5893  0.5480 -1.0853
 2686TIP3   OH232252   6.765   2.453  17.468 -0.2706  0.0801 -0.5889
 2686TIP3    H132253   6.853   2.481  17.494 -0.5716  0.8674 -0.3885
 2686TIP3    H232254   6.767   2.454  17.372 -0.3279  0.9766 -0.5847
 2687TIP3   OH232255   5.807   1.920  18.078 -0.4735 -0.0646  0.0555
 2687TIP3    H132256   5.723   1.886  18.109 -1.5202  0.9881 -1.5075
 2687TIP3    H232257   5.832   1.861  18.007  1.5171 -1.9819  2.1799
 2688TIP3   OH232258   5.110   4.970  19.058 -0.7494  0.0922  0.1092
 2688TIP3    H132259   5.193   4.926  19.075 -0.5840 -0.1296 -1.1366
 2688TIP3    H232260   5.134   5.057  19.028 -1.0435  0.6780  1.5227
 2689TIP3   OH232261   3.082   0.841  18.583  0.1679  0.0657  0.0571
 2689TIP3    H132262   3.009   0.779  18.582  0.6941 -0.5634 -0.8548
 2689TIP3    H232263   3.154   0.792  18.624  0.3916  0.3074 -0.0496
 2690TIP3   OH232264   6.956   1.150  17.681  0.7822  0.4884 -0.3233
 2690TIP3    H132265   6.941   1.120  17.592 -1.8870 -0.6216  0.3908
 2690TIP3    H232266   6.891   1.219  17.695  0.8642  0.3522  0.8888
 2691TIP3   OH232267   7.297   3.549  19.376 -0.0781 -0.1864 -0.0762
 2691TIP3    H132268   7.252   3.472  19.409 -0.7401 -0.2477 -1.0878
 2691TIP3    H232269   7.262   3.562  19.288  0.3562  0.9999 -0.0965
 2692TIP3   OH232270   7.429   2.573  18.854 -0.2844 -0.2507 -0.0633
 2692TIP3    H132271   7.334   2.573  18.846 -0.5636  1.1087  2.3352
 2692TIP3    H232272   7.455   2.483  18.834 -2.0500 -0.6645 -0.6663
 2693TIP3   OH232273   4.730   4.011  18.335  0.1730  0.1147 -0.0434
 2693TIP3    H132274   4.673   3.986  18.407  0.3721  2.7092  1.1402
 2693TIP3    H232275   4.797   4.066  18.375  1.8538 -0.4880 -1.8368
 2694TIP3   OH232276   4.437   3.164  19.032  0.2300 -0.0190 -0.4167
 2694TIP3    H132277   4.440   3.162  18.936 -1.0002 -1.1130 -0.4517
 2694TIP3    H232278   4.528   3.153  19.059  0.4505 -0.8092 -1.4468
 2695TIP3   OH232279   3.303   6.574  18.144 -0.7084 -0.4306  0.0149
 2695TIP3    H132280   3.236   6.617  18.196 -0.1355  1.7806 -0.9498
 2695TIP3    H232281   3.255   6.527  18.076 -1.3418 -0.8831  0.7693
 2696TIP3   OH232282   7.250   3.591  18.757 -0.5303 -0.5999  0.2683
 2696TIP3    H132283   7.165   3.627  18.734 -0.9319  0.0760  2.5445
 2696TIP3    H232284   7.231   3.503  18.789 -0.6757  0.1519  2.4084
 2697TIP3   OH232285   6.182   3.558  18.899  0.5769  0.0939 -0.1643
 2697TIP3    H132286   6.118   3.529  18.834  0.2221 -0.1020  0.2669
 2697TIP3    H232287   6.202   3.648  18.874  0.6889 -0.0832 -0.7335
 2698TIP3   OH232288   1.373   3.391  17.869 -0.2498  0.0112  0.2396
 2698TIP3    H132289   1.365   3.395  17.774  0.5953 -0.4179  0.1355
 2698TIP3    H232290   1.345   3.477  17.900 -1.8735 -0.3020 -0.2785
 2699TIP3   OH232291   7.023   5.406  18.743  0.0677  0.4614  0.4317
 2699TIP3    H132292   7.079   5.345  18.792 -0.8122  0.0768  0.9830
 2699TIP3    H232293   6.973   5.451  18.811  0.0057  1.1071 -0.0345
 2700TIP3   OH232294   7.096   7.124  17.808 -0.7837 -0.0954 -0.3385
 2700TIP3    H132295   7.018   7.068  17.807 -0.4815 -0.6716  1.9363
 2700TIP3    H232296   7.133   7.115  17.721 -2.8947 -0.3231 -1.2785
 2701TIP3   OH232297   6.008   0.833  18.371  0.0431 -0.0958  0.9396
 2701TIP3    H132298   6.033   0.775  18.299 -0.2406  0.0894  0.6886
 2701TIP3    H232299   6.044   0.919  18.346  1.4179 -0.3768  1.8329
 2702TIP3   OH232300   3.421   4.840  17.062 -0.0692 -0.0250  0.0539
 2702TIP3    H132301   3.375   4.771  17.110  0.9312 -0.8654 -0.1437
 2702TIP3    H232302   3.361   4.914  17.063 -1.5239 -1.1447 -0.3996
 2703TIP3   OH232303   6.277   0.853  17.474 -0.0073 -0.3262 -0.1254
 2703TIP3    H132304   6.318   0.909  17.408 -1.6892  0.0926 -0.8626
 2703TIP3    H232305   6.348   0.796  17.505  1.1781  0.5661 -1.1157
 2704TIP3   OH232306   6.893   3.230  19.568  0.0072  0.2381  0.5094
 2704TIP3    H132307   6.868   3.270  19.652  1.4683 -0.3014  1.2293
 2704TIP3    H232308   6.923   3.142  19.591 -1.8069 -0.8138 -0.8836
 2705TIP3   OH232309   6.560   0.427  17.308  0.3582 -0.2109 -0.2583
 2705TIP3    H132310   6.534   0.431  17.216  0.1604 -0.0652 -0.1961
 2705TIP3    H232311   6.516   0.349  17.342  1.0202 -0.6938 -0.4696
 2706TIP3   OH232312   3.567   4.122  18.065  0.1069  0.7625  0.5959
 2706TIP3    H132313   3.576   4.181  18.141  1.0067 -0.0812  1.1593
 2706TIP3    H232314   3.644   4.141  18.011  0.8786 -0.4626  1.2067
 2707TIP3   OH232315   1.966   2.975  17.091 -0.1722 -0.4966 -0.0552
 2707TIP3    H132316   2.040   3.004  17.039  0.2065 -0.5044  0.4721
 2707TIP3    H232317   1.889   2.990  17.035  0.3202 -1.5571 -1.0536
 2708TIP3   OH232318   3.199   5.710  18.665  0.2062  0.0065  0.0513
 2708TIP3    H132319   3.248   5.647  18.613  3.6351  0.1684  2.6800
 2708TIP3    H232320   3.132   5.658  18.710  1.7678 -1.4867  0.7660
 2709TIP3   OH232321   0.749   2.354  17.985 -0.4699  0.1318 -0.3676
 2709TIP3    H132322   0.742   2.430  18.042 -1.3995 -2.2788  3.1022
 2709TIP3    H232323   0.843   2.346  17.968 -0.1014  0.8658  1.0791
 2710TIP3   OH232324   0.077   4.779  19.239 -0.0496 -0.0447  0.3402
 2710TIP3    H132325   0.065   4.870  19.212 -0.1876 -0.8711 -2.8682
 2710TIP3    H232326   0.170   4.772  19.261  0.0129  0.8326  0.3739
 2711TIP3   OH232327   5.321   7.159  16.758  0.3708  0.1323  0.5048
 2711TIP3    H132328   5.363   7.075  16.739  1.2608  0.6662  0.0346
 2711TIP3    H232329   5.392   7.215  16.790  0.2107  1.3000 -1.0600
 2712TIP3   OH232330   3.673   2.406  19.147  0.0203 -0.2650  0.0887
 2712TIP3    H132331   3.743   2.420  19.082 -0.9649  0.5154 -0.8393
 2712TIP3    H232332   3.607   2.356  19.100 -0.1103 -0.9037  0.9330
 2713TIP3   OH232333   0.598   1.965  18.778 -0.3293  0.4061 -0.4017
 2713TIP3    H132334   0.587   1.886  18.830 -2.7773  0.2440 -1.0518
 2713TIP3    H232335   0.549   2.032  18.825 -3.4882  0.0170 -2.7935
 2714TIP3   OH232336   4.054   2.350  17.920  0.5222 -0.3993 -0.3062
 2714TIP3    H132337   4.059   2.356  17.824 -1.8122  0.8692 -0.4219
 2714TIP3    H232338   4.088   2.433  17.952  0.6949 -0.5594 -0.0693
 2715TIP3   OH232339   4.798   6.898  18.916  0.2743 -0.3310  0.1348
 2715TIP3    H132340   4.851   6.965  18.874 -1.6614  1.0363 -0.2134
 2715TIP3    H232341   4.806   6.822  18.859  0.4232  0.4228 -0.8744
 2716TIP3   OH232342   2.174   6.762  18.069 -0.1630  0.0159 -0.0695
 2716TIP3    H132343   2.227   6.782  17.992  1.1981 -1.8999  0.2886
 2716TIP3    H232344   2.083   6.771  18.040  0.3241 -0.8596 -1.9653
 2717TIP3   OH232345   2.218   1.545  18.153  0.7886 -0.0160  0.5504
 2717TIP3    H132346   2.132   1.586  18.160 -0.5212 -2.2514 -1.3252
 2717TIP3    H232347   2.213   1.468  18.210  0.9482 -1.0118 -0.7240
 2718TIP3   OH232348   6.701   3.808  18.640  0.0717 -0.8494 -0.7937
 2718TIP3    H132349   6.685   3.815  18.734  0.3833 -2.5592 -0.5770
 2718TIP3    H232350   6.647   3.734  18.612  0.7029 -0.9570 -1.7723
 2719TIP3   OH232351   0.543   5.774  17.040 -0.3969  0.6932 -0.0501
 2719TIP3    H132352   0.507   5.794  16.954  0.0259  0.8962 -0.1862
 2719TIP3    H232353   0.600   5.699  17.025 -1.7927 -0.5050  0.4146
 2720TIP3   OH232354   0.224   1.954  19.207  0.0238 -0.0587 -0.1189
 2720TIP3    H132355   0.154   2.017  19.194  1.4150  1.4946 -0.4778
 2720TIP3    H232356   0.180   1.872  19.230 -1.8357  1.1905  1.0130
 2721TIP3   OH232357   5.485   5.015  17.325 -0.5620  0.0889 -0.1840
 2721TIP3    H132358   5.532   4.986  17.247  0.8265 -0.7423  0.9066
 2721TIP3    H232359   5.503   4.946  17.390 -3.2573 -0.2454  0.3275
 2722TIP3   OH232360   1.985   2.152  19.230  0.0132  0.1985  0.2478
 2722TIP3    H132361   2.035   2.225  19.195 -0.0883 -0.1987 -0.7588
 2722TIP3    H232362   1.893   2.178  19.218 -0.0226  0.0046  0.0974
 2723TIP3   OH232363   1.054   2.758  16.832 -0.3223 -0.3406 -0.0434
 2723TIP3    H132364   1.094   2.770  16.746 -1.0283  0.3717 -0.2923
 2723TIP3    H232365   0.993   2.685  16.820  1.2734 -1.8089  0.4850
 2724TIP3   OH232366   6.572   1.223  16.766  0.1250 -0.5438 -0.4749
 2724TIP3    H132367   6.485   1.184  16.776  0.1143 -0.3651  0.1476
 2724TIP3    H232368   6.556   1.317  16.769  0.2411 -0.4934 -1.2329
 2725TIP3   OH232369   2.485   2.606  19.296  0.3747  0.3997 -0.2848
 2725TIP3    H132370   2.524   2.587  19.210 -0.0192  0.4067 -0.4653
 2725TIP3    H232371   2.504   2.529  19.349  0.1216  0.1542 -0.5508
 2726TIP3   OH232372   4.026   3.440  17.785  0.3250  0.0298  0.0798
 2726TIP3    H132373   4.060   3.529  17.794 -0.5013  0.4383 -0.6563
 2726TIP3    H232374   4.083   3.386  17.840  2.2466  0.6375 -1.2100
 2727TIP3   OH232375   2.120   6.525  19.145  0.0120  0.0754  0.5027
 2727TIP3    H132376   2.059   6.576  19.199  1.1526  0.4401  1.4673
 2727TIP3    H232377   2.071   6.446  19.122 -0.3873 -0.2546  2.3500
 2728TIP3   OH232378   4.168   4.415  17.842  0.0052 -0.4709 -0.6133
 2728TIP3    H132379   4.252   4.411  17.888 -1.0395 -1.2683  1.3316
 2728TIP3    H232380   4.175   4.349  17.773  0.6886 -1.1714  0.1031
 2729TIP3   OH232381   0.965   1.830  18.430  0.3761  0.5248  0.0607
 2729TIP3    H132382   1.049   1.876  18.431 -0.4699  2.3098 -2.1930
 2729TIP3    H232383   0.987   1.738  18.414  1.9692  0.5439  1.8587
 2730TIP3   OH232384   0.142   7.539  17.222 -0.1251  0.3280 -0.6308
 2730TIP3    H132385   0.178   7.459  17.184  0.8544 -0.6289  2.0884
 2730TIP3    H232386   0.217   7.581  17.265 -0.9807  1.8163 -0.5306
 2731TIP3   OH232387   6.134   7.360  17.175  0.1455 -0.0635  0.0526
 2731TIP3    H132388   6.055   7.312  17.200 -0.1567 -0.3937 -1.4581
 2731TIP3    H232389   6.131   7.365  17.080  2.8129 -1.6136 -0.2153
 2732TIP3   OH232390   1.947   2.927  18.538  0.5870 -0.3011 -0.8940
 2732TIP3    H132391   1.864   2.881  18.554 -0.7966  2.8669  2.7402
 2732TIP3    H232392   2.014   2.863  18.563 -1.1439 -1.0922  2.4803
 2733TIP3   OH232393   4.309   7.623  18.290  0.1220 -0.6595 -0.0977
 2733TIP3    H132394   4.373   7.576  18.344  0.1301 -2.3039 -1.4526
 2733TIP3    H232395   4.224   7.597  18.326  0.1507 -0.3147  0.2322
 2734TIP3   OH232396   3.189   6.433  17.452 -0.4324 -0.4145  0.5111
 2734TIP3    H132397   3.283   6.425  17.472 -0.3119 -0.1930  0.0339
 2734TIP3    H232398   3.167   6.353  17.406 -0.2176  0.0199 -0.3736
 2735TIP3   OH232399   1.552   7.187  18.468  0.1820 -0.0290 -0.5672
 2735TIP3    H132400   1.616   7.244  18.424 -1.2616  1.4473 -0.8639
 2735TIP3    H232401   1.469   7.234  18.460 -0.7060 -1.2374  1.0017
 2736TIP3   OH232402   7.626   2.832  18.700  0.0095 -0.3824 -0.5304
 2736TIP3    H132403   7.557   2.766  18.701  1.0794 -1.5477 -0.7265
 2736TIP3    H232404   7.583   2.913  18.726 -1.6134 -0.8723 -1.5763
 2737TIP3   OH232405   0.320   5.018  17.225 -0.2640 -0.2991 -0.4974
 2737TIP3    H132406   0.312   5.063  17.309 -0.7397 -1.8206  0.3122
 2737TIP3    H232407   0.263   5.067  17.166  2.4003  2.7050 -0.8798
 2738TIP3   OH232408   2.556   0.594  16.716  0.4836 -0.4255 -0.2348
 2738TIP3    H132409   2.586   0.558  16.632 -0.8151  0.9998 -1.3760
 2738TIP3    H232410   2.468   0.559  16.728  0.5498 -0.3888  0.4039
 2739TIP3   OH232411   0.096   4.994  17.684 -0.5832 -0.6739  0.4184
 2739TIP3    H132412   0.168   4.942  17.720 -0.3494 -1.4530 -1.1120
 2739TIP3    H232413   0.040   4.930  17.640 -0.3946  0.2954 -1.3341
 2740TIP3   OH232414   2.574   2.915  17.764  0.6211 -0.1616 -0.6117
 2740TIP3    H132415   2.609   2.855  17.830  1.9868 -1.9748 -2.8695
 2740TIP3    H232416   2.485   2.884  17.747  0.6499 -0.3560 -0.4051
 2741TIP3   OH232417   0.579   0.076  18.993 -0.2361 -0.0176  0.2096
 2741TIP3    H132418   0.608   0.166  19.004 -0.4702 -0.0352  0.9831
 2741TIP3    H232419   0.617   0.028  19.067 -0.5956 -0.4379  0.1284
 2742TIP3   OH232420   3.975   4.019  18.343  0.1881 -0.2644  0.0907
 2742TIP3    H132421   3.975   4.093  18.404 -1.5162 -0.5829  0.5178
 2742TIP3    H232422   4.012   3.947  18.394 -2.6518 -0.9507  1.3889
 2743TIP3   OH232423   7.200   7.572  17.270 -0.3428 -0.1920 -0.0286
 2743TIP3    H132424   7.182   7.614  17.186  2.0732  2.2075  0.4962
 2743TIP3    H232425   7.294   7.585  17.283 -0.6918 -0.1303  3.1812
 2744TIP3   OH232426   3.428   7.096  17.804 -0.2526 -0.5016 -0.2717
 2744TIP3    H132427   3.471   7.033  17.861  0.3513 -0.3704 -0.5771
 2744TIP3    H232428   3.415   7.049  17.722 -1.4115 -0.7954  0.0663
 2745TIP3   OH232429   4.137   5.481  17.504  0.0687  0.3007  0.0753
 2745TIP3    H132430   4.047   5.450  17.516  0.1359 -0.3301 -0.9337
 2745TIP3    H232431   4.185   5.404  17.472  0.7908  0.8354 -0.1615
 2746TIP3   OH232432   1.639   6.029  17.438 -0.1961  0.0154 -0.1980
 2746TIP3    H132433   1.609   6.119  17.428 -0.9646 -0.2395 -0.2050
 2746TIP3    H232434   1.559   5.976  17.440  0.1700 -0.5334  1.2238
 2747TIP3   OH232435   6.738   4.733  16.953 -0.1029 -0.2018 -0.7605
 2747TIP3    H132436   6.816   4.758  16.903 -0.3158  1.1159 -0.4760
 2747TIP3    H232437   6.758   4.759  17.043 -0.5051 -0.7312 -0.5152
 2748TIP3   OH232438   3.542   7.319  18.714  0.5432 -0.4612 -0.5258
 2748TIP3    H132439   3.525   7.262  18.639  1.3179 -1.4494  0.0244
 2748TIP3    H232440   3.455   7.351  18.740 -0.1719 -2.9095  0.3176
 2749TIP3   OH232441   1.599   7.680  18.767 -0.2363  0.4797 -0.3022
 2749TIP3    H132442   1.657   7.708  18.838  1.4156 -1.2363 -0.9037
 2749TIP3    H232443   1.517   7.656  18.810 -0.1209  1.7954  0.7067
 2750TIP3   OH232444   5.727   1.501  19.522 -0.3574 -0.2933  0.1977
 2750TIP3    H132445   5.650   1.545  19.487 -0.2866  0.4210  0.9037
 2750TIP3    H232446   5.793   1.570  19.531 -0.4369 -0.3934  1.8764
 2751TIP3   OH232447   5.792   3.185  18.774  0.0382 -0.0697 -0.3129
 2751TIP3    H132448   5.761   3.186  18.683 -0.7706 -1.8881 -0.1031
 2751TIP3    H232449   5.715   3.160  18.825  0.7955 -0.3331  0.7249
 2752TIP3   OH232450   3.401   1.842  18.737  0.1405 -0.3647 -0.2078
 2752TIP3    H132451   3.492   1.835  18.767  0.0353  0.6073  0.3659
 2752TIP3    H232452   3.349   1.838  18.817 -0.1436  2.2954 -0.1741
 2753TIP3   OH232453   0.383   5.564  17.451  0.1615  0.4040 -0.4903
 2753TIP3    H132454   0.289   5.547  17.445  0.3131 -1.5165  1.4004
 2753TIP3    H232455   0.390   5.659  17.462 -1.6167  0.5089  0.0272
 2754TIP3   OH232456   5.371   0.592  18.122 -0.1034  0.3189  0.5983
 2754TIP3    H132457   5.371   0.665  18.183 -2.8823  0.9863 -0.0466
 2754TIP3    H232458   5.401   0.630  18.039 -1.9458  0.9017  0.1582
 2755TIP3   OH232459   1.531   2.141  16.875 -0.4353 -0.7514  0.0838
 2755TIP3    H132460   1.595   2.141  16.946 -0.2504  0.3642 -0.0658
 2755TIP3    H232461   1.504   2.049  16.867  0.6389 -1.1245  0.5908
 2756TIP3   OH232462   1.712   7.481  19.016  0.3329 -0.5076 -0.4035
 2756TIP3    H132463   1.679   7.569  19.034  0.6981 -0.3427 -0.5201
 2756TIP3    H232464   1.723   7.441  19.102 -0.2038 -0.5795 -0.3667
 2757TIP3   OH232465   6.281   6.041  16.798 -0.0212 -0.1211  0.4268
 2757TIP3    H132466   6.186   6.046  16.805 -0.0393  0.1917 -0.0625
 2757TIP3    H232467   6.310   6.027  16.888 -0.5364 -0.3654  0.5631
 2758TIP3   OH232468   2.291   3.902  19.086 -0.3392  0.1839 -0.2590
 2758TIP3    H132469   2.301   3.865  18.998  0.6076 -1.6218  0.5532
 2758TIP3    H232470   2.196   3.910  19.098 -0.4819  0.7886 -1.5352
 2759TIP3   OH232471   7.509   6.898  16.961  0.1173  1.0383  0.1305
 2759TIP3    H132472   7.419   6.913  16.934  0.2902 -0.6532 -1.6034
 2759TIP3    H232473   7.503   6.869  17.052 -1.1060  0.7038 -0.0447
 2760TIP3   OH232474   4.089   0.621  17.988 -0.2221 -0.1260 -1.5215
 2760TIP3    H132475   4.104   0.695  18.046  1.3149 -0.2779 -1.6951
 2760TIP3    H232476   4.042   0.659  17.913 -1.0058  0.3166 -0.8199
 2761TIP3   OH232477   3.572   2.804  18.706 -0.0114  0.5429 -0.3879
 2761TIP3    H132478   3.580   2.774  18.797  0.9735  1.2677 -0.2253
 2761TIP3    H232479   3.614   2.736  18.654  0.3806  0.6379 -0.1990
 2762TIP3   OH232480   2.069   0.125  16.710 -0.4459  0.0309  0.3980
 2762TIP3    H132481   2.148   0.110  16.659  0.5538  0.5044  1.7431
 2762TIP3    H232482   1.999   0.130  16.645  0.8093  0.9125 -0.9527
 2763TIP3   OH232483   6.208   1.113  18.718  0.4162  0.7539  0.2401
 2763TIP3    H132484   6.216   1.190  18.662 -1.3913  0.3943 -0.5725
 2763TIP3    H232485   6.123   1.075  18.695  0.6676 -0.7237  1.5855
 2764TIP3   OH232486   7.385   4.240  18.821 -0.0263 -0.4824 -0.2730
 2764TIP3    H132487   7.332   4.278  18.891  0.3250 -2.3247  1.0511
 2764TIP3    H232488   7.469   4.221  18.861  1.3026  1.2397 -2.0306
 2765TIP3   OH232489   5.764   0.886  18.024 -0.2293 -0.5250  0.0631
 2765TIP3    H132490   5.789   0.971  18.062  0.5426 -1.0035  0.6493
 2765TIP3    H232491   5.801   0.888  17.936 -0.8108  0.0235 -0.1752
 2766TIP3   OH232492   4.684   0.123  18.764  0.2236 -0.1737  0.5914
 2766TIP3    H132493   4.748   0.189  18.791 -0.8286  1.3397 -0.4363
 2766TIP3    H232494   4.663   0.145  18.674  1.9054 -3.6528 -0.8573
 2767TIP3   OH232495   2.993   3.979  18.177  0.5097 -0.4416  0.1240
 2767TIP3    H132496   2.898   3.980  18.186  0.3707  0.8384 -1.1818
 2767TIP3    H232497   3.016   4.067  18.149  2.1126 -0.6796  0.5731
 2768TIP3   OH232498   4.602   4.570  17.875  0.2637 -0.2234  0.0578
 2768TIP3    H132499   4.511   4.581  17.845  0.1874  0.2477  0.4448
 2768TIP3    H232500   4.650   4.543  17.797 -0.2844 -0.8900 -0.0667
 2769TIP3   OH232501   2.803   4.773  18.840 -0.4241 -0.0418 -0.1555
 2769TIP3    H132502   2.859   4.768  18.918 -1.2788  0.8086  0.5468
 2769TIP3    H232503   2.845   4.716  18.776 -0.4964 -2.0390  1.4417
 2770TIP3   OH232504   1.617   5.217  17.992 -0.2115  0.2458 -0.0480
 2770TIP3    H132505   1.690   5.236  17.933 -0.6158 -0.2152 -0.7104
 2770TIP3    H232506   1.580   5.303  18.012  0.4543  0.4754  0.2278
 2771TIP3   OH232507   2.134   4.518  16.942  0.1422 -0.5909 -0.5072
 2771TIP3    H132508   2.050   4.473  16.952  0.0774 -0.2022  0.8608
 2771TIP3    H232509   2.124   4.569  16.861 -0.8937 -0.6453 -0.4268
 2772TIP3   OH232510   0.664   7.069  16.726  0.0450  0.0660  0.4156
 2772TIP3    H132511   0.744   7.030  16.760 -0.2951 -0.3166  0.7899
 2772TIP3    H232512   0.694   7.134  16.663  0.6005 -1.4152 -0.8918
 2773TIP3   OH232513   7.021   5.136  17.823 -0.3224 -0.2894 -0.0466
 2773TIP3    H132514   7.099   5.092  17.857 -1.2426 -0.1308  2.4507
 2773TIP3    H232515   6.956   5.066  17.813 -0.4814 -0.1263 -0.1597
 2774TIP3   OH232516   0.151   6.725  18.193  0.1945  0.4554 -0.0859
 2774TIP3    H132517   0.173   6.632  18.184 -2.0838 -0.2995  1.3051
 2774TIP3    H232518   0.163   6.761  18.105 -0.7257 -1.6043 -1.1357
 2775TIP3   OH232519   5.924   1.732  18.800 -0.3880 -0.0183 -0.6505
 2775TIP3    H132520   5.991   1.739  18.868  0.7455  1.0646 -1.8233
 2775TIP3    H232521   5.844   1.765  18.842  0.5345  1.6925 -0.1221
 2776TIP3   OH232522   5.062   6.686  18.853 -0.1488 -0.0118 -0.0616
 2776TIP3    H132523   4.993   6.619  18.856  0.8363 -1.0168  1.6985
 2776TIP3    H232524   5.097   6.680  18.764  0.6281 -2.6518  0.3318
 2777TIP3   OH232525   1.078   2.085  17.477  0.5075 -0.4035 -0.0501
 2777TIP3    H132526   0.983   2.082  17.468  0.6237 -2.3068 -0.9988
 2777TIP3    H232527   1.111   2.062  17.391  1.8942  1.8495 -0.1969
 2778TIP3   OH232528   1.596   3.035  19.257  0.0229  0.4414 -0.0799
 2778TIP3    H132529   1.668   2.999  19.309  0.7813  1.1973 -0.5844
 2778TIP3    H232530   1.551   2.959  19.221  1.5485 -0.0234 -1.0757
 2779TIP3   OH232531   4.022   1.635  17.864 -0.0483 -0.4167 -0.0571
 2779TIP3    H132532   4.040   1.708  17.924  0.9912 -0.2550 -0.5425
 2779TIP3    H232533   4.006   1.678  17.779  2.5992 -0.7904 -0.8281
 2780TIP3   OH232534   7.456   0.670  18.856  0.2753 -0.0591  0.3004
 2780TIP3    H132535   7.367   0.639  18.875 -0.6168  0.9182 -1.9648
 2780TIP3    H232536   7.475   0.732  18.926 -1.2975  0.5335  0.2501
 2781TIP3   OH232537   4.700   3.940  18.602 -0.1119 -0.0755 -0.4200
 2781TIP3    H132538   4.698   3.946  18.698  2.1877 -0.8618 -0.2609
 2781TIP3    H232539   4.660   3.856  18.583 -1.0297  0.2998 -0.2062
 2782TIP3   OH232540   0.808   2.022  18.292  0.2768  0.1916 -0.2923
 2782TIP3    H132541   0.858   1.941  18.296 -0.8052 -0.4547  0.4094
 2782TIP3    H232542   0.764   2.027  18.377 -1.1615  0.5404 -1.0452
 2783TIP3   OH232543   5.807   0.321  16.858 -0.0647 -0.1725  0.2128
 2783TIP3    H132544   5.739   0.255  16.872 -1.2268  0.9242 -0.0949
 2783TIP3    H232545   5.819   0.323  16.763  0.7735 -0.7077  0.2971
 2784TIP3   OH232546   6.685   5.602  18.235 -0.0885 -0.5488 -0.2420
 2784TIP3    H132547   6.624   5.649  18.292  0.8258  0.1095  0.2315
 2784TIP3    H232548   6.727   5.538  18.292  0.3063 -0.3849 -0.3464
 2785TIP3   OH232549   3.025   0.964  17.814  0.1060 -0.1651  0.2643
 2785TIP3    H132550   3.031   0.924  17.902 -0.5378  0.5220  0.6284
 2785TIP3    H232551   3.062   1.051  17.825 -0.4287  0.1004 -0.0295
 2786TIP3   OH232552   4.712   1.050  17.906 -0.4917 -0.2459 -0.4179
 2786TIP3    H132553   4.741   1.116  17.842  1.0047 -1.5250 -1.1231
 2786TIP3    H232554   4.791   1.029  17.956 -0.6373 -2.2533 -0.9345
 2787TIP3   OH232555   1.400   1.419  18.418 -0.0861 -0.1967 -0.1736
 2787TIP3    H132556   1.402   1.488  18.485 -1.4113 -1.4375  1.2397
 2787TIP3    H232557   1.471   1.359  18.444 -0.4527 -0.5591  0.0103
 2788TIP3   OH232558   2.713   6.356  16.797  0.0149 -0.2680 -0.1818
 2788TIP3    H132559   2.779   6.302  16.841  1.8735  1.2069 -1.0335
 2788TIP3    H232560   2.745   6.446  16.806 -2.4838  0.6761  0.3472
 2789TIP3   OH232561   6.794   4.477  16.609 -0.0726  0.1055 -0.7745
 2789TIP3    H132562   6.765   4.388  16.590 -2.7579  0.6662  0.2944
 2789TIP3    H232563   6.763   4.495  16.698 -1.3238  2.6878 -1.6055
 2790TIP3   OH232564   5.856   7.394  19.385 -0.2924  0.3112 -0.1120
 2790TIP3    H132565   5.780   7.338  19.374  0.6075 -1.1274  0.7122
 2790TIP3    H232566   5.869   7.400  19.479  0.5672  0.6011 -0.2342
 2791TIP3   OH232567   3.401   2.202  18.758 -0.2544 -0.0883 -0.0563
 2791TIP3    H132568   3.402   2.293  18.727 -0.0998 -0.2192 -0.4482
 2791TIP3    H232569   3.439   2.152  18.685  2.7756 -0.0890  1.4103
 2792TIP3   OH232570   6.536   2.067  17.821 -0.6669  0.2294  0.3406
 2792TIP3    H132571   6.604   2.134  17.810  0.6572 -1.2020 -0.5676
 2792TIP3    H232572   6.568   2.013  17.893  1.6604 -3.1915 -2.9017
 2793TIP3   OH232573   5.617   6.380  18.586  0.0318  0.2251 -0.0709
 2793TIP3    H132574   5.607   6.296  18.541  0.6859 -0.2497  0.6509
 2793TIP3    H232575   5.700   6.415  18.555  0.1410  0.2291  0.2190
 2794TIP3   OH232576   7.182   3.304  17.582 -0.4349 -0.4717 -0.0131
 2794TIP3    H132577   7.205   3.254  17.660 -0.5568 -2.5565 -1.2384
 2794TIP3    H232578   7.266   3.335  17.548 -0.0345 -2.2035 -0.7086
 2795TIP3   OH232579   7.458   6.758  17.201  0.0419 -0.5671 -0.1610
 2795TIP3    H132580   7.507   6.679  17.222  0.5438 -0.8263 -2.0825
 2795TIP3    H232581   7.372   6.726  17.173 -1.0272 -0.1648  2.3523
 2796TIP3   OH232582   0.138   7.320  19.053 -0.3815  0.2171 -0.0962
 2796TIP3    H132583   0.062   7.354  19.100  0.2328  0.2283  0.9235
 2796TIP3    H232584   0.197   7.396  19.045 -0.4324  0.1901 -0.8120
 2797TIP3   OH232585   1.758   2.091  18.480  0.2069 -0.3531 -0.3994
 2797TIP3    H132586   1.770   2.026  18.412 -0.5731 -0.3258 -0.5730
 2797TIP3    H232587   1.673   2.130  18.462  0.5345  0.5258 -0.1390
 2798TIP3   OH232588   3.680   2.332  17.426  0.1907 -0.0953  0.0649
 2798TIP3    H132589   3.709   2.401  17.367  0.1000  0.3727  0.5538
 2798TIP3    H232590   3.694   2.251  17.377 -0.9359  0.3423 -1.0261
 2799TIP3   OH232591   1.989   5.030  17.486  0.2717  0.1137  0.3479
 2799TIP3    H132592   1.928   5.090  17.528 -0.0585 -1.1575  1.7604
 2799TIP3    H232593   1.949   5.012  17.400 -1.3809 -0.6685  1.2337
 2800TIP3   OH232594   0.744   3.179  17.930 -0.0873 -0.0078  0.6425
 2800TIP3    H132595   0.677   3.192  17.997  0.1021 -1.0444  1.0527
 2800TIP3    H232596   0.698   3.192  17.847 -1.0525 -1.5897  0.8771
 2801TIP3   OH232597   4.860   1.934  17.409 -0.4227  0.5200  0.1328
 2801TIP3    H132598   4.934   1.965  17.460 -0.5195 -1.1994  1.4185
 2801TIP3    H232599   4.899   1.876  17.343 -0.5687 -0.3809  0.8063
 2802TIP3   OH232600   0.570   7.061  18.611 -0.3690 -0.3969  0.4997
 2802TIP3    H132601   0.524   6.991  18.565 -1.9750  0.7741  0.2163
 2802TIP3    H232602   0.564   7.037  18.704 -0.7403 -0.7265  0.3917
 2803TIP3   OH232603   1.147   3.844  18.151  0.3686 -0.0547  0.0642
 2803TIP3    H132604   1.089   3.845  18.228 -0.4115 -1.1479 -0.4827
 2803TIP3    H232605   1.234   3.859  18.187 -0.1569  1.0105  0.9806
 2804TIP3   OH232606   2.029   1.879  19.191  0.0226 -0.0655 -0.3006
 2804TIP3    H132607   1.934   1.869  19.199 -0.1564  0.5592 -1.4686
 2804TIP3    H232608   2.046   1.971  19.212  0.3400 -0.1153 -0.3244
 2805TIP3   OH232609   0.783   5.459  17.405 -0.0052 -0.1024 -0.0280
 2805TIP3    H132610   0.869   5.494  17.382  1.0489 -3.1470 -1.2391
 2805TIP3    H232611   0.768   5.487  17.496  1.6669  1.5367 -0.2242
 2806TIP3   OH232612   6.130   2.876  18.493 -0.8022  0.2734  0.2781
 2806TIP3    H132613   6.148   2.947  18.555 -1.1663 -0.1277  0.8617
 2806TIP3    H232614   6.041   2.848  18.515 -0.5431 -0.5740  0.2743
 2807TIP3   OH232615   4.023   0.881  18.687 -0.0163  0.1708  0.0075
 2807TIP3    H132616   4.045   0.801  18.639  1.5951  0.8051 -0.4030
 2807TIP3    H232617   3.970   0.932  18.626  0.3981  0.1400 -0.3851
 2808TIP3   OH232618   6.300   7.343  19.460  0.4151  0.1492 -0.2732
 2808TIP3    H132619   6.379   7.382  19.496 -0.1745  1.2448 -0.1139
 2808TIP3    H232620   6.331   7.268  19.410  1.4882  0.1829  0.3102
 2809TIP3   OH232621   5.174   7.360  17.546 -0.7295  0.3784  0.2616
 2809TIP3    H132622   5.192   7.302  17.472 -0.9283  0.4059  0.1895
 2809TIP3    H232623   5.255   7.361  17.596  0.4049  2.5345 -1.4416
 2810TIP3   OH232624   7.068   4.433  19.188  0.6636 -0.4029 -0.5877
 2810TIP3    H132625   7.077   4.482  19.269  0.3788 -0.0546 -0.7606
 2810TIP3    H232626   6.985   4.386  19.198  0.5287 -0.2050 -0.7526
 2811TIP3   OH232627   2.858   6.148  17.840 -0.1497 -0.6326  0.0459
 2811TIP3    H132628   2.830   6.218  17.899 -1.0974 -0.8237 -0.1673
 2811TIP3    H232629   2.785   6.088  17.838  0.3865 -1.2831 -0.3293
 2812TIP3   OH232630   4.569   0.736  17.438  0.3445 -0.7860  0.1055
 2812TIP3    H132631   4.579   0.817  17.488  1.6862 -1.0064  0.2469
 2812TIP3    H232632   4.608   0.669  17.493 -0.9576 -1.5924  0.0916
 2813TIP3   OH232633   5.495   7.277  16.953 -0.2562 -0.2669 -0.3578
 2813TIP3    H132634   5.501   7.284  17.048  1.4249 -0.6212 -0.3957
 2813TIP3    H232635   5.518   7.186  16.934  0.4343  0.0518 -1.1448
 2814TIP3   OH232636   5.876   1.461  17.027 -0.1685 -0.3210 -0.5119
 2814TIP3    H132637   5.889   1.477  16.933 -0.4246 -3.1573 -1.1128
 2814TIP3    H232638   5.789   1.421  17.032 -0.1260 -0.2541  0.9427
 2815TIP3   OH232639   0.944   4.583  19.096 -0.7482  0.3950 -0.0373
 2815TIP3    H132640   0.921   4.669  19.132 -1.1069  0.3804 -0.2297
 2815TIP3    H232641   0.879   4.567  19.029  0.0960  0.5593 -0.9246
 2816TIP3   OH232642   1.109   2.488  17.404  0.1142  0.1166 -0.2906
 2816TIP3    H132643   1.052   2.557  17.372  0.6115  0.3166 -0.7607
 2816TIP3    H232644   1.182   2.535  17.445  0.7582 -0.1047 -1.1451
 2817TIP3   OH232645   2.865   3.878  17.115  0.6017 -0.1783  0.1470
 2817TIP3    H132646   2.870   3.964  17.156 -1.5068  0.2008 -0.2670
 2817TIP3    H232647   2.794   3.833  17.161  1.0858 -1.3561 -0.2217
 2818TIP3   OH232648   1.048   5.434  16.395  0.4531  0.3784 -0.2763
 2818TIP3    H132649   1.084   5.358  16.443 -0.5796  0.6437  0.9756
 2818TIP3    H232650   0.995   5.480  16.460  1.4841  2.5070 -0.8533
 2819TIP3   OH232651   3.250   5.036  17.036  0.5078  0.1564  0.1493
 2819TIP3    H132652   3.165   4.993  17.048  0.7170 -0.7321 -1.1996
 2819TIP3    H232653   3.229   5.122  17.000  0.1495  0.1541  0.3551
 2820TIP3   OH232654   1.348   3.446  17.581 -0.0562  0.6518  0.0508
 2820TIP3    H132655   1.349   3.371  17.521 -3.4050  0.6034 -0.1202
 2820TIP3    H232656   1.412   3.506  17.545 -0.8561 -0.0361 -2.7510
 2821TIP3   OH232657   0.870   3.624  18.391 -0.2073  0.2664  0.1920
 2821TIP3    H132658   0.839   3.572  18.317 -1.2445  1.6762 -0.4246
 2821TIP3    H232659   0.789   3.650  18.437  0.0219  3.0864 -0.7853
 2822TIP3   OH232660   1.752   0.568  19.185 -0.2583  0.0828 -0.2662
 2822TIP3    H132661   1.831   0.560  19.239 -0.6345 -0.5566  0.2036
 2822TIP3    H232662   1.712   0.650  19.215 -0.3035 -0.1117  0.2233
 2823TIP3   OH232663   4.178   7.666  16.841  0.1406  0.2686 -0.3693
 2823TIP3    H132664   4.179   7.583  16.794 -0.2100  0.7511 -1.2337
 2823TIP3    H232665   4.260   7.666  16.891 -0.0840 -0.8022  0.0104
 2824TIP3   OH232666   7.290   2.569  17.861  0.5441  0.6474  0.5635
 2824TIP3    H132667   7.248   2.493  17.901 -1.3215 -0.1308 -2.4785
 2824TIP3    H232668   7.243   2.644  17.898 -1.0347 -0.0188  0.0067
 2825TIP3   OH232669   3.437   6.337  17.458  0.4752 -0.3268 -0.0693
 2825TIP3    H132670   3.527   6.368  17.446 -0.0398  2.2849  2.0032
 2825TIP3    H232671   3.444   6.268  17.524  0.8049  1.4787  1.8818
 2826TIP3   OH232672   3.953   2.137  17.266  0.0458  0.0906  0.2452
 2826TIP3    H132673   3.969   2.104  17.178 -2.1354 -0.2635 -0.0741
 2826TIP3    H232674   3.858   2.130  17.278  0.4619 -3.0243  3.8077
 2827TIP3   OH232675   5.399   2.710  18.572 -0.0969  0.2769  0.2067
 2827TIP3    H132676   5.331   2.759  18.526  1.0336  0.8399 -0.9304
 2827TIP3    H232677   5.373   2.713  18.664 -0.7745  1.8683 -0.0014
 2828TIP3   OH232678   5.963   5.230  17.867 -0.2609  0.5684 -0.1989
 2828TIP3    H132679   5.995   5.219  17.778  0.6477  0.3441  0.1422
 2828TIP3    H232680   6.035   5.199  17.922 -1.0298  0.1490  0.5979
 2829TIP3   OH232681   1.393   4.561  18.282 -0.1000 -0.4546  0.0539
 2829TIP3    H132682   1.453   4.635  18.272  0.3493 -0.8832 -0.3821
 2829TIP3    H232683   1.309   4.594  18.249 -0.0637  0.0677  0.4611
 2830TIP3   OH232684   4.944   4.218  18.079  0.1342 -0.5316 -0.5257
 2830TIP3    H132685   4.983   4.270  18.149  1.3998 -3.3106  0.9758
 2830TIP3    H232686   5.018   4.181  18.031 -0.6107 -2.7957 -0.0671
 2831TIP3   OH232687   4.597   1.424  19.610 -0.2578 -0.1329 -0.8753
 2831TIP3    H132688   4.656   1.493  19.580 -0.9305  0.2664 -1.3071
 2831TIP3    H232689   4.575   1.449  19.700  1.5315 -1.1771 -0.0838
 2832TIP3   OH232690   2.584   7.327  18.549 -0.2340  0.1618  0.2586
 2832TIP3    H132691   2.575   7.372  18.633 -2.1903  0.7874 -0.2328
 2832TIP3    H232692   2.498   7.333  18.509  1.1138  1.7763 -2.7638
 2833TIP3   OH232693   2.076   5.542  18.694 -0.3739  0.4257  0.5629
 2833TIP3    H132694   2.055   5.553  18.601 -0.2152  0.7000  0.5592
 2833TIP3    H232695   2.160   5.586  18.705  1.1111 -2.1280  0.2106
 2834TIP3   OH232696   6.850   0.454  19.504 -0.1491  0.3414  0.1308
 2834TIP3    H132697   6.901   0.529  19.534  1.6112 -0.8043  0.1587
 2834TIP3    H232698   6.905   0.378  19.524 -1.1547 -0.8386 -1.3590
 2835TIP3   OH232699   3.694   6.845  19.313 -0.3184  0.5979 -0.0802
 2835TIP3    H132700   3.681   6.763  19.266 -1.5058  1.3760 -1.1876
 2835TIP3    H232701   3.618   6.899  19.290  0.1232  1.8030  1.0840
 2836TIP3   OH232702   7.153   0.927  17.238  0.1794  0.2715  0.4085
 2836TIP3    H132703   7.239   0.905  17.204  0.2529  2.5529 -1.1083
 2836TIP3    H232704   7.100   0.946  17.160 -1.5491 -0.4862  1.3279
 2837TIP3   OH232705   6.699   2.690  17.613 -0.7813 -0.4942 -0.1440
 2837TIP3    H132706   6.635   2.725  17.551 -1.3885  0.0229  0.7489
 2837TIP3    H232707   6.699   2.596  17.597 -1.3628 -0.4329 -0.5284
 2838TIP3   OH232708   1.070   7.209  19.170 -0.0341  0.1145 -0.4507
 2838TIP3    H132709   1.044   7.177  19.256 -0.5087  0.1363 -0.5803
 2838TIP3    H232710   1.026   7.294  19.162 -0.1006  0.0541 -0.7619
 2839TIP3   OH232711   7.247   1.418  17.110  0.6909  0.0570  0.0656
 2839TIP3    H132712   7.242   1.326  17.137  0.6539 -0.8219 -2.5782
 2839TIP3    H232713   7.340   1.439  17.118  0.5963  0.0424  1.3701
 2840TIP3   OH232714   7.210   0.021  17.001 -0.2542  0.6074 -0.3972
 2840TIP3    H132715   7.283   0.077  16.975 -0.0825  0.3565 -0.4628
 2840TIP3    H232716   7.223  -0.060  16.952 -1.2769  1.0097 -1.3446
 2841TIP3   OH232717   2.064   4.245  17.484  0.2824 -0.0153  0.1413
 2841TIP3    H132718   1.983   4.289  17.458 -0.3595 -1.2340  0.0020
 2841TIP3    H232719   2.132   4.285  17.429 -0.5122 -0.2089 -1.0011
 2842TIP3   OH232720   4.152   4.586  18.514 -0.1296  0.5604  0.1313
 2842TIP3    H132721   4.212   4.559  18.583 -1.0550  0.1294  0.7940
 2842TIP3    H232722   4.105   4.505  18.490 -0.7207  0.9603 -0.0867
 2843TIP3   OH232723   6.413   0.505  18.474 -0.5575  0.1882  0.5915
 2843TIP3    H132724   6.492   0.453  18.491 -0.5470  0.2730  0.8059
 2843TIP3    H232725   6.446   0.590  18.446 -0.5699 -0.1101 -0.3896
 2844TIP3   OH232726   3.034   7.294  17.766 -0.1194 -0.2173 -0.3749
 2844TIP3    H132727   3.045   7.199  17.772 -0.5354 -0.2361  0.1302
 2844TIP3    H232728   3.123   7.327  17.751  0.7277 -0.4215  3.1682
 2845TIP3   OH232729   6.378   7.276  17.631 -0.4267  0.4945  0.2164
 2845TIP3    H132730   6.323   7.235  17.564 -0.6470  1.7167 -0.3808
 2845TIP3    H232731   6.348   7.366  17.634 -0.2094  0.5347  1.7674
 2846TIP3   OH232732   2.593   4.321  17.969 -0.9301  0.3926 -0.0240
 2846TIP3    H132733   2.571   4.331  18.062 -0.8991  3.4835 -0.2402
 2846TIP3    H232734   2.517   4.276  17.931 -0.5343 -1.7753  1.5856
 2847TIP3   OH232735   4.211   3.569  17.955  0.1986  0.3228 -0.3402
 2847TIP3    H132736   4.187   3.536  18.041 -1.8374  0.0538 -0.9653
 2847TIP3    H232737   4.297   3.531  17.938 -0.1222 -1.0066  0.8474
 2848TIP3   OH232738   7.300   5.689  18.372 -0.0942 -0.0858 -0.0147
 2848TIP3    H132739   7.351   5.693  18.291  0.6769  0.3018  0.4801
 2848TIP3    H232740   7.298   5.596  18.395 -0.0846 -0.1646 -0.3262
 2849TIP3   OH232741   5.567   0.845  19.423  0.3945 -0.0093  0.2284
 2849TIP3    H132742   5.482   0.885  19.441  0.4504 -0.2480  1.0491
 2849TIP3    H232743   5.620   0.916  19.386  0.7139  0.9002  2.3016
 2850TIP3   OH232744   2.597   4.059  17.331  0.1138 -0.1066  0.0914
 2850TIP3    H132745   2.513   4.100  17.309  0.2675 -0.2254 -0.7479
 2850TIP3    H232746   2.585   4.026  17.420  0.1051  2.0417  0.9424
 2851TIP3   OH232747   0.844   4.723  18.528 -0.1230  0.0859 -0.3247
 2851TIP3    H132748   0.826   4.774  18.449 -3.1693  1.6662  1.1612
 2851TIP3    H232749   0.886   4.786  18.587  2.2508 -1.1121 -0.6169
 2852TIP3   OH232750   0.880   0.268  18.447 -0.6025  0.1311  0.1967
 2852TIP3    H132751   0.794   0.243  18.414 -0.4025 -0.9195  0.4384
 2852TIP3    H232752   0.941   0.235  18.381 -0.3797  0.9062  0.0079
 2853TIP3   OH232753   1.509   4.246  19.127  0.2999 -0.5218  0.3282
 2853TIP3    H132754   1.441   4.272  19.189 -1.4925  1.1145 -2.1239
 2853TIP3    H232755   1.514   4.150  19.135 -0.0333 -0.3830  2.7362
 2854TIP3   OH232756   7.594   6.624  18.378 -0.4544  0.0887  0.0455
 2854TIP3    H132757   7.648   6.611  18.456 -0.4028 -4.3613 -0.5032
 2854TIP3    H232758   7.653   6.667  18.315  2.0298 -2.9538  0.0836
 2855TIP3   OH232759   3.302   7.416  18.821 -0.5237  0.3705 -0.4406
 2855TIP3    H132760   3.339   7.433  18.907  2.2854 -0.8743 -1.3099
 2855TIP3    H232761   3.269   7.501  18.792  0.6502  1.3177  0.8885
 2856TIP3   OH232762   7.080   5.015  18.258 -0.0111 -0.0411 -0.4123
 2856TIP3    H132763   7.168   5.011  18.296  0.1707 -0.7073 -0.8898
 2856TIP3    H232764   7.070   5.107  18.230  1.1752 -0.3112 -1.8380
 2857TIP3   OH232765   5.002   0.406  19.427  0.1509  0.4183  0.1542
 2857TIP3    H132766   4.978   0.497  19.447 -0.4695  0.5630 -1.1469
 2857TIP3    H232767   5.063   0.413  19.354 -0.9499 -0.2353 -0.8832
 2858TIP3   OH232768   6.815   4.753  19.276  0.4133 -1.1800 -0.6329
 2858TIP3    H132769   6.721   4.746  19.260 -0.3564  1.4994  1.8087
 2858TIP3    H232770   6.844   4.825  19.219 -0.2398  1.5294  2.2158
 2859TIP3   OH232771   5.573   5.809  18.600  0.2538 -0.5936  0.7406
 2859TIP3    H132772   5.492   5.764  18.624 -0.1907 -0.0397  0.3133
 2859TIP3    H232773   5.616   5.749  18.539  0.4665 -1.1589  1.4364
 2860TIP3   OH232774   0.314   3.336  16.994 -0.1094  0.4578 -0.1403
 2860TIP3    H132775   0.388   3.282  16.965 -1.3288 -0.6242 -1.3807
 2860TIP3    H232776   0.354   3.401  17.051  1.5553 -1.2172  0.7452
 2861TIP3   OH232777   7.307   2.346  18.661  0.1801 -0.0605 -0.4420
 2861TIP3    H132778   7.313   2.251  18.650 -0.0837 -0.2009  0.5415
 2861TIP3    H232779   7.397   2.377  18.658  0.3597 -0.4848  0.3292
 2862TIP3   OH232780   1.342   4.891  18.800 -0.3223 -0.3827 -0.2724
 2862TIP3    H132781   1.407   4.896  18.730 -0.2317  0.0062 -0.1600
 2862TIP3    H232782   1.335   4.797  18.818  1.5037 -0.3425  0.9267
 2863TIP3   OH232783   7.228   1.920  18.297  0.6574 -0.3942  0.3198
 2863TIP3    H132784   7.252   1.982  18.365  0.5589 -0.1810  0.1600
 2863TIP3    H232785   7.230   1.971  18.216  0.8431 -0.6616  0.1522
 2864TIP3   OH232786   0.815   6.551  17.301 -0.3809 -0.8156 -0.6904
 2864TIP3    H132787   0.906   6.583  17.297 -0.5644 -0.3885 -1.8997
 2864TIP3    H232788   0.782   6.584  17.385  0.1091  0.3694 -0.9372
 2865TIP3   OH232789   7.346   6.515  18.958 -0.3573  0.2657  0.2460
 2865TIP3    H132790   7.424   6.550  19.001 -0.6354  0.2808  0.7439
 2865TIP3    H232791   7.360   6.531  18.865  1.1329 -1.5179  0.1125
 2866TIP3   OH232792   0.511   6.022  17.735  0.0977 -0.4912  0.5905
 2866TIP3    H132793   0.424   6.060  17.726  0.4897  0.7995  1.9246
 2866TIP3    H232794   0.562   6.060  17.663 -0.7923 -2.4959 -1.2059
 2867TIP3   OH232795   7.204   0.564  19.406 -0.2092 -0.1790  0.0412
 2867TIP3    H132796   7.219   0.584  19.314 -1.3211  0.0614 -0.0972
 2867TIP3    H232797   7.145   0.489  19.405  0.3141 -0.6134  0.5737
 2868TIP3   OH232798   6.923   3.701  19.159  0.0042 -0.4610 -0.4212
 2868TIP3    H132799   6.976   3.654  19.094 -1.3608  0.2307 -2.1295
 2868TIP3    H232800   6.954   3.792  19.153  0.4849 -0.5459  0.5909
 2869TIP3   OH232801   6.334   5.330  17.350  0.3384 -0.1989 -0.9090
 2869TIP3    H132802   6.412   5.299  17.395 -0.3304 -0.3649  0.1728
 2869TIP3    H232803   6.341   5.293  17.261  1.1207 -0.8099 -0.6033
 2870TIP3   OH232804   3.512   4.136  17.051 -0.2476 -0.2578  0.2166
 2870TIP3    H132805   3.598   4.142  17.092  0.5389 -0.4581 -1.3266
 2870TIP3    H232806   3.497   4.043  17.039 -0.6629 -0.2230  0.4520
 2871TIP3   OH232807   6.056   2.449  18.138  0.2443 -0.2208  0.4212
 2871TIP3    H132808   6.028   2.420  18.225  0.3465 -0.2750  0.4363
 2871TIP3    H232809   6.150   2.465  18.147  0.1598  0.2573  0.4514
 2872TIP3   OH232810   1.383   3.895  18.650  0.3137 -0.7815  0.1693
 2872TIP3    H132811   1.476   3.878  18.666  0.7120  0.4218 -0.7237
 2872TIP3    H232812   1.337   3.827  18.699  1.5677  0.3939  3.2223
 2873TIP3   OH232813   6.913   1.515  18.319  0.3066  0.2914  0.5301
 2873TIP3    H132814   6.866   1.537  18.239 -2.6572  1.6699  2.4791
 2873TIP3    H232815   6.990   1.571  18.319 -1.6825  3.2532  0.3827
 2874TIP3   OH232816   0.437   1.085  18.631  0.7497  0.5245 -0.2905
 2874TIP3    H132817   0.395   1.157  18.678 -0.4547 -0.1608 -0.2865
 2874TIP3    H232818   0.372   1.015  18.631  2.0167 -0.6757 -0.0374
 2875TIP3   OH232819   1.616   4.948  17.657 -0.1202  0.5939 -0.1760
 2875TIP3    H132820   1.534   4.997  17.653 -0.6003 -0.2379 -0.6494
 2875TIP3    H232821   1.644   4.941  17.565 -0.3662 -0.5233 -0.1797
 2876TIP3   OH232822   6.880   2.553  18.488 -0.1328  0.5727 -0.0851
 2876TIP3    H132823   6.967   2.544  18.450 -0.4658 -0.7094 -0.5975
 2876TIP3    H232824   6.835   2.615  18.431 -0.0546  0.0267 -0.7474
 2877TIP3   OH232825   2.929   5.501  17.568  0.4310 -0.5384 -0.6225
 2877TIP3    H132826   2.955   5.512  17.659  0.6722  2.0530 -0.9385
 2877TIP3    H232827   2.840   5.535  17.564 -0.0262 -1.7112 -1.1755
 2878TIP3   OH232828   2.655   1.035  16.960 -0.4755  0.1090  0.2180
 2878TIP3    H132829   2.577   1.090  16.963 -0.4813  0.0557  1.3203
 2878TIP3    H232830   2.643   0.981  16.882 -1.0605  0.7905 -0.1816
 2879TIP3   OH232831   1.872   4.040  18.443  0.3275  0.5968 -0.2426
 2879TIP3    H132832   1.777   4.037  18.429 -0.1292  0.6122  2.3052
 2879TIP3    H232833   1.889   3.968  18.504  1.6237  1.8233  0.9095
 2880TIP3   OH232834   1.921   0.179  16.280  0.8500  0.5141 -0.9037
 2880TIP3    H132835   1.997   0.228  16.309 -0.1816  0.4159  2.3023
 2880TIP3    H232836   1.893   0.223  16.199  0.6422  4.5707  1.1335
 2881TIP3   OH232837   3.794   7.192  17.180 -0.5508 -0.1289 -0.1444
 2881TIP3    H132838   3.743   7.184  17.260 -0.2144 -1.1311 -0.0118
 2881TIP3    H232839   3.883   7.207  17.210 -0.3129 -1.1320 -0.2892
 2882TIP3   OH232840   6.256   7.203  17.395  0.0644 -0.6964  0.1851
 2882TIP3    H132841   6.189   7.137  17.378  1.2251 -1.4279 -1.8374
 2882TIP3    H232842   6.242   7.269  17.327 -0.8032  0.9908  1.9067
 2883TIP3   OH232843   1.904   6.036  18.346 -0.4325 -0.2615  0.2351
 2883TIP3    H132844   1.904   6.131  18.339 -1.2157 -0.2234  0.6608
 2883TIP3    H232845   1.860   6.018  18.430  0.6659 -0.9597  0.6799
 2884TIP3   OH232846   1.111   1.784  17.515  0.0106 -0.2029 -0.0558
 2884TIP3    H132847   1.122   1.815  17.425 -0.3739  0.3029  0.0702
 2884TIP3    H232848   1.025   1.743  17.516 -0.3290  0.5132  0.2859
 2885TIP3   OH232849   6.578   4.786  19.129 -0.3145  0.2090 -0.6892
 2885TIP3    H132850   6.552   4.694  19.124  0.1219  0.1041 -1.0877
 2885TIP3    H232851   6.496   4.835  19.125 -0.6723 -0.1945  0.9698
 2886TIP3   OH232852   6.059   3.609  17.279  0.0609 -0.0620 -0.0023
 2886TIP3    H132853   6.154   3.611  17.268 -0.0925 -0.6877 -1.7154
 2886TIP3    H232854   6.031   3.700  17.271  0.4017 -0.0254 -0.8535
 2887TIP3   OH232855   1.956   7.037  16.958  0.2554 -0.4513 -0.3827
 2887TIP3    H132856   2.012   7.111  16.982  2.1869 -1.8066 -0.5136
 2887TIP3    H232857   1.930   7.057  16.867 -1.7695  1.4835  0.5117
 2888TIP3   OH232858   1.423   4.136  18.438 -0.0581  0.5885 -0.0702
 2888TIP3    H132859   1.368   4.099  18.368  1.8287 -1.0353 -0.7889
 2888TIP3    H232860   1.375   4.118  18.518 -0.7995 -0.4127 -0.7110
 2889TIP3   OH232861   5.361   3.249  18.327  0.2902  0.4751 -0.0165
 2889TIP3    H132862   5.299   3.300  18.380  0.8741 -0.1275  1.2979
 2889TIP3    H232863   5.352   3.159  18.359  1.1726  0.2172 -0.4482
 2890TIP3   OH232864   5.316   1.269  18.151 -0.3808 -0.0910 -0.4244
 2890TIP3    H132865   5.357   1.318  18.222  0.9589  0.2372 -1.3866
 2890TIP3    H232866   5.244   1.222  18.193 -0.3030  0.9421  0.9377
 2891TIP3   OH232867   3.320   1.106  18.759 -0.6091  0.0860  0.1676
 2891TIP3    H132868   3.257   1.165  18.718 -0.2894 -0.0428 -0.5173
 2891TIP3    H232869   3.335   1.038  18.694  0.0617 -0.0112  0.4172
 2892TIP3   OH232870   7.098   4.059  17.960  0.2150 -0.0644  0.2897
 2892TIP3    H132871   7.126   4.146  17.932 -0.6298 -0.1980 -1.0386
 2892TIP3    H232872   7.067   4.072  18.050  0.9963  0.8018  0.4500
 2893TIP3   OH232873   6.729   6.821  18.539  0.3559  0.4902  0.1425
 2893TIP3    H132874   6.799   6.756  18.549  0.0861  0.1815  0.0447
 2893TIP3    H232875   6.698   6.836  18.629  0.9740  1.1141  0.2669
 2894TIP3   OH232876   6.886   0.587  19.256  0.1832  0.9728 -0.8226
 2894TIP3    H132877   6.861   0.566  19.346 -0.1675  0.1592 -1.0986
 2894TIP3    H232878   6.880   0.682  19.250  0.9331  1.0939  0.2235
 2895TIP3   OH232879   6.189   1.278  19.119 -0.0187  0.0692 -0.2977
 2895TIP3    H132880   6.143   1.194  19.125 -0.8925  0.3932 -1.8634
 2895TIP3    H232881   6.124   1.343  19.146 -0.2464  0.4555 -1.6892
 2896TIP3   OH232882   5.999   5.613  18.007 -0.4335 -0.2797  0.3168
 2896TIP3    H132883   6.073   5.553  18.006  0.2819  0.5649  0.8015
 2896TIP3    H232884   5.943   5.584  17.935  0.6718 -0.5562 -0.4585
 2897TIP3   OH232885   3.068   0.844  19.012  0.2842  0.1962 -0.7075
 2897TIP3    H132886   2.988   0.816  19.058  0.9816 -1.1516 -0.2695
 2897TIP3    H232887   3.036   0.891  18.935 -0.9421 -0.5414 -0.6781
 2898TIP3   OH232888   5.603   4.065  19.114  0.3223  0.0082 -0.1913
 2898TIP3    H132889   5.603   4.157  19.090  0.9070  0.2203  0.5802
 2898TIP3    H232890   5.574   4.019  19.035  1.3419  0.7488 -1.0256
 2899TIP3   OH232891   2.115   5.748  18.172  0.1059 -0.3430  0.2646
 2899TIP3    H132892   2.037   5.714  18.128 -0.1791  2.4976 -1.7008
 2899TIP3    H232893   2.186   5.735  18.109  0.6231 -0.1951  0.8054
 2900TIP3   OH232894   7.504   0.834  18.504 -0.2303 -0.8283 -0.0812
 2900TIP3    H132895   7.539   0.829  18.415 -0.4115  0.3202 -0.2388
 2900TIP3    H232896   7.467   0.922  18.510  1.6208 -0.0926  1.8048
 2901TIP3   OH232897   1.691   5.057  19.096 -0.0361  0.8212 -0.2757
 2901TIP3    H132898   1.781   5.089  19.095  0.0887  0.4970 -1.9972
 2901TIP3    H232899   1.698   4.965  19.071 -0.7213  0.3617  1.1325
 2902TIP3   OH232900   4.025   5.404  18.608  0.6418 -0.4729  0.4336
 2902TIP3    H132901   4.093   5.342  18.582  0.6554 -0.0045 -0.6612
 2902TIP3    H232902   4.064   5.454  18.680  1.0392 -0.9576  0.5574
 2903TIP3   OH232903   4.686   3.584  18.202  0.2642  1.0295 -0.0366
 2903TIP3    H132904   4.758   3.601  18.263 -1.6461 -2.3610  3.5716
 2903TIP3    H232905   4.612   3.562  18.258 -1.9833 -1.3614 -3.5818
 2904TIP3   OH232906   6.465   4.063  17.155  0.4572 -0.1986 -0.7207
 2904TIP3    H132907   6.547   4.038  17.111  0.3925 -3.5831  0.7343
 2904TIP3    H232908   6.396   4.022  17.101  0.0109 -0.2594 -0.1083
 2905TIP3   OH232909   5.090   3.586  18.063  0.2562 -1.2727  0.1384
 2905TIP3    H132910   5.058   3.533  18.137 -0.7835 -0.8652  0.0097
 2905TIP3    H232911   5.062   3.675  18.085  0.6960 -1.0159 -0.3399
 2906TIP3   OH232912   1.539   3.132  18.751  0.1945 -0.2328  0.3344
 2906TIP3    H132913   1.493   3.109  18.832  0.0837  0.7485  0.5610
 2906TIP3    H232914   1.511   3.221  18.732  1.9127  0.3476  0.4045
 2907TIP3   OH232915   1.467   2.461  18.619 -0.4237  0.4992 -0.0768
 2907TIP3    H132916   1.483   2.463  18.713  0.1471  0.1304 -0.1617
 2907TIP3    H232917   1.378   2.496  18.609 -0.2509  1.1341  0.5405
 2908TIP3   OH232918   4.040   3.265  18.388  0.0241  0.3993  0.3536
 2908TIP3    H132919   4.017   3.243  18.298  0.3776  0.8975  0.1361
 2908TIP3    H232920   3.975   3.329  18.414  0.4310  0.8942  0.1573
 2909TIP3   OH232921   0.826   2.148  19.436  0.6563 -0.6952 -0.3378
 2909TIP3    H132922   0.776   2.147  19.517  1.1846 -1.1101 -0.0068
 2909TIP3    H232923   0.767   2.108  19.371  0.0335  0.1219 -0.2971
 2910TIP3   OH232924   0.172   3.680  17.390  0.2997  0.4001 -0.6261
 2910TIP3    H132925   0.165   3.626  17.469  2.4698 -2.2222 -2.0573
 2910TIP3    H232926   0.102   3.649  17.333 -1.4733  2.5161  0.2644
 2911TIP3   OH232927   5.570   3.505  18.164  0.4021 -0.3845 -0.0120
 2911TIP3    H132928   5.537   3.484  18.251 -0.8699  1.1610 -0.0784
 2911TIP3    H232929   5.660   3.533  18.178  0.2710 -0.3419  0.7832
 2912TIP3   OH232930   5.970   7.654  19.286  0.0024 -0.9541  0.0236
 2912TIP3    H132931   5.932   7.659  19.198  0.5517  0.2355 -0.1724
 2912TIP3    H232932   5.930   7.577  19.326 -2.1522 -0.1126 -0.3961
 2913TIP3   OH232933   0.429   1.271  17.250  0.9187 -0.5940  0.5611
 2913TIP3    H132934   0.427   1.189  17.200 -2.7319 -0.1850 -0.2757
 2913TIP3    H232935   0.465   1.335  17.189 -0.5421 -0.7398 -0.5205
 2914TIP3   OH232936   2.948   4.374  17.769 -0.3745  0.1161 -0.0638
 2914TIP3    H132937   3.007   4.328  17.710 -0.2713  0.0700  0.0727
 2914TIP3    H232938   2.920   4.307  17.831  0.1610  0.3407  0.4354
 2915TIP3   OH232939   7.127   6.023  17.222  0.1743 -0.2824  0.3436
 2915TIP3    H132940   7.121   5.931  17.197 -1.0633 -0.0505 -0.3226
 2915TIP3    H232941   7.062   6.032  17.292  0.4289  0.0388  0.5360
 2916TIP3   OH232942   4.366   1.743  17.714 -0.0297  0.4029  0.6428
 2916TIP3    H132943   4.363   1.837  17.697  1.9223  0.4902  0.5397
 2916TIP3    H232944   4.275   1.716  17.718 -0.6432  2.4277  1.3795
 2917TIP3   OH232945   7.164   3.007  19.169 -0.7838 -0.5015 -0.2017
 2917TIP3    H132946   7.088   2.979  19.220 -0.6083 -0.4327  0.1035
 2917TIP3    H232947   7.211   2.925  19.150 -1.1536 -0.5915 -0.7544
 2918TIP3   OH232948   0.744   0.935  17.328 -0.1116  0.4183 -0.0209
 2918TIP3    H132949   0.794   0.906  17.252  3.7966  0.6787  2.1817
 2918TIP3    H232950   0.710   1.021  17.304  1.7939  0.8889 -1.2262
 2919TIP3   OH232951   5.403   3.122  19.717 -0.5616  0.1009  0.5564
 2919TIP3    H132952   5.387   3.208  19.680  1.1043  1.5505  2.9197
 2919TIP3    H232953   5.365   3.061  19.654  0.2113  2.4050 -2.3533
 2920TIP3   OH232954   1.806   3.131  19.093 -0.1953 -0.3338  0.8328
 2920TIP3    H132955   1.727   3.083  19.119 -0.5724 -0.5718 -0.7068
 2920TIP3    H232956   1.774   3.205  19.042  0.5621 -0.1069  0.6733
 2921TIP3   OH232957   0.312   1.449  18.439 -0.3175 -0.9767  0.0577
 2921TIP3    H132958   0.297   1.415  18.350 -0.1128  1.1965 -0.8697
 2921TIP3    H232959   0.403   1.477  18.439 -0.4886 -0.3954  0.7661
 2922TIP3   OH232960   7.313   5.122  18.670 -0.1692  0.2373 -0.6612
 2922TIP3    H132961   7.393   5.159  18.707 -0.4496  0.1499  0.0643
 2922TIP3    H232962   7.286   5.055  18.734 -0.5730 -0.0470 -1.1209
 2923TIP3   OH232963   1.991   6.334  17.028  0.3836 -0.6039 -0.6358
 2923TIP3    H132964   1.904   6.299  17.047 -0.6689  0.4976 -3.1012
 2923TIP3    H232965   2.047   6.257  17.023 -1.3292 -1.7905 -3.2340
 2924TIP3   OH232966   2.302   6.179  19.061 -0.2810  0.3985  0.2768
 2924TIP3    H132967   2.270   6.094  19.090 -0.9995  0.2240 -0.9655
 2924TIP3    H232968   2.352   6.212  19.135 -0.4895 -0.8414  0.9967
 2925TIP3   OH232969   4.408   2.689  18.717  0.7083 -0.1682  0.0584
 2925TIP3    H132970   4.467   2.738  18.774  0.4495 -1.0716  1.1217
 2925TIP3    H232971   4.431   2.597  18.730 -0.4205 -0.4950 -0.0773
 2926TIP3   OH232972   2.107   2.524  18.337  0.3624  0.2204  0.1055
 2926TIP3    H132973   2.178   2.485  18.286  0.3614  0.2606  0.0735
 2926TIP3    H232974   2.055   2.449  18.367 -0.5942  0.2636 -1.3526
 2927TIP3   OH232975   5.213   4.152  18.362 -0.4508 -0.8272 -0.1061
 2927TIP3    H132976   5.143   4.101  18.321  0.9089 -2.1169 -0.9346
 2927TIP3    H232977   5.236   4.217  18.296 -1.3863  0.1485  0.4922
 2928TIP3   OH232978   7.391   5.744  18.122  0.3082 -0.1406  0.2616
 2928TIP3    H132979   7.448   5.775  18.052  0.5785 -1.0516  0.0717
 2928TIP3    H232980   7.309   5.722  18.078 -0.0784  0.7910  0.4787
 2929TIP3   OH232981   2.661   0.855  16.761  0.2604 -0.1377  0.0473
 2929TIP3    H132982   2.609   0.784  16.722  2.2865 -0.8370 -1.5188
 2929TIP3    H232983   2.661   0.924  16.694 -0.9567  1.0427  1.2042
 2930TIP3   OH232984   7.545   3.093  17.876  0.5440 -0.5819 -0.0031
 2930TIP3    H132985   7.498   3.104  17.958  1.2501  0.7464  0.2571
 2930TIP3    H232986   7.488   3.038  17.822  0.4452 -2.1677  1.6470
 2931TIP3   OH232987   3.448   0.183  19.278 -0.5032  0.4781  0.0121
 2931TIP3    H132988   3.362   0.197  19.237 -0.9348  0.3645  0.8709
 2931TIP3    H232989   3.480   0.271  19.297 -1.1112  0.4839  1.0732
 2932TIP3   OH232990   4.754   5.329  17.873 -0.5554  0.4077 -0.1910
 2932TIP3    H132991   4.773   5.387  17.947 -2.5899 -0.3098  0.9928
 2932TIP3    H232992   4.669   5.289  17.895 -0.2024 -1.4813 -1.9112
 2933TIP3   OH232993   6.039   5.378  18.892 -0.4309  0.9027 -0.0047
 2933TIP3    H132994   6.108   5.368  18.958 -1.1522  0.6250  0.7267
 2933TIP3    H232995   6.078   5.435  18.826  0.6553  0.4012  0.1670
 2934TIP3   OH232996   5.997   3.751  18.613  0.4637 -0.4960  0.0176
 2934TIP3    H132997   6.063   3.819  18.611  0.0732 -0.0918 -2.5067
 2934TIP3    H232998   5.923   3.787  18.564 -0.1404 -2.3352 -0.5346
 2935TIP3   OH232999   5.160   6.311  16.797 -0.3919 -0.2825  0.3556
 2935TIP3    H133000   5.225   6.242  16.808  0.4247  0.1118 -1.4593
 2935TIP3    H233001   5.123   6.295  16.710  0.3485  1.9305 -0.4375
 2936TIP3   OH233002   3.352   2.117  17.905  0.2080  0.7059  0.5183
 2936TIP3    H133003   3.346   2.039  17.850 -1.4359  0.9460  0.3144
 2936TIP3    H233004   3.287   2.177  17.870 -0.8664  0.8955  2.6392
 2937TIP3   OH233005   5.235   1.718  18.841 -0.0370 -0.0792 -0.1936
 2937TIP3    H133006   5.214   1.790  18.900 -0.2803  0.2882 -0.7197
 2937TIP3    H233007   5.317   1.744  18.799  0.6874 -0.8080  0.7210
 2938TIP3   OH233008   4.714   5.204  17.192  0.8901  0.0954 -0.3027
 2938TIP3    H133009   4.723   5.176  17.101  0.5834 -0.6364 -0.1137
 2938TIP3    H233010   4.792   5.257  17.208  1.2031 -0.1894 -0.8444
 2939TIP3   OH233011   1.606   5.532  18.034  0.5397 -0.3679 -0.0616
 2939TIP3    H133012   1.530   5.506  18.086  0.6055 -0.2985  0.0701
 2939TIP3    H233013   1.668   5.568  18.098  0.5458 -0.1105 -0.2103
 2940TIP3   OH233014   3.083   0.193  16.404  0.0999  0.3007 -0.0688
 2940TIP3    H133015   2.987   0.196  16.404  0.0990  0.3655  0.5317
 2940TIP3    H233016   3.109   0.284  16.394  0.0826  0.6253  2.2970
 2941TIP3   OH233017   0.543   4.107  18.402  0.3994  0.5301 -0.0701
 2941TIP3    H133018   0.567   4.143  18.317 -0.3715  0.3253 -0.3786
 2941TIP3    H233019   0.614   4.134  18.460  1.0000  0.5503 -0.8034
 2942TIP3   OH233020   3.952   2.834  18.299  0.3139 -0.6248  0.1080
 2942TIP3    H133021   3.886   2.887  18.254  0.4812 -1.2900 -0.9509
 2942TIP3    H233022   3.910   2.809  18.382 -0.6436 -0.7608 -0.4027
 2943TIP3   OH233023   2.094   4.624  16.660  0.4061 -0.3378  0.1412
 2943TIP3    H133024   2.183   4.593  16.645  0.2127 -1.0966  0.5161
 2943TIP3    H233025   2.038   4.549  16.641 -0.0957 -0.1196  0.7136
 2944TIP3   OH233026   0.063   5.158  17.129  0.6160 -0.4739 -0.0562
 2944TIP3    H133027   0.004   5.127  17.060  1.0296  1.0879 -1.1778
 2944TIP3    H233028   0.132   5.205  17.082  0.1491  1.8813  1.4631
 2945TIP3   OH233029   1.593   2.991  17.983 -0.8716  0.4078 -0.3468
 2945TIP3    H133030   1.655   2.954  18.045 -0.4497 -0.4925 -1.2907
 2945TIP3    H233031   1.638   2.989  17.899 -3.1854 -3.3611 -1.7710
 2946TIP3   OH233032   4.826   0.273  17.927  0.1167  0.4176  0.7249
 2946TIP3    H133033   4.767   0.309  17.860  2.9143  2.5775 -0.7825
 2946TIP3    H233034   4.851   0.187  17.894 -0.3211  0.4993  0.1658
 2947TIP3   OH233035   4.674   4.044  18.875  0.4509  0.4193  0.0580
 2947TIP3    H133036   4.585   4.030  18.907  0.6271  0.2370  0.4700
 2947TIP3    H233037   4.682   4.139  18.867  0.1792  0.4311 -0.0975
 2948TIP3   OH233038   5.935   2.686  19.195 -0.6741  0.1497 -0.1627
 2948TIP3    H133039   5.990   2.661  19.269 -1.1879 -2.4864 -0.6014
 2948TIP3    H233040   5.964   2.632  19.123 -1.7312  1.0065 -1.2801
 2949TIP3   OH233041   2.902   6.021  19.544  0.7579  0.0302  0.5473
 2949TIP3    H133042   2.919   5.946  19.487  0.3644  0.6187 -0.3587
 2949TIP3    H233043   2.958   6.005  19.621  1.1858 -0.8409  0.0739
 2950TIP3   OH233044   1.100   5.415  18.357  0.1249 -0.0143 -0.3723
 2950TIP3    H133045   1.194   5.422  18.369  0.2648  0.4597 -1.5941
 2950TIP3    H233046   1.067   5.504  18.372  0.1465  0.2907 -1.9901
 2951TIP3   OH233047   6.711   7.134  18.175  0.1656  0.0653  0.1350
 2951TIP3    H133048   6.708   7.167  18.085  1.7994 -0.5144 -0.1559
 2951TIP3    H233049   6.695   7.040  18.167 -0.5865  0.1487  0.5559
 2952TIP3   OH233050   7.606   1.559  18.733  0.2743  0.8026 -0.3160
 2952TIP3    H133051   7.671   1.489  18.735  0.6569  1.1112 -1.3132
 2952TIP3    H233052   7.590   1.575  18.640 -0.1861  1.6830 -0.0990
 2953TIP3   OH233053   4.511   4.804  18.791 -0.2191 -0.2348 -0.0466
 2953TIP3    H133054   4.496   4.754  18.711 -0.9605  0.4761 -0.3722
 2953TIP3    H233055   4.463   4.756  18.858 -1.0188  0.0884 -0.3790
 2954TIP3   OH233056   0.629   3.551  18.554 -0.2128  0.1402  0.1109
 2954TIP3    H133057   0.570   3.618  18.591 -0.8026 -0.7537  0.8189
 2954TIP3    H233058   0.609   3.472  18.603  1.0221 -0.3821 -0.2119
 2955TIP3   OH233059   6.087   1.441  18.044 -0.3353 -0.3916  0.3719
 2955TIP3    H133060   6.160   1.465  18.100 -0.6326 -0.8644  0.9827
 2955TIP3    H233061   6.107   1.351  18.016 -0.4023 -0.3148  0.0718
 2956TIP3   OH233062   2.741   6.322  19.024  0.6112  0.0697  0.0557
 2956TIP3    H133063   2.709   6.404  19.063  0.1287  0.3316 -0.8707
 2956TIP3    H233064   2.663   6.282  18.985  0.8660 -0.7807  0.3911
 2957TIP3   OH233065   0.588   1.439  19.650 -0.1871 -0.1733  0.2150
 2957TIP3    H133066   0.627   1.465  19.566 -1.0008  0.7947  0.1150
 2957TIP3    H233067   0.586   1.344  19.647  1.8835 -0.2456  0.1124
 2958TIP3   OH233068   7.152   1.662  18.359 -0.0721 -0.0896  0.2921
 2958TIP3    H133069   7.151   1.679  18.453  1.2475  0.0358  0.3110
 2958TIP3    H233070   7.171   1.747  18.320 -1.0963 -0.0457 -0.1298
 2959TIP3   OH233071   3.252   2.903  17.880 -0.2690  0.0234  0.4440
 2959TIP3    H133072   3.259   2.808  17.875  0.1632 -0.1291  2.7793
 2959TIP3    H233073   3.159   2.921  17.870 -0.3341 -0.6241 -0.1587
 2960TIP3   OH233074   2.216   4.179  19.129 -0.3024  0.1700  0.2373
 2960TIP3    H133075   2.292   4.219  19.172 -1.1217 -0.1116  2.0525
 2960TIP3    H233076   2.233   4.085  19.134 -0.5674  0.1236  0.2668
 2961TIP3   OH233077   2.663   4.388  18.658 -0.2439 -0.4013  0.2833
 2961TIP3    H133078   2.603   4.453  18.695 -0.1488  0.2376 -0.6576
 2961TIP3    H233079   2.663   4.406  18.564 -0.2683 -1.8168 -0.0117
 2962TIP3   OH233080   6.941   7.646  17.008 -0.4575  0.3222 -0.4911
 2962TIP3    H133081   6.920   7.608  16.922 -0.3367  1.4264 -1.0217
 2962TIP3    H233082   7.034   7.665  17.004  0.3423 -2.6596  1.1215
 2963TIP3   OH233083   0.415   5.034  19.376  0.0185  0.3618  0.1395
 2963TIP3    H133084   0.365   5.108  19.341  0.5849 -0.4559 -2.6537
 2963TIP3    H233085   0.355   4.990  19.436 -1.8781  0.6913 -1.4286
 2964TIP3   OH233086   4.760   7.336  19.467 -0.0573 -0.3850 -0.1696
 2964TIP3    H133087   4.693   7.299  19.409  0.1795 -0.6611 -0.2663
 2964TIP3    H233088   4.710   7.384  19.533 -0.3156  0.5017 -0.9746
 2965TIP3   OH233089   5.331   4.236  19.076  0.2760  0.0005  0.2407
 2965TIP3    H133090   5.264   4.252  19.009  0.7261 -1.9859 -0.7474
 2965TIP3    H233091   5.397   4.303  19.060  0.3591 -0.4098 -1.3092
 2966TIP3   OH233092   4.299   7.105  17.871  0.2787  0.1862 -0.0416
 2966TIP3    H133093   4.356   7.072  17.941  1.2909  2.1842  0.1460
 2966TIP3    H233094   4.214   7.063  17.887  0.9270 -0.6369  1.4143
 2967TIP3   OH233095   0.915   6.980  16.809 -0.1929 -0.2599 -0.0241
 2967TIP3    H133096   0.989   7.041  16.804 -0.8205  0.4455 -1.0659
 2967TIP3    H233097   0.956   6.893  16.807  0.6491  0.1231  0.1406
 2968TIP3   OH233098   4.079   5.844  17.978  0.2189 -0.5398  0.2900
 2968TIP3    H133099   3.996   5.799  17.995 -0.9562  1.4350  0.1101
 2968TIP3    H233100   4.062   5.936  18.002  1.7341  0.3106 -1.6439
 2969TIP3   OH233101   2.829   2.268  17.480 -0.6270  0.4033 -0.0484
 2969TIP3    H133102   2.780   2.269  17.562 -2.5012 -1.6383 -1.0414
 2969TIP3    H233103   2.809   2.353  17.440 -2.2873  0.1744  0.2168
 2970TIP3   OH233104   2.350   4.514  17.103 -0.2905  0.3132 -0.0480
 2970TIP3    H133105   2.427   4.559  17.068 -1.3525  1.3672 -1.0720
 2970TIP3    H233106   2.276   4.550  17.055 -1.2222 -2.5930 -0.9918
 2971TIP3   OH233107   1.925   2.374  18.059 -0.0443  0.5241  0.0435
 2971TIP3    H133108   1.998   2.315  18.079  0.1845  0.4854 -0.8859
 2971TIP3    H233109   1.958   2.431  17.990 -1.9664 -1.7402 -2.9702
 2972TIP3   OH233110   7.411   4.574  19.269  0.3722  0.4459  0.5146
 2972TIP3    H133111   7.431   4.568  19.176 -0.2650  0.7698  0.3440
 2972TIP3    H233112   7.368   4.491  19.290 -2.4118  1.5359 -0.2743
 2973TIP3   OH233113   3.179   3.808  18.631  0.3298  0.1007  0.7099
 2973TIP3    H133114   3.148   3.741  18.692  0.1654 -0.5774 -0.0912
 2973TIP3    H233115   3.122   3.798  18.555  0.4129  1.0548  0.5144
 2974TIP3   OH233116   0.099   4.520  18.543  0.3011  0.0757 -0.3902
 2974TIP3    H133117   0.099   4.449  18.607  0.5707  0.0238 -0.4446
 2974TIP3    H233118   0.095   4.600  18.595 -2.0276 -0.0044 -0.3738
 2975TIP3   OH233119   5.926   3.018  17.523 -0.1486 -0.0104 -0.0064
 2975TIP3    H133120   5.977   3.085  17.568  1.7863 -1.6019  0.3061
 2975TIP3    H233121   5.845   3.012  17.574  0.7820  0.2244  1.5861
 2976TIP3   OH233122   7.372   1.478  18.350  0.0571  0.3053  0.2183
 2976TIP3    H133123   7.442   1.505  18.291  0.7711  0.3024  1.0486
 2976TIP3    H233124   7.309   1.550  18.348 -0.1195  0.1465 -0.8170
 2977TIP3   OH233125   5.682   4.704  18.600  0.0239 -0.6173  0.1304
 2977TIP3    H133126   5.632   4.761  18.541 -0.1651  0.4960  1.3118
 2977TIP3    H233127   5.772   4.711  18.567 -0.0837 -0.0585 -0.0728
 2978TIP3   OH233128   6.562   5.272  16.824 -0.3184 -0.0655  0.1679
 2978TIP3    H133129   6.611   5.351  16.845  0.0473 -0.3676  0.4621
 2978TIP3    H233130   6.493   5.302  16.764 -0.3143  0.5084  0.4379
 2979TIP3   OH233131   3.354   5.514  18.517 -0.6010  0.1285 -0.1045
 2979TIP3    H133132   3.365   5.449  18.448 -0.4412  1.5242 -1.4397
 2979TIP3    H233133   3.351   5.462  18.598 -1.7659 -1.6266 -1.2054
 2980TIP3   OH233134   0.013   6.167  17.448  0.0815 -0.1740 -0.0944
 2980TIP3    H133135   0.092   6.117  17.468  0.6414  0.6182 -0.2483
 2980TIP3    H233136   0.046   6.253  17.420 -0.8137 -0.0092 -0.6885
 2981TIP3   OH233137   1.856   0.694  18.188 -0.4668 -0.1067  0.2335
 2981TIP3    H133138   1.826   0.640  18.115 -0.2610  0.1374 -0.0360
 2981TIP3    H233139   1.928   0.643  18.227 -0.4881 -0.1769  0.1819
 2982TIP3   OH233140   6.520   3.638  16.641  0.6329 -0.1366  0.1163
 2982TIP3    H133141   6.573   3.678  16.710  1.8093 -2.2880  0.5567
 2982TIP3    H233142   6.576   3.641  16.563  0.5066 -0.3678  0.0124
 2983TIP3   OH233143   1.197   0.374  19.269 -0.1356 -0.1604  0.5419
 2983TIP3    H133144   1.256   0.428  19.321 -1.9700  1.0699  1.4526
 2983TIP3    H233145   1.210   0.404  19.179 -1.0939  1.8713  1.0206
 2984TIP3   OH233146   4.244   3.914  18.228 -0.1414  0.2398 -0.2519
 2984TIP3    H133147   4.229   3.988  18.170 -0.6715 -1.4605 -2.4221
 2984TIP3    H233148   4.338   3.897  18.222 -0.1992  0.0510 -0.6492
 2985TIP3   OH233149   4.665   5.818  16.567 -0.1741  0.3209  0.1291
 2985TIP3    H133150   4.742   5.764  16.583 -0.4830  0.0813  0.8345
 2985TIP3    H233151   4.694   5.881  16.501  0.1438 -0.7960 -0.8325
 2986TIP3   OH233152   1.534   0.657  18.069 -0.2296 -0.2155 -0.4590
 2986TIP3    H133153   1.461   0.607  18.106 -0.9593  1.5064  0.5032
 2986TIP3    H233154   1.495   0.711  18.001  0.2994  0.1137 -0.5026
 2987TIP3   OH233155   3.305   6.211  18.075  0.4004  0.0834 -0.0148
 2987TIP3    H133156   3.267   6.196  17.988 -1.1260 -1.0614  0.8062
 2987TIP3    H233157   3.278   6.300  18.098 -1.7356 -0.6105  0.4532
 2988TIP3   OH233158   0.961   1.597  19.324 -0.0559  0.2600 -0.2301
 2988TIP3    H133159   0.966   1.538  19.249  0.4748  1.3854 -1.1017
 2988TIP3    H233160   0.974   1.684  19.288 -0.2676  0.8794  1.1115
 2989TIP3   OH233161   5.113   0.835  17.227  0.3638 -0.1040 -0.2347
 2989TIP3    H133162   5.208   0.826  17.223  0.3509 -0.6581  0.6433
 2989TIP3    H233163   5.083   0.807  17.140  1.0472  0.8558 -0.8002
 2990TIP3   OH233164   7.224   1.055  19.060 -0.0002 -0.4803  0.0457
 2990TIP3    H133165   7.240   0.991  18.991 -0.2722 -0.4032 -0.0909
 2990TIP3    H233166   7.141   1.095  19.037  0.7189  0.7408 -0.4800
 2991TIP3   OH233167   4.609   4.400  17.482  0.2815  0.0242  0.4341
 2991TIP3    H133168   4.566   4.437  17.559  1.2633 -0.8371  1.4261
 2991TIP3    H233169   4.556   4.429  17.408 -1.4532 -0.2204  1.5350
 2992TIP3   OH233170   3.259   5.518  19.644 -0.1399 -0.4960 -0.2677
 2992TIP3    H133171   3.167   5.541  19.632 -0.4095 -0.1783  1.9666
 2992TIP3    H233172   3.305   5.602  19.642 -0.5542 -0.0441  3.2739
 2993TIP3   OH233173   6.025   1.832  18.393  0.1070 -0.2348 -0.0414
 2993TIP3    H133174   6.109   1.797  18.363  0.0454 -1.1438  0.7582
 2993TIP3    H233175   6.003   1.777  18.468  0.5182  2.2461  2.0188
 2994TIP3   OH233176   1.045   5.235  18.623 -0.0260  0.5138  0.4512
 2994TIP3    H133177   0.950   5.247  18.622 -0.0452  0.4479  0.9701
 2994TIP3    H233178   1.079   5.324  18.633  0.0513  0.7848 -1.7976
 2995TIP3   OH233179   0.103   2.475  19.124 -0.4464  0.6691 -0.1278
 2995TIP3    H133180   0.143   2.499  19.207 -1.8395  1.6173  0.2924
 2995TIP3    H233181   0.093   2.557  19.077  0.6484  0.1013 -1.4116
 2996TIP3   OH233182   1.098   0.979  17.536 -0.0686  0.1514  0.0987
 2996TIP3    H133183   1.159   1.008  17.467 -0.4761 -2.1176 -1.3309
 2996TIP3    H233184   1.092   1.054  17.595  0.7121  2.0484 -2.0432
 2997TIP3   OH233185   4.506   0.413  19.256  0.1659  0.0552  0.0559
 2997TIP3    H133186   4.593   0.378  19.273  0.3750  0.8335  0.6474
 2997TIP3    H233187   4.471   0.434  19.343 -1.0412 -1.2373 -0.0865
 2998TIP3   OH233188   6.703   2.400  17.764  0.0703 -0.4876  0.0253
 2998TIP3    H133189   6.774   2.344  17.794  0.5461 -1.1935 -2.2468
 2998TIP3    H233190   6.681   2.366  17.677 -0.2418  2.2793 -1.0582
 2999TIP3   OH233191   3.570   3.295  18.895 -0.5234 -0.2865 -0.4027
 2999TIP3    H133192   3.614   3.211  18.879  0.8640  0.5822 -1.3566
 2999TIP3    H233193   3.572   3.305  18.990 -2.2064 -2.0825 -0.1175
 3000TIP3   OH233194   2.874   5.266  19.332 -0.2906  0.1789 -0.3233
 3000TIP3    H133195   2.780   5.277  19.314 -0.6350 -1.1235  0.5372
 3000TIP3    H233196   2.903   5.203  19.267 -0.4487 -0.8084  0.5266
 3001TIP3   OH233197   3.182   2.439  19.010  0.5757 -0.2692  0.0847
 3001TIP3    H133198   3.125   2.445  18.933 -2.6586 -1.2445  2.2020
 3001TIP3    H233199   3.185   2.529  19.044 -0.1029 -0.2743  0.1781
 3002TIP3   OH233200   7.583   0.066  18.597 -0.6018  0.3672  0.0103
 3002TIP3    H133201   7.527   0.019  18.535 -0.8064  0.4976  0.0971
 3002TIP3    H233202   7.628  -0.003  18.646  2.4243  0.1303 -2.7629
 3003TIP3   OH233203   5.745   5.662  17.756  0.5092 -0.6401 -0.0312
 3003TIP3    H133204   5.676   5.599  17.780 -0.1664 -0.1380 -0.6318
 3003TIP3    H233205   5.817   5.607  17.725  0.7435 -1.2233  1.4488
 3004TIP3   OH233206   4.107   7.308  16.870 -0.0011 -0.5257 -0.2915
 3004TIP3    H133207   4.171   7.366  16.831 -2.5185  0.5837 -3.1415
 3004TIP3    H233208   4.145   7.220  16.862  1.6003  0.1863 -0.8211
 3005TIP3   OH233209   7.351   4.814  18.093 -0.6032  0.2426  0.0193
 3005TIP3    H133210   7.355   4.737  18.037  0.9173  0.1088  0.2547
 3005TIP3    H233211   7.384   4.783  18.178 -1.8881  0.6835  0.7116
 3006TIP3   OH233212   0.401   6.556  18.495  0.5048  0.3575 -0.1164
 3006TIP3    H133213   0.403   6.544  18.400  1.1056  1.6671 -0.2933
 3006TIP3    H233214   0.423   6.470  18.530  1.0622  0.0401 -1.1811
 3007TIP3   OH233215   5.045   0.876  16.733 -0.4993 -0.3084 -0.2027
 3007TIP3    H133216   5.036   0.962  16.775 -1.5975 -0.4167 -0.1629
 3007TIP3    H233217   4.969   0.871  16.675  1.2928  0.0935 -2.6961
 3008TIP3   OH233218   1.112   7.061  17.554  0.0660  0.2094  0.1140
 3008TIP3    H133219   1.168   7.130  17.590  1.1406 -0.4785 -0.2041
 3008TIP3    H233220   1.133   6.984  17.605  0.1046 -0.2835 -0.6280
 3009TIP3   OH233221   2.846   0.518  17.690  0.1411  0.1380  0.1849
 3009TIP3    H133222   2.800   0.517  17.606  0.8683  0.2422 -0.2194
 3009TIP3    H233223   2.913   0.586  17.680  0.0767  0.3220  0.9376
 3010TIP3   OH233224   1.441   2.412  18.901 -0.3122  0.1657 -0.3358
 3010TIP3    H133225   1.402   2.480  18.956 -1.7039 -0.4127 -0.5668
 3010TIP3    H233226   1.377   2.342  18.901  1.0970 -1.1711 -0.0988
 3011TIP3   OH233227   5.954   2.519  18.578  0.2670 -0.2160  0.2782
 3011TIP3    H133228   5.942   2.477  18.663  0.2463 -0.2785  0.2431
 3011TIP3    H233229   5.895   2.472  18.519  0.0701  0.0088  0.2902
 3012TIP3   OH233230   3.542   3.164  18.607 -0.1478  0.5847 -0.0204
 3012TIP3    H133231   3.482   3.192  18.676  1.2925  2.0399  0.6991
 3012TIP3    H233232   3.510   3.206  18.528 -0.0704  1.3981  0.3723
 3013TIP3   OH233233   2.284   2.590  17.872  0.2557 -0.0335 -0.3331
 3013TIP3    H133234   2.358   2.552  17.919 -0.5674 -0.6393  0.4901
 3013TIP3    H233235   2.323   2.661  17.820  1.3789 -0.2230  0.2241
 3014TIP3   OH233236   2.484   3.725  17.806 -0.2598 -0.0320 -0.6713
 3014TIP3    H133237   2.523   3.724  17.894  1.0030 -1.0019 -1.2099
 3014TIP3    H233238   2.440   3.810  17.801 -1.6441 -0.5453  1.4056
 3015TIP3   OH233239   5.766   2.706  18.271  0.1905 -0.2395 -0.9140
 3015TIP3    H133240   5.832   2.772  18.291  0.8521 -1.0380 -0.4038
 3015TIP3    H233241   5.772   2.693  18.177  0.8780 -0.4258 -0.8464
 3016TIP3   OH233242   1.883   0.267  17.419  0.5703  0.3501 -0.2512
 3016TIP3    H133243   1.831   0.330  17.469  0.4926  0.7700 -0.8427
 3016TIP3    H233244   1.821   0.230  17.356  1.0443  1.0434 -1.1373
 3017TIP3   OH233245   4.713   2.159  18.458 -0.0146  0.6531 -0.4924
 3017TIP3    H133246   4.698   2.221  18.530 -2.1057  0.1846 -0.4733
 3017TIP3    H233247   4.806   2.169  18.438  0.0952  2.5494  0.6490
 3018TIP3   OH233248   5.047   6.628  17.993  0.6107  0.6496 -1.0039
 3018TIP3    H133249   5.125   6.583  17.961  0.0302 -2.2946  1.2462
 3018TIP3    H233250   5.066   6.648  18.084 -0.8798  0.8074 -0.7006
 3019TIP3   OH233251   6.344   7.035  19.034  0.3958 -1.1799  0.3382
 3019TIP3    H133252   6.266   7.012  19.084 -0.4263  0.4294 -0.1356
 3019TIP3    H233253   6.311   7.064  18.949  1.3730  0.5780  0.4888
 3020TIP3   OH233254   0.471   2.182  16.987  0.1495  0.1736 -0.9908
 3020TIP3    H133255   0.563   2.155  16.990 -0.0800 -0.5914  1.9076
 3020TIP3    H233256   0.424   2.103  16.959 -0.0391 -1.2045  2.7417
 3021TIP3   OH233257   6.530   7.380  18.818 -0.2087 -0.6528  0.4626
 3021TIP3    H133258   6.486   7.355  18.737 -0.5510  0.2156  0.3685
 3021TIP3    H233259   6.622   7.356  18.804 -0.3617 -1.0042  0.0351
 3022TIP3   OH233260   7.410   5.147  17.188 -0.0923  0.0776 -0.4222
 3022TIP3    H133261   7.490   5.096  17.200 -1.0693 -1.4948 -0.3791
 3022TIP3    H233262   7.402   5.198  17.269 -0.9592 -2.4189  1.1762
 3023TIP3   OH233263   7.042   5.265  18.091 -0.2298  0.0104  0.3471
 3023TIP3    H133264   7.012   5.214  18.016 -0.6175 -1.8412  1.7096
 3023TIP3    H233265   7.101   5.330  18.053 -1.9580  0.4344 -1.7839
 3024TIP3   OH233266   7.341   1.726  18.665 -0.0639 -0.1053 -0.1833
 3024TIP3    H133267   7.246   1.721  18.680  0.1559 -1.4277  0.9945
 3024TIP3    H233268   7.375   1.645  18.703  2.0897  2.3779  3.9582
 3025TIP3   OH233269   7.552   3.594  18.093 -0.1639 -0.3070  0.2954
 3025TIP3    H133270   7.596   3.534  18.033 -1.3224 -0.9959  0.1104
 3025TIP3    H233271   7.502   3.537  18.151  0.5748  0.3645  1.6595
 3026TIP3   OH233272   6.850   2.119  17.812  0.1778 -0.2450  0.1457
 3026TIP3    H133273   6.898   2.151  17.736 -0.6838  1.8211  0.4055
 3026TIP3    H233274   6.881   2.029  17.824  1.0004 -0.3197 -2.0779
 3027TIP3   OH233275   6.621   2.874  19.244 -0.6059  0.0335 -0.1471
 3027TIP3    H133276   6.617   2.921  19.161 -0.3252  0.1031 -0.1228
 3027TIP3    H233277   6.552   2.913  19.297 -0.3917  0.4060 -0.1360
 3028TIP3   OH233278   1.762   4.161  17.393  0.0886  0.0057  0.3075
 3028TIP3    H133279   1.834   4.099  17.380  0.1402  0.3784 -1.6078
 3028TIP3    H233280   1.696   4.113  17.443  0.8114 -1.0283  0.2842
 3029TIP3   OH233281   7.132   6.028  17.843 -0.2778 -0.1444  0.2283
 3029TIP3    H133282   7.186   5.954  17.816 -1.0700 -0.6675  0.0251
 3029TIP3    H233283   7.107   6.071  17.762 -0.9678 -0.4942  0.2475
 3030TIP3   OH233284   2.538   0.182  17.209 -0.3649  0.0496  0.0324
 3030TIP3    H133285   2.578   0.102  17.175 -0.0063 -0.0220  0.6049
 3030TIP3    H233286   2.449   0.181  17.174 -0.1010 -0.1657 -0.6493
 3031TIP3   OH233287   4.261   2.376  19.085 -0.4023 -0.3316  0.5355
 3031TIP3    H133288   4.227   2.465  19.101  0.0903  0.0851 -0.6351
 3031TIP3    H233289   4.355   2.384  19.099 -0.6068 -1.2965  2.9726
 3032TIP3   OH233290   2.706   2.210  16.762  0.6705 -0.1355  0.4207
 3032TIP3    H133291   2.618   2.217  16.725  1.0875  0.1308 -0.5650
 3032TIP3    H233292   2.693   2.166  16.846 -0.1086 -2.6970 -0.9310
 3033TIP3   OH233293   5.120   5.216  18.936 -0.0653  0.0273  0.5196
 3033TIP3    H133294   5.024   5.215  18.939 -0.1364 -0.0269 -0.9398
 3033TIP3    H233295   5.144   5.307  18.951 -0.2486 -0.2100  2.4225
 3034TIP3   OH233296   7.254   7.267  17.186  0.0234  0.5465  0.1230
 3034TIP3    H133297   7.292   7.349  17.216 -0.9302  2.0672 -2.5685
 3034TIP3    H233298   7.272   7.264  17.092 -1.3453 -1.5515 -0.1574
 3035TIP3   OH233299   4.451   5.048  19.380  0.0525  0.2248 -0.0744
 3035TIP3    H133300   4.483   5.135  19.403  2.1075  0.1945 -2.4693
 3035TIP3    H233301   4.389   5.063  19.309 -1.3116 -0.1720  0.9692
 3036TIP3   OH233302   1.753   2.165  17.066 -0.1591  0.5131  0.2642
 3036TIP3    H133303   1.781   2.193  17.153  0.9894  2.6890 -0.7407
 3036TIP3    H233304   1.820   2.101  17.039 -0.7479 -0.4863  1.0996
 3037TIP3   OH233305   0.762   5.609  17.122  0.1714  0.3743  0.4008
 3037TIP3    H133306   0.801   5.522  17.120 -1.1349 -0.2382  0.5730
 3037TIP3    H233307   0.780   5.641  17.211  0.1029  0.0210  0.5434
 3038TIP3   OH233308   4.479   5.297  19.455  0.0102 -0.3931  0.6176
 3038TIP3    H133309   4.550   5.341  19.408 -1.5559 -0.4172 -1.9814
 3038TIP3    H233310   4.442   5.364  19.511  0.8178  0.1806  0.4821
 3039TIP3   OH233311   1.726   2.676  17.984  0.5772 -0.3636  0.3944
 3039TIP3    H133312   1.818   2.649  17.985  1.1136  1.3830  1.1199
 3039TIP3    H233313   1.715   2.718  17.899 -0.3201 -2.8659 -0.8328
 3040TIP3   OH233314   0.263   1.454  17.398 -0.5832 -0.6949 -0.1705
 3040TIP3    H133315   0.233   1.478  17.310  0.3114  0.0894 -0.2804
 3040TIP3    H233316   0.328   1.387  17.384 -0.5092 -0.6388 -0.0978
 3041TIP3   OH233317   3.116   2.240  18.675  0.1654 -0.0296 -0.4113
 3041TIP3    H133318   3.164   2.290  18.609 -0.1228  3.5737  1.7926
 3041TIP3    H233319   3.176   2.232  18.749 -1.0670  0.5401  0.7105
 3042TIP3   OH233320   1.526   5.661  18.503  0.2155  0.3371 -0.1480
 3042TIP3    H133321   1.516   5.720  18.578  2.6464 -1.4066  1.7025
 3042TIP3    H233322   1.451   5.601  18.511  1.4047 -0.9963  2.1587
 3043TIP3   OH233323   4.777   4.483  18.633 -0.4041 -0.4952 -0.0143
 3043TIP3    H133324   4.774   4.546  18.704  0.2339  0.1245 -0.5277
 3043TIP3    H233325   4.705   4.422  18.652 -1.2485  0.5710  0.2983
 3044TIP3   OH233326   4.559   7.531  17.026  0.0615  0.2809  0.2997
 3044TIP3    H133327   4.597   7.475  16.959  0.2665 -2.0981  2.2647
 3044TIP3    H233328   4.631   7.546  17.088 -0.4442  1.3717  0.6503
 3045TIP3   OH233329   0.119   5.782  17.374 -0.0054  0.2222 -0.1365
 3045TIP3    H133330   0.194   5.808  17.321 -1.1383  2.3014 -0.8521
 3045TIP3    H233331   0.095   5.695  17.341  0.1086  0.9180 -2.1545
 3046TIP3   OH233332   1.706   3.500  16.729 -0.3794 -0.0571  0.3872
 3046TIP3    H133333   1.786   3.459  16.760 -0.0302  1.0085  0.9511
 3046TIP3    H233334   1.735   3.579  16.684 -1.1303  0.6033  1.0376
 3047TIP3   OH233335   1.599   0.655  18.341  0.6042 -0.3420 -0.0619
 3047TIP3    H133336   1.693   0.674  18.339  0.4795  0.1899 -1.6220
 3047TIP3    H233337   1.565   0.692  18.260 -1.1620  0.5007  1.0063
 3048TIP3   OH233338   5.855   1.124  17.670  0.1449 -0.5543  0.2816
 3048TIP3    H133339   5.814   1.210  17.672  2.7980  0.7964  1.1646
 3048TIP3    H233340   5.933   1.135  17.615  0.6837 -2.3100  0.6004
 3049TIP3   OH233341   5.177   4.570  17.301  0.1744 -0.0827  0.4489
 3049TIP3    H133342   5.211   4.481  17.309  2.0144  0.5966  0.6288
 3049TIP3    H233343   5.156   4.596  17.390  0.7120  0.0537  0.5381
 3050TIP3   OH233344   3.001   6.349  17.184  0.4598  0.0873  0.3778
 3050TIP3    H133345   3.017   6.443  17.180  0.0377  0.1359 -0.6829
 3050TIP3    H233346   3.009   6.320  17.093 -1.5084 -0.5177  0.3462
 3051TIP3   OH233347   0.793   3.163  16.322  0.1873  0.3528 -0.2784
 3051TIP3    H133348   0.703   3.194  16.335 -0.0823 -0.3220 -0.5043
 3051TIP3    H233349   0.848   3.235  16.353 -0.4191  1.1871 -1.1105
 3052TIP3   OH233350   5.370   6.345  17.631 -0.3217 -0.3400  0.3752
 3052TIP3    H133351   5.287   6.296  17.636  0.9010 -2.5753  0.2870
 3052TIP3    H233352   5.387   6.373  17.720 -0.2163 -1.6164  0.7742
 3053TIP3   OH233353   6.602   1.936  19.195 -0.5942  0.3236  0.4124
 3053TIP3    H133354   6.654   1.864  19.231  2.0752  1.6038 -0.6190
 3053TIP3    H233355   6.565   1.900  19.115 -0.9599 -0.4716  0.9184
 3054TIP3   OH233356   4.503   3.124  17.231  0.6757  0.4032  0.0213
 3054TIP3    H133357   4.502   3.036  17.268  0.1651  0.1352 -0.6193
 3054TIP3    H233358   4.448   3.175  17.290  1.5080  0.4699  0.7779
 3055TIP3   OH233359   6.553   1.487  19.518 -0.5337  0.0281  0.0185
 3055TIP3    H133360   6.540   1.447  19.605  0.8389 -0.8947 -0.1748
 3055TIP3    H233361   6.547   1.414  19.457 -4.1065  0.9897 -1.0214
 3056TIP3   OH233362   1.533   3.609  17.464  0.1288  0.2886  0.0408
 3056TIP3    H133363   1.620   3.600  17.504  0.1363 -0.8120 -0.1864
 3056TIP3    H233364   1.549   3.657  17.383  0.7763 -1.1153 -0.7165
 3057TIP3   OH233365   4.156   2.657  17.593 -0.3440 -0.0626 -0.0891
 3057TIP3    H133366   4.163   2.586  17.657  0.0838 -1.2329 -1.3779
 3057TIP3    H233367   4.062   2.664  17.575 -0.3011 -1.0846 -0.7719
 3058TIP3   OH233368   2.984   2.994  17.801 -0.1306 -0.3507 -0.2876
 3058TIP3    H133369   3.024   3.059  17.744 -0.7919 -0.0592 -0.4334
 3058TIP3    H233370   2.890   3.012  17.795 -0.3811 -1.7201 -0.8261
 3059TIP3   OH233371   3.726   5.815  18.241 -0.0789 -0.3486 -0.6563
 3059TIP3    H133372   3.681   5.769  18.312  0.3892 -0.3359 -0.3445
 3059TIP3    H233373   3.785   5.876  18.286  1.5836 -1.6332 -0.9986
 3060TIP3   OH233374   6.153   1.757  16.856 -0.2308  0.8143  0.1262
 3060TIP3    H133375   6.240   1.739  16.892 -0.1253  0.2066 -0.4144
 3060TIP3    H233376   6.147   1.852  16.855 -0.3174  0.8699  1.9262
 3061TIP3   OH233377   4.570   5.531  16.823  0.1971 -0.3405  0.1363
 3061TIP3    H133378   4.612   5.448  16.843  0.0517 -0.0688  1.7321
 3061TIP3    H233379   4.543   5.523  16.731  3.0097 -0.7944 -0.7420
 3062TIP3   OH233380   0.292   1.825  18.297  0.2437  0.0679 -0.2536
 3062TIP3    H133381   0.240   1.834  18.218  0.5238  0.0866 -0.4363
 3062TIP3    H233382   0.383   1.829  18.267  0.3513  0.7586  0.1397
 3063TIP3   OH233383   4.441   6.761  17.918  0.2147  0.2977  0.3455
 3063TIP3    H133384   4.492   6.761  17.836 -1.7547 -0.1500 -0.9491
 3063TIP3    H233385   4.423   6.853  17.935 -1.6186  0.2999 -1.2683
 3064TIP3   OH233386   6.853   4.119  19.351 -0.1596 -0.7318 -0.2694
 3064TIP3    H133387   6.823   4.206  19.324  0.0884 -0.1785  1.1485
 3064TIP3    H233388   6.773   4.070  19.367 -0.3004 -0.7732 -1.0397
 3065TIP3   OH233389   3.265   5.112  18.855 -0.0418  0.3409 -0.1538
 3065TIP3    H133390   3.182   5.159  18.859 -0.4485 -0.4507  2.2872
 3065TIP3    H233391   3.243   5.023  18.882  1.0801 -0.7936 -2.6272
 3066TIP3   OH233392   5.018   2.035  18.939 -0.3132 -0.3298 -0.1553
 3066TIP3    H133393   5.024   1.962  18.877 -0.6847 -0.3037 -0.2211
 3066TIP3    H233394   5.013   2.113  18.884  0.8100 -0.1933 -0.0825
 3067TIP3   OH233395   1.029   2.446  19.003  0.6866  0.8141 -0.3439
 3067TIP3    H133396   1.041   2.528  19.052  1.8538 -0.5331  1.7757
 3067TIP3    H233397   1.116   2.425  18.970  1.2701 -1.2366  2.1070
 3068TIP3   OH233398   1.126   7.138  16.848  0.0589 -0.6337 -0.7200
 3068TIP3    H133399   1.202   7.113  16.795  2.5190  1.0387  1.6971
 3068TIP3    H233400   1.136   7.232  16.861 -3.5888  0.0399 -1.8055
 3069TIP3   OH233401   3.648   3.938  17.399 -0.1269  0.3510  0.2413
 3069TIP3    H133402   3.704   3.998  17.349 -1.4818  1.5627  0.0937
 3069TIP3    H233403   3.578   3.994  17.433 -2.5937 -1.3817 -1.5534
 3070TIP3   OH233404   1.591   0.896  18.483  0.1658  0.3117 -0.3390
 3070TIP3    H133405   1.551   0.815  18.451  0.2759  0.5761 -1.1857
 3070TIP3    H233406   1.680   0.871  18.508  0.5144  0.3470 -1.5025
 3071TIP3   OH233407   3.740   1.999  18.485 -0.4246  0.1233  0.2286
 3071TIP3    H133408   3.713   2.085  18.517  0.2145  0.3473  0.1818
 3071TIP3    H233409   3.777   2.017  18.398 -1.1424 -0.3269 -0.1829
 3072TIP3   OH233410   5.104   6.054  18.110 -0.0597  0.2841 -0.0749
 3072TIP3    H133411   5.109   6.050  18.014 -1.6799 -1.1462 -0.1501
 3072TIP3    H233412   5.065   6.140  18.128  3.0287  1.8989 -0.4615
 3073TIP3   OH233413   5.219   1.390  18.924  0.4061 -0.3654 -0.6249
 3073TIP3    H133414   5.197   1.320  18.985  1.3468 -1.8973 -1.9528
 3073TIP3    H233415   5.160   1.462  18.947  0.5296 -0.9680  1.8531
 3074TIP3   OH233416   2.694   1.761  18.524  0.0910 -0.2122  0.6281
 3074TIP3    H133417   2.677   1.854  18.511  1.3801  0.0899  0.9541
 3074TIP3    H233418   2.667   1.743  18.614 -2.3885 -0.7322 -0.1492
 3075TIP3   OH233419   4.066   5.742  17.394  0.0750 -0.0354 -0.6119
 3075TIP3    H133420   4.147   5.764  17.348  0.1904  0.7641 -0.0649
 3075TIP3    H233421   4.090   5.671  17.453  0.7263  1.0289  0.4652
 3076TIP3   OH233422   5.327   0.874  16.706 -0.1559  0.4329 -0.5957
 3076TIP3    H133423   5.363   0.786  16.711  0.5728  0.7611  0.2724
 3076TIP3    H233424   5.232   0.862  16.708 -0.0627 -0.3361 -0.6558
 3077TIP3   OH233425   3.860   4.659  17.349  0.6512 -0.0272 -0.0679
 3077TIP3    H133426   3.829   4.581  17.395 -0.2509  0.4758  0.2023
 3077TIP3    H233427   3.821   4.651  17.261 -2.3271  1.7473  0.9408
 3078TIP3   OH233428   6.678   6.070  16.442  0.1539  0.0311 -0.1685
 3078TIP3    H133429   6.734   6.006  16.486 -1.0133  1.0543  3.1416
 3078TIP3    H233430   6.739   6.127  16.396  1.4288 -1.5596 -0.5569
 3079TIP3   OH233431   3.952   6.427  17.817 -0.3892 -0.0827  0.2176
 3079TIP3    H133432   3.877   6.368  17.827  0.3222 -1.3916 -1.6614
 3079TIP3    H233433   3.970   6.457  17.906 -2.0986 -1.0580  0.9425
 3080TIP3   OH233434   4.101   7.034  18.499 -0.3030 -0.2592  0.3625
 3080TIP3    H133435   4.016   7.019  18.541 -0.1930 -0.9988  0.3237
 3080TIP3    H233436   4.165   7.003  18.563 -0.0691  0.0932  0.3003
 3081TIP3   OH233437   3.302   3.639  19.083 -0.0321 -0.1704 -0.0643
 3081TIP3    H133438   3.266   3.714  19.130 -1.2360 -1.4921  1.2137
 3081TIP3    H233439   3.395   3.660  19.072 -0.3803  1.5815  0.0712
 3082TIP3   OH233440   3.703   5.040  16.869 -0.0886  0.2464  0.5245
 3082TIP3    H133441   3.650   5.117  16.892 -2.4480 -0.5397 -1.7493
 3082TIP3    H233442   3.794   5.071  16.874 -0.9411  3.4392 -0.9573
 3083TIP3   OH233443   2.485   1.345  17.508  0.5899  0.1458  0.2729
 3083TIP3    H133444   2.519   1.306  17.588 -1.6774 -2.3395  0.1690
 3083TIP3    H233445   2.402   1.385  17.534  1.2116  1.9400 -0.3390
 3084TIP3   OH233446   1.967   3.588  19.208 -0.2629  0.2701  0.6119
 3084TIP3    H133447   2.005   3.623  19.127 -2.1970 -0.2883 -0.6013
 3084TIP3    H233448   1.876   3.616  19.206 -0.4532 -0.1171  2.4182
 3085TIP3   OH233449   0.952   2.451  18.448  0.1998 -0.2810  0.2378
 3085TIP3    H133450   0.980   2.435  18.357  0.3350 -0.8286  0.3736
 3085TIP3    H233451   0.869   2.402  18.456  0.7026 -1.0727  0.7064
 3086TIP3   OH233452   6.706   5.747  16.552 -0.2786 -0.1443  0.1977
 3086TIP3    H133453   6.722   5.653  16.555  0.9315  0.0685  1.5625
 3086TIP3    H233454   6.699   5.767  16.458  1.1446 -1.3429 -0.2102
 3087TIP3   OH233455   1.429   6.380  18.885  0.4635  0.1615  0.0411
 3087TIP3    H133456   1.475   6.346  18.808 -0.6190 -0.0063 -0.5564
 3087TIP3    H233457   1.472   6.337  18.959  1.8523  0.7026 -0.4057
 3088TIP3   OH233458   2.789   1.551  16.832  0.3357 -0.0347 -0.0615
 3088TIP3    H133459   2.725   1.483  16.811 -0.1176  0.4384 -0.2305
 3088TIP3    H233460   2.869   1.503  16.853  0.1261 -0.6099 -0.5416
 3089TIP3   OH233461   1.425   4.643  16.943  0.5141  0.3552 -0.2998
 3089TIP3    H133462   1.475   4.679  17.017 -1.1282 -0.7324  1.4522
 3089TIP3    H233463   1.489   4.589  16.896  1.3991  0.2768  0.9185
 3090TIP3   OH233464   1.126   0.294  16.570  0.2164  0.3769 -0.1882
 3090TIP3    H133465   1.200   0.243  16.602  0.8332  1.1703 -0.3210
 3090TIP3    H233466   1.054   0.272  16.630  0.4563 -0.6477 -0.2525
 3091TIP3   OH233467   6.097   4.393  17.687 -0.2351  0.3772  0.5893
 3091TIP3    H133468   6.063   4.369  17.600 -2.5022  1.3432  1.1325
 3091TIP3    H233469   6.164   4.327  17.705 -1.3368 -1.2566 -0.9025
 3092TIP3   OH233470   0.291   6.746  18.769 -0.8527 -0.2530 -0.7745
 3092TIP3    H133471   0.289   6.651  18.756  2.7844 -0.5321 -0.3469
 3092TIP3    H233472   0.275   6.758  18.862  0.9668 -0.6988 -0.3751
 3093TIP3   OH233473   0.056   5.412  19.222  0.7182 -0.0217 -0.5538
 3093TIP3    H133474   0.049   5.386  19.130 -2.1995  0.1079 -0.4629
 3093TIP3    H233475   0.075   5.506  19.219  1.7966 -0.2444 -0.9947
 3094TIP3   OH233476   6.341   3.423  18.344  0.0204 -0.2710  0.4451
 3094TIP3    H133477   6.310   3.341  18.383  2.4254 -1.0065  1.0150
 3094TIP3    H233478   6.280   3.490  18.375 -1.5643 -1.7265  0.5707
 3095TIP3   OH233479   1.996   2.176  18.849  0.0338 -0.1671  0.6336
 3095TIP3    H133480   1.911   2.167  18.806 -1.4768  0.1389  3.2940
 3095TIP3    H233481   2.022   2.086  18.869  0.0716 -0.2313  0.2988
 3096TIP3   OH233482   6.767   5.590  18.502 -0.4318 -0.0304 -0.3377
 3096TIP3    H133483   6.760   5.686  18.495 -1.7594 -0.1783 -1.5128
 3096TIP3    H233484   6.861   5.573  18.503 -0.1521  1.2127 -1.7239
 3097TIP3   OH233485   4.861   1.773  18.435 -0.0529  0.1483  0.3631
 3097TIP3    H133486   4.924   1.728  18.379  0.3914  0.9601  0.1996
 3097TIP3    H233487   4.789   1.797  18.376  0.0798  0.3575  0.2852
 3098TIP3   OH233488   1.713   2.361  18.862  0.2260  0.3427  0.0931
 3098TIP3    H133489   1.719   2.291  18.796  0.8932  0.5584 -0.0754
 3098TIP3    H233490   1.619   2.370  18.878  0.0762  0.0679 -0.5933
 3099TIP3   OH233491   1.211   1.405  19.381 -0.2828  0.8610  0.0418
 3099TIP3    H133492   1.147   1.476  19.386 -0.3297  0.8102  0.1831
 3099TIP3    H233493   1.284   1.442  19.332 -0.5338  0.8340 -0.3546
 3100TIP3   OH233494   1.648   4.343  17.229 -0.2788  0.3030 -0.2352
 3100TIP3    H133495   1.686   4.274  17.284  0.6805  0.9815 -0.0254
 3100TIP3    H233496   1.642   4.303  17.142  0.9899  0.1886 -0.2906
 3101TIP3   OH233497   7.501   1.057  19.429  0.0729 -0.5146 -0.4686
 3101TIP3    H133498   7.431   1.036  19.367 -1.1360 -2.1972  1.3371
 3101TIP3    H233499   7.467   1.132  19.479  0.1421 -0.4928 -0.4538
 3102TIP3   OH233500   7.511   0.213  18.393  0.0385  0.0650 -0.4217
 3102TIP3    H133501   7.517   0.181  18.483  1.2637 -0.1936 -0.5774
 3102TIP3    H233502   7.523   0.135  18.338 -0.2862  0.2814 -0.8076
 3103TIP3   OH233503   1.023   4.788  18.843  0.2016 -0.2357  0.1172
 3103TIP3    H133504   1.025   4.692  18.845  0.9108 -0.2055  1.2641
 3103TIP3    H233505   1.115   4.814  18.841  0.0198  0.4284 -1.4294
 3104TIP3   OH233506   6.050   7.080  18.839  0.5395 -0.3595  0.0342
 3104TIP3    H133507   5.995   7.135  18.894 -1.0244 -0.0829 -1.7016
 3104TIP3    H233508   6.040   6.992  18.874 -0.6441 -0.2292  0.0397
 3105TIP3   OH233509   2.398   1.642  18.471  0.0216  0.6982 -0.1270
 3105TIP3    H133510   2.329   1.674  18.530  0.1296  0.9269 -0.1242
 3105TIP3    H233511   2.473   1.699  18.490  0.4094  0.0426  0.3208
 3106TIP3   OH233512   1.916   7.453  17.865  0.8399  0.3136  0.5772
 3106TIP3    H133513   1.993   7.461  17.809 -0.0352  0.3678 -0.6765
 3106TIP3    H233514   1.842   7.462  17.804 -0.1484  0.0584  1.7110
 3107TIP3   OH233515   7.158   6.329  17.370  0.1840 -0.5135 -0.1807
 3107TIP3    H133516   7.064   6.312  17.368  0.2858 -1.0417 -0.4751
 3107TIP3    H233517   7.172   6.395  17.302  0.0051 -0.3071 -0.0199
 3108TIP3   OH233518   3.731   4.457  18.476  0.1727  0.7349 -0.0836
 3108TIP3    H133519   3.741   4.535  18.531  0.4553  0.8331 -0.2731
 3108TIP3    H233520   3.818   4.416  18.476  0.2340  0.8515 -0.6254
 3109TIP3   OH233521   2.112   0.403  17.408 -0.1107  0.0134 -0.4859
 3109TIP3    H133522   2.165   0.422  17.486  0.7263  1.3281 -1.3450
 3109TIP3    H233523   2.039   0.351  17.442  1.9109 -2.2773  0.6973
 3110TIP3   OH233524   4.564   5.165  18.380  0.2058  0.1455  0.5128
 3110TIP3    H133525   4.583   5.072  18.375 -0.1338  0.1200 -0.6930
 3110TIP3    H233526   4.511   5.176  18.459 -2.2641 -1.1533 -0.8521
 3111TIP3   OH233527   3.556   3.028  18.940  0.2222 -0.4833 -0.2834
 3111TIP3    H133528   3.515   3.084  19.006  1.4893 -2.2916  2.1725
 3111TIP3    H233529   3.489   2.962  18.919  0.3785 -0.8887  0.4754
 3112TIP3   OH233530   6.441   2.295  19.049  0.4944 -0.2675 -0.0538
 3112TIP3    H133531   6.527   2.284  19.090  1.1777  2.9647 -0.3052
 3112TIP3    H233532   6.451   2.256  18.962  1.1106 -1.4507  0.5243
 3113TIP3   OH233533   7.195   2.082  18.064 -0.1845 -0.4789 -0.3627
 3113TIP3    H133534   7.129   2.142  18.030 -1.4020 -2.0601 -0.9029
 3113TIP3    H233535   7.277   2.112  18.024 -0.8288  0.5247 -0.9799
 3114TIP3   OH233536   1.705   1.167  19.096 -0.0942 -0.2061 -0.0084
 3114TIP3    H133537   1.612   1.174  19.120 -0.3749  1.2986 -1.3753
 3114TIP3    H233538   1.706   1.179  19.001  1.5205  0.0900  0.0209
 3115TIP3   OH233539   7.631   2.946  16.711  0.1558  0.1247 -0.2033
 3115TIP3    H133540   7.708   2.945  16.767  0.0611 -1.3930 -0.0425
 3115TIP3    H233541   7.598   2.856  16.715 -1.8074  0.8046 -0.0054
 3116TIP3   OH233542   3.627   6.646  17.008 -0.2980  0.0531 -0.1855
 3116TIP3    H133543   3.631   6.563  16.961 -0.0207 -0.5726  0.9233
 3116TIP3    H233544   3.629   6.712  16.939 -0.3649 -0.8525 -1.0742
 3117TIP3   OH233545   4.246   7.020  18.809  0.7142  0.7587 -0.0969
 3117TIP3    H133546   4.215   7.050  18.895 -1.2089 -1.8671  0.2320
 3117TIP3    H233547   4.335   6.989  18.826  0.2404 -0.0579  1.0874
 3118TIP3   OH233548   2.915   5.832  18.426  0.0380 -0.3611  0.4309
 3118TIP3    H133549   2.978   5.760  18.428  0.0213 -0.4688 -1.4995
 3118TIP3    H233550   2.942   5.889  18.499  0.8822 -1.6017  1.1311
 3119TIP3   OH233551   5.599   6.799  19.173 -0.3078 -0.1899  0.2056
 3119TIP3    H133552   5.635   6.734  19.233 -0.0315  0.9227  1.2837
 3119TIP3    H233553   5.639   6.779  19.089 -0.1798 -1.3631  0.5245
 3120TIP3   OH233554   1.000   5.861  17.689  0.0709  0.4558 -0.5278
 3120TIP3    H133555   1.033   5.937  17.641  2.8061 -0.5782 -0.4365
 3120TIP3    H233556   0.953   5.810  17.623 -1.6597  2.0431 -0.6305
 3121TIP3   OH233557   2.338   6.069  17.876  0.5283 -0.0851 -0.2067
 3121TIP3    H133558   2.295   6.002  17.822  1.9996 -1.2001 -0.0470
 3121TIP3    H233559   2.280   6.079  17.952 -0.4499 -0.0896 -0.9259
 3122TIP3   OH233560   2.847   0.723  19.095  0.5347 -0.2868 -0.4010
 3122TIP3    H133561   2.799   0.655  19.144 -0.3832  1.7008  1.6711
 3122TIP3    H233562   2.784   0.795  19.087  2.3126  1.3894 -0.0018
 3123TIP3   OH233563   0.048   6.417  18.994 -0.1762  0.6325 -0.2285
 3123TIP3    H133564  -0.009   6.483  19.034  2.3358  2.5178  0.5909
 3123TIP3    H233565   0.056   6.444  18.903  0.5806  1.3634  0.0281
 3124TIP3   OH233566   5.280   2.145  17.334 -0.1957 -0.0962  0.0243
 3124TIP3    H133567   5.319   2.231  17.325  0.1301 -0.2612 -0.1547
 3124TIP3    H233568   5.277   2.110  17.245 -0.7183 -0.0997  0.0431
 3125TIP3   OH233569   7.193   0.844  18.086 -0.0625 -0.0585 -0.1346
 3125TIP3    H133570   7.211   0.767  18.141  0.5388 -0.3005 -0.6577
 3125TIP3    H233571   7.219   0.919  18.141 -0.2117 -0.2505  0.2030
 3126TIP3   OH233572   3.619   1.155  18.716 -0.2864 -0.3595  0.0945
 3126TIP3    H133573   3.629   1.191  18.628 -1.3559 -1.0813 -0.3524
 3126TIP3    H233574   3.524   1.146  18.727 -0.1392 -0.8310  1.0913
 3127TIP3   OH233575   3.321   2.833  17.305  0.5953 -0.2931  0.0565
 3127TIP3    H133576   3.309   2.738  17.309  0.1412 -0.4134 -2.3946
 3127TIP3    H233577   3.333   2.851  17.212  3.1601  1.8129  0.6831
 3128TIP3   OH233578   3.724   3.681  18.480  0.0264 -0.5560  1.1259
 3128TIP3    H133579   3.764   3.739  18.544  1.2915  0.9564 -0.9004
 3128TIP3    H233580   3.652   3.732  18.443  1.4920  0.0529 -1.0717
 3129TIP3   OH233581   7.481   5.963  18.963 -0.7033  0.4009  0.2628
 3129TIP3    H133582   7.464   5.927  18.876 -0.8186 -0.8490  0.7677
 3129TIP3    H233583   7.466   6.057  18.955 -1.7875  0.1585 -0.8021
 3130TIP3   OH233584   1.060   2.885  19.697 -0.0462 -0.4767 -0.2551
 3130TIP3    H133585   1.094   2.812  19.748  0.8885  0.6167  0.7584
 3130TIP3    H233586   1.128   2.901  19.630 -1.4046 -2.1035 -2.1310
 3131TIP3   OH233587   2.259   0.150  18.531  0.1395  0.4222 -0.3904
 3131TIP3    H133588   2.330   0.088  18.551  0.1250  0.5429  0.0306
 3131TIP3    H233589   2.205   0.151  18.610 -0.2311  0.4726 -0.6421
 3132TIP3   OH233590   6.512   0.230  19.458  0.3865 -0.9638 -0.0617
 3132TIP3    H133591   6.562   0.156  19.422  0.8260 -0.0520 -1.4272
 3132TIP3    H233592   6.575   0.276  19.513  0.2661 -1.2946  0.3600
 3133TIP3   OH233593   6.422   0.979  19.077 -0.1213  0.1051 -0.4276
 3133TIP3    H133594   6.362   0.925  19.025  1.0454 -1.1200 -0.5496
 3133TIP3    H233595   6.469   0.917  19.133  0.5714  1.1038  0.1429
 3134TIP3   OH233596   7.488   4.263  17.234 -0.1340  0.1601  0.0980
 3134TIP3    H133597   7.491   4.276  17.139 -0.9666  0.1294  0.0599
 3134TIP3    H233598   7.526   4.176  17.247 -2.0195 -0.7881 -0.4249
 3135TIP3   OH233599   2.618   6.777  17.888  0.2872  0.0509  0.1078
 3135TIP3    H133600   2.614   6.722  17.967  1.3337 -0.4817 -0.1890
 3135TIP3    H233601   2.661   6.722  17.823 -1.3890  0.1493 -1.1477
 3136TIP3   OH233602   3.549   0.062  18.794  0.4909 -0.1539 -0.5257
 3136TIP3    H133603   3.504   0.140  18.828 -1.6421 -1.2321 -0.6779
 3136TIP3    H233604   3.582   0.088  18.708  0.2543  0.7466 -0.3477
 3137TIP3   OH233605   3.373   5.393  18.058  0.6218  0.1538 -0.4662
 3137TIP3    H133606   3.343   5.482  18.074  0.5781  0.0136  0.2679
 3137TIP3    H233607   3.442   5.379  18.122  0.6520 -0.3327 -0.5980
 3138TIP3   OH233608   4.024   1.456  18.082  0.0421  0.1332 -0.0695
 3138TIP3    H133609   4.024   1.499  17.997  0.0735  0.9447  0.3262
 3138TIP3    H233610   3.943   1.484  18.123 -1.1566 -2.1283 -0.7221
 3139TIP3   OH233611   6.756   5.005  19.129  0.0142  0.1475 -0.7845
 3139TIP3    H133612   6.742   5.033  19.038 -1.0121  0.6294 -0.4919
 3139TIP3    H233613   6.685   4.943  19.147  0.2230  0.0370 -0.3170
 3140TIP3   OH233614   5.428   0.728  18.688 -0.3101 -0.1103  0.6032
 3140TIP3    H133615   5.457   0.816  18.661 -1.6093  0.9577  2.4406
 3140TIP3    H233616   5.476   0.712  18.770  1.9570 -2.3499 -1.0295
 3141TIP3   OH233617   1.437   0.489  19.579  0.2774 -0.0543  0.0212
 3141TIP3    H133618   1.399   0.570  19.613  0.5487  0.5252 -0.9942
 3141TIP3    H233619   1.433   0.499  19.484  2.2468 -0.3097 -0.1338
 3142TIP3   OH233620   0.659   5.053  17.596 -0.4691 -0.5057 -0.0208
 3142TIP3    H133621   0.645   5.128  17.653 -1.3053 -0.6851  0.0176
 3142TIP3    H233622   0.741   5.073  17.550  0.3426 -0.4665  1.3981
 3143TIP3   OH233623   6.359   3.443  16.788  0.3710 -0.1807 -0.3727
 3143TIP3    H133624   6.366   3.495  16.869  0.7895  0.8103 -1.0274
 3143TIP3    H233625   6.368   3.507  16.718 -1.0861 -0.8821 -1.2299
 3144TIP3   OH233626   6.553   2.623  19.000 -0.3201 -0.0705 -0.4135
 3144TIP3    H133627   6.590   2.585  19.080 -0.5927  3.8703  1.8693
 3144TIP3    H233628   6.459   2.606  19.007 -0.3286  0.1524  0.0450
 3145TIP3   OH233629   4.381   2.741  16.781 -0.1625 -0.0134 -0.5999
 3145TIP3    H133630   4.378   2.647  16.765 -0.2893 -0.0943 -0.1283
 3145TIP3    H233631   4.474   2.764  16.775  0.0450 -0.4280  0.6825
 3146TIP3   OH233632   1.836   3.014  17.679 -0.3903 -0.3671 -0.3926
 3146TIP3    H133633   1.827   3.109  17.676  0.6430 -0.1613  1.5988
 3146TIP3    H233634   1.890   2.997  17.756 -1.1086 -2.6141 -0.3131
 3147TIP3   OH233635   4.022   7.203  18.276  0.5286  0.2714 -0.3875
 3147TIP3    H133636   3.933   7.225  18.304  0.6447  2.0265 -1.3021
 3147TIP3    H233637   4.049   7.133  18.336 -1.7837 -0.9754 -0.6873
 3148TIP3   OH233638   3.593   5.026  18.433  0.5151  0.2498 -0.2790
 3148TIP3    H133639   3.613   5.103  18.381 -0.1917 -0.5681 -1.8353
 3148TIP3    H233640   3.644   4.956  18.392 -1.1783 -0.7123 -0.8362
 3149TIP3   OH233641   0.313   7.500  18.289 -0.0463  0.0274  0.3368
 3149TIP3    H133642   0.356   7.531  18.369 -1.1559  0.9090  0.6208
 3149TIP3    H233643   0.352   7.553  18.219 -0.8096  0.9945  0.6227
 3150TIP3   OH233644   1.770   0.805  17.087 -0.5006  0.4419 -0.2588
 3150TIP3    H133645   1.690   0.782  17.040  0.4144 -3.5713 -0.2333
 3150TIP3    H233646   1.834   0.825  17.018 -0.7272  0.6299 -0.4140
 3151TIP3   OH233647   4.453   1.928  16.663 -0.3224 -0.2787  0.3749
 3151TIP3    H133648   4.482   1.851  16.613  0.6417  0.7016 -0.6341
 3151TIP3    H233649   4.519   1.995  16.645  1.4422 -0.4832  4.8248
 3152TIP3   OH233650   3.540   4.529  19.153  0.6163  0.7123 -0.0696
 3152TIP3    H133651   3.572   4.505  19.066  0.7529  1.3931 -0.2110
 3152TIP3    H233652   3.484   4.605  19.138 -1.6510 -0.8236  0.0707
 3153TIP3   OH233653   0.612   6.680  18.681  0.1186 -0.2166 -0.7146
 3153TIP3    H133654   0.542   6.657  18.620 -1.8630 -0.1024  1.3717
 3153TIP3    H233655   0.663   6.746  18.635 -2.1469  0.9364 -1.7587
 3154TIP3   OH233656   5.588   1.783  19.567  0.1793  0.3309 -0.1503
 3154TIP3    H133657   5.681   1.762  19.577  0.2407  0.4541 -0.4372
 3154TIP3    H233658   5.587   1.852  19.500 -0.1052  0.4515 -0.0224
 3155TIP3   OH233659   1.077   4.816  17.900  0.0165 -0.0310 -0.3422
 3155TIP3    H133660   1.150   4.854  17.850  0.0312  1.7621  0.9598
 3155TIP3    H233661   1.006   4.879  17.890 -1.4688 -1.8015 -1.6810
 3156TIP3   OH233662   3.895   0.776  18.908 -0.2749 -0.3603  0.7727
 3156TIP3    H133663   3.958   0.812  18.845 -0.3986 -1.6761 -0.1233
 3156TIP3    H233664   3.850   0.853  18.943  0.4817  0.4581  0.0003
 3157TIP3   OH233665   1.057   2.833  18.415  0.0164  0.3909 -0.2722
 3157TIP3    H133666   1.085   2.874  18.496 -0.3433 -0.6364  0.3814
 3157TIP3    H233667   0.972   2.873  18.396 -0.5388 -0.3473  0.5968
 3158TIP3   OH233668   6.410   7.057  18.165 -0.3381 -0.1519 -0.3531
 3158TIP3    H133669   6.427   7.137  18.115  0.1677 -0.6304 -0.9621
 3158TIP3    H233670   6.396   7.088  18.255  0.4745  0.5660 -0.4526
 3159TIP3   OH233671   6.009   3.171  18.456  0.0773 -0.2118  0.3454
 3159TIP3    H133672   6.101   3.196  18.448 -0.2206  0.8868  0.1468
 3159TIP3    H233673   6.004   3.128  18.542  0.7630 -0.2209  0.3905
 3160TIP3   OH233674   4.131   3.699  18.348  1.3679 -0.6469 -0.1486
 3160TIP3    H133675   4.161   3.766  18.286 -0.4603 -0.0634 -0.4360
 3160TIP3    H233676   4.082   3.747  18.415  1.3999 -1.5273  0.5336
 3161TIP3   OH233677   6.018   3.908  17.319 -0.0477 -0.2142 -0.0444
 3161TIP3    H133678   5.934   3.915  17.365  0.6430  1.0850  1.0825
 3161TIP3    H233679   6.048   3.999  17.311  0.1890 -0.4269 -2.5241
 3162TIP3   OH233680   3.846   7.049  18.585 -0.3635  0.3994  0.6373
 3162TIP3    H133681   3.831   7.018  18.675  1.4541  2.0643  1.5987
 3162TIP3    H233682   3.794   6.990  18.531 -1.0914 -1.0209  2.7272
 3163TIP3   OH233683   7.168   3.644  17.459 -0.1974  0.1775  0.3909
 3163TIP3    H133684   7.111   3.644  17.536  0.5781  2.2897  1.0391
 3163TIP3    H233685   7.235   3.578  17.478  0.8083  1.6219  2.2440
 3164TIP3   OH233686   5.900   2.550  19.501  0.2399 -0.3877 -0.0988
 3164TIP3    H133687   5.919   2.506  19.583 -0.5153 -0.7281 -0.0958
 3164TIP3    H233688   5.811   2.522  19.478 -0.5866  1.7006  0.2874
 3165TIP3   OH233689   7.314   1.655  19.053 -0.1409  0.1106  0.3754
 3165TIP3    H133690   7.390   1.676  19.107 -1.5066 -2.3718  3.5730
 3165TIP3    H233691   7.352   1.618  18.973  1.9878  0.9310  0.9202
 3166TIP3   OH233692   5.329   1.458  17.598 -0.3377 -0.0659 -0.5206
 3166TIP3    H133693   5.347   1.489  17.687  1.2982 -0.8218 -0.5564
 3166TIP3    H233694   5.236   1.435  17.600 -0.3428 -0.0341  0.9813
 3167TIP3   OH233695   1.694   6.741  17.494 -0.3530 -0.3161  0.0225
 3167TIP3    H133696   1.780   6.704  17.472  0.0753  0.9395 -0.5030
 3167TIP3    H233697   1.644   6.734  17.413  0.5620  2.4705 -0.8874
 3168TIP3   OH233698   3.737   2.628  18.536 -0.0439  0.7776  0.5149
 3168TIP3    H133699   3.772   2.590  18.456 -1.4800  2.1157 -0.8224
 3168TIP3    H233700   3.693   2.556  18.580  0.9162 -0.0132  0.2139
 3169TIP3   OH233701   0.051   4.327  17.543  0.0691 -0.3035 -0.6490
 3169TIP3    H133702  -0.023   4.386  17.529 -0.3742 -0.7447 -0.1753
 3169TIP3    H233703   0.080   4.304  17.455  0.1026  0.4312 -0.8430
 3170TIP3   OH233704   4.230   2.918  17.521  0.0898  0.7416 -0.1971
 3170TIP3    H133705   4.192   2.830  17.514  1.6075  0.2174 -3.1886
 3170TIP3    H233706   4.161   2.976  17.488 -0.5115  0.6279  0.7843
 3171TIP3   OH233707   7.619   3.133  17.608  0.3863  0.3277  0.9267
 3171TIP3    H133708   7.623   3.126  17.703  2.1256  0.1533  0.8824
 3171TIP3    H233709   7.580   3.051  17.579  1.8398 -0.5824  1.4229
 3172TIP3   OH233710   3.572   0.334  18.417 -0.2785  0.1144  0.2003
 3172TIP3    H133711   3.517   0.402  18.378 -1.1246 -0.5654  0.1844
 3172TIP3    H233712   3.641   0.319  18.352  0.9170  2.1124  0.9190
 3173TIP3   OH233713   5.590   5.297  17.614  0.3872 -0.0270 -0.0126
 3173TIP3    H133714   5.607   5.324  17.523 -0.0379  1.4054  0.3001
 3173TIP3    H233715   5.580   5.380  17.661 -2.1324 -0.7122  0.8109
 3174TIP3   OH233716   3.060   6.635  18.979  0.3860 -0.0868 -0.1279
 3174TIP3    H133717   2.996   6.693  19.019  1.2664  1.7942 -1.2878
 3174TIP3    H233718   3.068   6.667  18.889 -0.2010 -2.9983 -1.3335
 3175TIP3   OH233719   3.223   5.832  16.941 -0.3159 -0.3515 -0.5452
 3175TIP3    H133720   3.217   5.878  16.857 -0.6436 -1.5291 -1.1878
 3175TIP3    H233721   3.252   5.744  16.918  0.1842 -0.5189  0.6483
 3176TIP3   OH233722   0.283   4.911  18.134 -0.2353 -0.2956  0.2527
 3176TIP3    H133723   0.321   4.933  18.219  1.0885 -0.9158 -0.1559
 3176TIP3    H233724   0.293   4.816  18.127 -1.4796 -0.4260 -0.0708
 3177TIP3   OH233725   1.610   0.409  16.748  0.0296 -0.4311  0.0525
 3177TIP3    H133726   1.668   0.484  16.736  0.5429 -0.6311  1.1638
 3177TIP3    H233727   1.528   0.435  16.706  0.4557  0.4291 -0.2634
 3178TIP3   OH233728   1.389   5.913  17.505  0.0347 -0.0453 -0.7056
 3178TIP3    H133729   1.332   5.912  17.427  0.4076  2.3731 -1.0770
 3178TIP3    H233730   1.372   5.998  17.546  1.0734 -0.5993  0.9493
 3179TIP3   OH233731   4.907   4.912  18.429  0.3692 -0.1669  0.0020
 3179TIP3    H133732   4.818   4.916  18.394 -0.1658  0.3097  1.3333
 3179TIP3    H233733   4.895   4.896  18.523  1.6787  0.1703  0.2478
 3180TIP3   OH233734   0.605   5.421  18.829  0.5372 -0.3487  0.0524
 3180TIP3    H133735   0.573   5.468  18.752 -0.1271  0.7014  0.9249
 3180TIP3    H233736   0.599   5.485  18.900  4.4094 -0.1147  0.3805
 3181TIP3   OH233737   1.293   4.265  16.237  0.1921 -0.4608  0.3944
 3181TIP3    H133738   1.318   4.343  16.188  1.7664  1.2570  3.6102
 3181TIP3    H233739   1.347   4.195  16.200  1.4758  0.7965 -0.2311
 3182TIP3   OH233740   1.606   1.961  19.406 -0.3941 -0.3226 -0.2139
 3182TIP3    H133741   1.551   1.883  19.408 -0.2118 -0.4402  1.1276
 3182TIP3    H233742   1.663   1.949  19.330 -1.3172 -0.8171 -0.8457
 3183TIP3   OH233743   4.515   6.071  18.700 -0.0306  0.1645  0.3661
 3183TIP3    H133744   4.551   6.031  18.779 -0.6723 -1.0975  0.0488
 3183TIP3    H233745   4.592   6.093  18.647  0.3991  0.9485  1.2958
 3184TIP3   OH233746   0.105   1.258  18.985  0.2487  0.2635 -0.0364
 3184TIP3    H133747   0.108   1.326  19.054 -1.0064 -0.3305  0.6381
 3184TIP3    H233748   0.024   1.210  19.003  0.7615 -0.9720 -0.9366
 3185TIP3   OH233749   0.959   0.242  16.777 -0.1561  0.2062 -0.2052
 3185TIP3    H133750   0.864   0.254  16.775 -0.4180 -1.6048 -0.3040
 3185TIP3    H233751   0.971   0.150  16.802  1.5941  0.6480  0.7395
 3186TIP3   OH233752   3.558   2.690  18.977 -0.3053  0.1295 -0.2440
 3186TIP3    H133753   3.653   2.688  18.966 -0.2943  2.2610 -0.9017
 3186TIP3    H233754   3.544   2.740  19.057 -0.8947  0.9311 -0.8371
 3187TIP3   OH233755   1.622   3.754  18.627 -0.0925  0.0654  0.4221
 3187TIP3    H133756   1.714   3.750  18.602  0.1214  1.9694  0.7184
 3187TIP3    H233757   1.609   3.678  18.684  1.1378 -0.5318 -0.0494
 3188TIP3   OH233758   2.559   2.208  18.808 -0.6161 -0.2252  0.0844
 3188TIP3    H133759   2.572   2.146  18.736 -2.2678 -0.2454 -0.2291
 3188TIP3    H233760   2.477   2.180  18.849  0.9333 -1.0575  2.8666
 3189TIP3   OH233761   3.130   2.222  19.213  0.0480 -0.2010 -0.0012
 3189TIP3    H133762   3.163   2.289  19.154 -1.2019 -0.6364 -1.2355
 3189TIP3    H233763   3.064   2.175  19.163 -0.7897 -0.8424  1.6113
 3190TIP3   OH233764   1.459   1.570  17.989 -0.0701 -0.1828 -0.2314
 3190TIP3    H133765   1.394   1.640  17.996 -0.2643 -0.3741 -0.1190
 3190TIP3    H233766   1.494   1.579  17.900 -2.3197 -1.8719 -1.3697
 3191TIP3   OH233767   5.489   2.094  18.848  0.2065  0.2670 -0.1101
 3191TIP3    H133768   5.578   2.085  18.815 -0.6727  1.9968 -3.3938
 3191TIP3    H233769   5.443   2.016  18.814  0.3950 -0.6415  1.6027
 3192TIP3   OH233770   1.551   7.389  17.443  0.2691 -0.4649  0.1896
 3192TIP3    H133771   1.555   7.395  17.348  1.4160  1.5211  0.2938
 3192TIP3    H233772   1.638   7.418  17.472  0.1051 -1.4869  1.8369
 3193TIP3   OH233773   1.637   0.383  18.594  0.2398  0.5581 -0.2266
 3193TIP3    H133774   1.551   0.417  18.571 -0.3742 -1.0006 -0.3037
 3193TIP3    H233775   1.652   0.415  18.683 -1.1524 -0.4862  0.4221
 3194TIP3   OH233776   4.709   3.121  19.031 -0.0708 -0.5435  0.3622
 3194TIP3    H133777   4.792   3.138  19.075 -0.2370 -1.5953  1.1386
 3194TIP3    H233778   4.731   3.111  18.939  0.5654 -0.1534  0.4697
 3195TIP3   OH233779   0.157   1.516  19.689 -0.0032  0.0905  0.0952
 3195TIP3    H133780   0.113   1.432  19.701  0.5266 -0.0697  0.9924
 3195TIP3    H233781   0.211   1.526  19.767  0.3032  1.0459 -0.2278
 3196TIP3   OH233782   3.703   0.321  17.883 -0.1198 -0.2916  0.2249
 3196TIP3    H133783   3.678   0.380  17.812  0.3579 -0.2921  0.0530
 3196TIP3    H233784   3.783   0.358  17.919  0.3981 -1.0464 -0.1368
 3197TIP3   OH233785   0.777   2.885  17.969 -0.5945  0.0568  0.1845
 3197TIP3    H133786   0.825   2.838  17.900 -0.1130  0.6100  0.1374
 3197TIP3    H233787   0.798   2.977  17.954 -0.8553  0.2184  0.7937
 3198TIP3   OH233788   0.175   4.298  17.307 -0.0415  0.5255 -0.1129
 3198TIP3    H133789   0.209   4.208  17.306 -1.4457 -0.0262 -0.3941
 3198TIP3    H233790   0.251   4.352  17.290  0.6066 -0.6950 -1.2797
 3199TIP3   OH233791   7.520   1.808  19.326  0.7412 -0.1924  0.5204
 3199TIP3    H133792   7.547   1.785  19.237  1.4707  0.9299  0.4277
 3199TIP3    H233793   7.571   1.750  19.383  1.3543  0.0729  0.2494
 3200TIP3   OH233794   1.448   1.007  19.125 -0.5069 -0.9305 -0.0877
 3200TIP3    H133795   1.391   1.044  19.193 -1.7053 -2.1558 -0.3620
 3200TIP3    H233796   1.422   1.052  19.045 -1.3389 -1.6883 -0.2647
 3201TIP3   OH233797   0.757   1.757  18.925 -0.2872  0.6078 -0.3047
 3201TIP3    H133798   0.804   1.741  18.843  0.0579 -0.4834  0.0826
 3201TIP3    H233799   0.786   1.844  18.952  1.5564 -0.0336 -0.0805
 3202TIP3   OH233800   0.019   0.810  18.000  0.1577  0.0347  0.0640
 3202TIP3    H133801   0.087   0.753  17.964 -0.4173 -0.8615  0.3540
 3202TIP3    H233802  -0.036   0.832  17.925  0.8252  0.8667 -0.1976
 3203TIP3   OH233803   3.095   1.692  18.733  0.7512 -0.0503 -0.5114
 3203TIP3    H133804   3.026   1.758  18.736  1.9294  1.2498 -1.3168
 3203TIP3    H233805   3.161   1.722  18.796  0.8549 -1.0005 -0.1447
 3204TIP3   OH233806   2.238   0.413  18.468 -0.3936 -0.4411 -0.0431
 3204TIP3    H133807   2.306   0.476  18.491  0.6763 -1.6318  0.1462
 3204TIP3    H233808   2.266   0.331  18.508 -1.4803 -1.1775 -0.7253
 3205TIP3   OH233809   1.232   5.970  18.583  0.3182 -0.0841  0.0889
 3205TIP3    H133810   1.172   5.899  18.560  0.3126 -0.2362  0.5437
 3205TIP3    H233811   1.183   6.050  18.567  0.4815 -0.1696 -0.8568
 3206TIP3   OH233812   3.911   6.710  17.765  0.7920 -0.0479  0.9115
 3206TIP3    H133813   3.917   6.616  17.748 -1.4159 -0.3844  1.7838
 3206TIP3    H233814   3.893   6.717  17.859  0.4627  1.2275  0.7730
 3207TIP3   OH233815   7.168   7.107  18.220 -0.0615 -0.5425  0.0495
 3207TIP3    H133816   7.227   7.125  18.147  0.5792  0.7726  0.8369
 3207TIP3    H233817   7.099   7.052  18.183  0.9425 -1.0038 -1.2137
 3208TIP3   OH233818   0.001   4.083  18.801  0.0092  0.4617  0.2580
 3208TIP3    H133819   0.030   3.993  18.792 -2.1761 -0.1982 -0.8638
 3208TIP3    H233820  -0.040   4.087  18.887 -0.9398  0.0270 -0.1599
 3209TIP3   OH233821   6.979   7.336  17.960  0.5097  0.1992  0.6060
 3209TIP3    H133822   7.027   7.317  18.040 -1.9440 -1.7740  1.7418
 3209TIP3    H233823   7.030   7.294  17.891  1.0667 -0.7707  1.5801
 3210TIP3   OH233824   4.157   0.505  19.299 -0.0930 -0.2373  0.3753
 3210TIP3    H133825   4.088   0.441  19.280  0.5517 -0.4371 -1.4744
 3210TIP3    H233826   4.122   0.589  19.269  1.0371 -0.5992 -2.2406
 3211TIP3   OH233827   7.356   5.702  16.821  0.2412  0.1334  0.2269
 3211TIP3    H133828   7.423   5.765  16.795 -0.2337 -0.1209 -1.8024
 3211TIP3    H233829   7.356   5.637  16.752 -0.3129 -1.3162  1.5279
 3212TIP3   OH233830   1.790   3.686  16.941 -0.2010 -0.0284  0.2523
 3212TIP3    H133831   1.840   3.758  16.903  2.1714 -1.3545  0.6152
 3212TIP3    H233832   1.856   3.618  16.957 -2.1954 -1.9568  0.6966
 3213TIP3   OH233833   0.581   4.802  17.346 -0.5439  0.1916 -0.1344
 3213TIP3    H133834   0.655   4.767  17.396 -0.4555  0.2980 -0.1905
 3213TIP3    H233835   0.520   4.835  17.413  0.3864  2.0075 -0.1158
 3214TIP3   OH233836   1.868   3.760  18.516  0.2179  0.0512 -0.0838
 3214TIP3    H133837   1.853   3.666  18.503  0.9262 -0.0923  0.0899
 3214TIP3    H233838   1.946   3.780  18.464 -0.8638  0.9075 -1.4415
 3215TIP3   OH233839   3.527   6.609  18.355 -0.5862 -0.7657  0.2879
 3215TIP3    H133840   3.453   6.614  18.295  0.6556 -0.5140 -1.2673
 3215TIP3    H233841   3.505   6.536  18.414 -1.8957 -0.9130 -0.3467
 3216TIP3   OH233842   7.046   3.782  17.953  0.1841 -0.0869  0.7562
 3216TIP3    H133843   7.127   3.733  17.960 -0.0904 -0.6262  0.2946
 3216TIP3    H233844   7.072   3.874  17.957  1.2936 -0.0855 -3.0753
 3217TIP3   OH233845   5.301   0.173  17.448 -0.0212  0.2339 -0.2664
 3217TIP3    H133846   5.391   0.202  17.433 -0.5388  0.8893 -2.5219
 3217TIP3    H233847   5.257   0.250  17.484 -0.2448  0.7353 -1.5719
 3218TIP3   OH233848   3.023   7.368  18.623 -0.3672 -0.4870 -0.2280
 3218TIP3    H133849   2.975   7.373  18.541 -1.2448  0.8679  0.3320
 3218TIP3    H233850   3.115   7.377  18.598 -0.6230 -0.1190 -1.0629
 3219TIP3   OH233851   2.899   1.876  18.896 -0.1024 -0.6626  0.5489
 3219TIP3    H133852   2.826   1.879  18.835  0.1276 -0.9772  0.2507
 3219TIP3    H233853   2.871   1.816  18.965 -1.2620  1.3685  1.9667
 3220TIP3   OH233854   5.892   1.754  19.504  0.3937 -0.0166  0.6151
 3220TIP3    H133855   5.917   1.839  19.468 -0.1073  1.0106  2.5250
 3220TIP3    H233856   5.966   1.697  19.483  2.2543  1.7180  1.9803
 3221TIP3   OH233857   0.097   4.756  18.669 -0.5331  0.4829 -0.3380
 3221TIP3    H133858   0.004   4.779  18.660 -0.1001  1.8690 -1.7018
 3221TIP3    H233859   0.131   4.815  18.736 -0.1840  1.4958 -1.3797
 3222TIP3   OH233860   5.531   3.970  17.290 -0.3986  1.0437  0.4339
 3222TIP3    H133861   5.523   3.903  17.222  0.6128  0.8865  0.4572
 3222TIP3    H233862   5.607   3.943  17.342 -1.3666  0.9435  1.8798
 3223TIP3   OH233863   2.448   6.196  19.286 -0.5046  0.0724 -0.4905
 3223TIP3    H133864   2.402   6.154  19.359 -1.1076 -0.9049 -1.4031
 3223TIP3    H233865   2.538   6.166  19.293 -0.8842 -1.2386 -1.0028
 3224TIP3   OH233866   4.313   0.302  19.429 -0.3254 -0.5532 -0.1677
 3224TIP3    H133867   4.278   0.241  19.365  0.7409  0.5066 -1.8203
 3224TIP3    H233868   4.255   0.378  19.426 -0.2264 -0.4633  0.0724
 3225TIP3   OH233869   1.941   4.332  18.499 -0.2956 -0.0740 -0.4747
 3225TIP3    H133870   1.919   4.245  18.467  1.5870  0.1210 -2.5664
 3225TIP3    H233871   1.937   4.388  18.422  0.9935  1.1586  0.2928
 3226TIP3   OH233872   6.428   3.743  18.451  0.2966  0.1637 -0.6457
 3226TIP3    H133873   6.493   3.799  18.409  0.9202 -0.3650 -0.3973
 3226TIP3    H233874   6.345   3.767  18.409  0.8030  0.1165 -1.7002
 3227TIP3   OH233875   7.579   7.632  17.986  0.2612  0.4911  0.1942
 3227TIP3    H133876   7.625   7.562  18.031  0.7447  0.3874 -0.4481
 3227TIP3    H233877   7.504   7.652  18.042 -0.0483 -0.7399  0.2339
 3228TIP3   OH233878   2.645   7.082  18.859 -0.0958 -0.3143 -0.3302
 3228TIP3    H133879   2.727   7.075  18.909 -0.5997  0.4966  0.6507
 3228TIP3    H233880   2.597   7.002  18.880 -0.9704  0.6874  1.7909
 3229TIP3   OH233881   1.263   2.406  16.416  1.0706  0.3678  0.2085
 3229TIP3    H133882   1.260   2.400  16.320  3.6094 -0.5858  0.1283
 3229TIP3    H233883   1.282   2.317  16.445  1.9919  0.9580  1.4912
 3230TIP3   OH233884   6.828   4.930  17.872 -0.0479 -0.0450  0.2479
 3230TIP3    H133885   6.820   4.958  17.963 -1.0751  0.3603  0.0471
 3230TIP3    H233886   6.748   4.962  17.830  0.7162  0.3635 -0.9527
 3231TIP3   OH233887   4.818   0.213  17.233 -0.0562 -0.4441 -0.3762
 3231TIP3    H133888   4.887   0.181  17.291  0.5127 -0.7849 -1.2302
 3231TIP3    H233889   4.855   0.208  17.146 -0.2517  1.7652 -0.6378
 3232TIP3   OH233890   3.092   1.580  17.249  0.1905 -0.2088 -0.1550
 3232TIP3    H133891   3.145   1.635  17.308  0.1739  0.4498 -0.7395
 3232TIP3    H233892   3.146   1.571  17.171  0.5073 -1.6472  0.1971
 3233TIP3   OH233893   0.027   6.814  17.292  0.4301 -0.0904 -0.5320
 3233TIP3    H133894  -0.062   6.792  17.320  0.2365  2.6476  1.4235
 3233TIP3    H233895   0.018   6.899  17.249  1.9237 -0.5113 -1.7509
 3234TIP3   OH233896   0.713   7.501  16.669 -0.1104  0.4609  0.4114
 3234TIP3    H133897   0.758   7.422  16.699  0.2633 -0.7663 -2.9329
 3234TIP3    H233898   0.655   7.471  16.599 -2.2825  2.7731  1.0592
 3235TIP3   OH233899   6.822   6.212  19.300 -0.4792  0.2039  0.0652
 3235TIP3    H133900   6.853   6.160  19.226 -0.1911 -1.1893  1.1256
 3235TIP3    H233901   6.899   6.260  19.330  0.0589 -1.2228  1.0465
 3236TIP3   OH233902   0.900   6.532  17.911 -0.5358 -0.1942 -0.2209
 3236TIP3    H133903   0.930   6.475  17.982 -0.7506  1.6962  1.4919
 3236TIP3    H233904   0.949   6.614  17.925 -0.3519  0.1226 -2.4695
 3237TIP3   OH233905   0.340   0.282  17.993  0.3156  0.6053 -0.6712
 3237TIP3    H133906   0.265   0.342  17.995  0.3689  0.6592  0.4558
 3237TIP3    H233907   0.395   0.316  17.923 -0.0158  1.4473 -0.5459
 3238TIP3   OH233908   1.162   1.537  17.817  0.0815  0.6127  0.5611
 3238TIP3    H133909   1.211   1.473  17.765  1.0640 -0.4009  2.6306
 3238TIP3    H233910   1.117   1.485  17.884 -0.0997  1.9687  1.5460
 3239TIP3   OH233911   2.027   7.260  19.072 -0.1793 -0.1868  0.0093
 3239TIP3    H133912   1.983   7.240  18.990  1.3279 -0.4236 -0.7736
 3239TIP3    H233913   1.956   7.276  19.134 -1.3512 -0.7393 -1.1469
 3240TIP3   OH233914   5.142   6.700  18.546 -0.0119 -0.0102  0.0380
 3240TIP3    H133915   5.235   6.706  18.569 -0.2597  0.7543  0.8906
 3240TIP3    H233916   5.127   6.774  18.487 -0.1482  0.0701  0.1701
 3241TIP3   OH233917   0.249   4.424  18.966 -0.3307 -0.3612  0.0991
 3241TIP3    H133918   0.291   4.508  18.944 -0.1661 -0.7935 -1.3780
 3241TIP3    H233919   0.174   4.448  19.019  0.2550  0.6493  0.4990
 3242TIP3   OH233920   6.860   1.179  17.071 -0.5726  0.1600 -0.0066
 3242TIP3    H133921   6.846   1.118  16.998  0.4145  0.2047 -0.2423
 3242TIP3    H233922   6.892   1.259  17.030  0.1717  0.1219  0.4901
 3243TIP3   OH233923   3.679   0.034  19.312  0.1109 -0.6159  0.4091
 3243TIP3    H133924   3.589   0.066  19.313 -0.1542 -1.3663  0.5650
 3243TIP3    H233925   3.722   0.086  19.244 -0.6003 -0.7109 -0.1188
 3244TIP3   OH233926   1.874   7.097  18.897  0.5576  0.3469 -0.0330
 3244TIP3    H133927   1.855   7.067  18.808  2.7798 -0.2648 -0.3514
 3244TIP3    H233928   1.825   7.037  18.954  2.0035 -1.6442 -0.7744
 3245TIP3   OH233929   1.226   4.988  19.082 -0.4129  0.2133  0.2241
 3245TIP3    H133930   1.258   4.898  19.075  0.6940  0.6150  0.0084
 3245TIP3    H233931   1.199   5.011  18.993  0.1672  0.3974  0.0883
 3246TIP3   OH233932   3.844   6.534  18.702 -0.3775  0.1081 -0.1255
 3246TIP3    H133933   3.810   6.445  18.696 -1.6532  0.5078  0.7856
 3246TIP3    H233934   3.860   6.548  18.795  0.8011  0.4832 -0.3769
 3247TIP3   OH233935   0.995   2.888  17.069  0.2618  0.1978  0.6155
 3247TIP3    H133936   0.996   2.811  17.125  1.9750  0.6560  1.2816
 3247TIP3    H233937   1.010   2.854  16.981  0.5801 -0.2735  0.8491
 3248TIP3   OH233938   6.308   4.849  19.113  0.2171 -0.3685 -0.6730
 3248TIP3    H133939   6.307   4.923  19.174 -0.2912 -0.2355 -0.8316
 3248TIP3    H233940   6.301   4.890  19.027 -3.2901 -0.6490 -0.6750
 3249TIP3   OH233941   2.140   5.821  17.084 -0.6839  0.0248  0.1837
 3249TIP3    H133942   2.152   5.767  17.006 -0.4247  2.6113 -1.7114
 3249TIP3    H233943   2.218   5.806  17.136  1.7304  1.9502 -2.5642
 3250TIP3   OH233944   2.364   4.209  17.921  0.4393 -0.2195  0.1602
 3250TIP3    H133945   2.346   4.197  18.014 -0.1014  2.2837  0.4308
 3250TIP3    H233946   2.278   4.206  17.879  0.5767 -0.1889 -0.1288
 3251TIP3   OH233947   2.651   5.181  19.203 -0.3790 -0.2687  0.4672
 3251TIP3    H133948   2.673   5.109  19.144 -1.2882 -1.8033  1.8841
 3251TIP3    H233949   2.559   5.199  19.186 -0.1327  0.6440  0.0617
 3252TIP3   OH233950   6.698   7.260  17.935  0.2910 -0.2499  0.2796
 3252TIP3    H133951   6.679   7.248  17.842  0.4121 -2.4038  0.4839
 3252TIP3    H233952   6.792   7.281  17.938  0.2754 -0.1256 -0.0845
 3253TIP3   OH233953   3.157   6.163  17.810 -0.0994 -0.3830 -0.3678
 3253TIP3    H133954   3.074   6.128  17.842 -0.1766 -1.6947 -1.8584
 3253TIP3    H233955   3.148   6.258  17.818 -1.0707 -0.5549  1.0353
 3254TIP3   OH233956   0.102   0.130  18.234 -0.0754 -0.1633 -0.0008
 3254TIP3    H133957   0.168   0.086  18.180  3.5722  0.6307  3.3089
 3254TIP3    H233958   0.032   0.066  18.244  2.1491 -2.8580 -0.3988
 3255TIP3   OH233959   1.960   5.135  18.153 -0.2392 -0.4120  0.0500
 3255TIP3    H133960   2.035   5.075  18.152 -1.1989 -1.6410  0.2436
 3255TIP3    H233961   1.987   5.208  18.097  2.0485  0.3610  1.9544
 3256TIP3   OH233962   7.492   0.788  19.101 -0.1159  0.1981 -0.3154
 3256TIP3    H133963   7.408   0.773  19.144 -0.2797 -0.6637 -0.9209
 3256TIP3    H233964   7.556   0.787  19.172 -0.2176 -2.4929 -0.1839
 3257TIP3   OH233965   6.385   4.081  17.412  0.3887 -0.4783 -0.0662
 3257TIP3    H133966   6.418   4.091  17.323 -0.8704 -0.7901 -0.5871
 3257TIP3    H233967   6.372   3.987  17.423 -0.1863 -0.3760  0.1678
 3258TIP3   OH233968   1.101   7.113  18.778 -0.5311 -0.3783 -0.2182
 3258TIP3    H133969   1.108   7.197  18.732 -0.1533 -1.4143 -2.1379
 3258TIP3    H233970   1.190   7.077  18.775 -0.4702 -0.4657  1.4503
 3259TIP3   OH233971   1.644   5.333  17.161 -0.0109  0.2676 -0.6307
 3259TIP3    H133972   1.653   5.286  17.078  1.4866  0.7453 -0.7665
 3259TIP3    H233973   1.679   5.273  17.226 -0.1742  0.3224 -0.4911
 3260TIP3   OH233974   3.086   6.871  16.699  0.0256  0.8656 -0.2827
 3260TIP3    H133975   3.182   6.869  16.695  0.0270  1.1046 -0.3748
 3260TIP3    H233976   3.059   6.891  16.610 -0.1256  0.3520 -0.3540
 3261TIP3   OH233977   7.080   4.474  16.817 -0.0035 -0.6411 -0.6053
 3261TIP3    H133978   7.155   4.434  16.861 -0.1062 -0.0862  0.0922
 3261TIP3    H233979   7.100   4.465  16.723 -0.2427 -2.7029 -0.4981
 3262TIP3   OH233980   3.028   4.502  18.380 -0.4240  0.1376 -0.3032
 3262TIP3    H133981   3.034   4.595  18.359  0.5903  0.2512  0.4404
 3262TIP3    H233982   3.109   4.482  18.426 -0.6583 -1.1075 -0.3942
 3263TIP3   OH233983   6.707   1.007  19.258 -0.6276  0.1758  0.3000
 3263TIP3    H133984   6.653   0.928  19.266 -1.4298  0.7438  0.6536
 3263TIP3    H233985   6.737   1.008  19.167 -2.7599  0.8169 -0.4386
 3264TIP3   OH233986   0.914   0.956  17.788 -0.6603 -1.0362 -0.2619
 3264TIP3    H133987   0.956   1.041  17.802 -1.5255 -0.8380  1.4041
 3264TIP3    H233988   0.850   0.973  17.718 -0.1370 -0.5811 -0.6396
 3265TIP3   OH233989   6.090   0.197  18.659 -0.4168 -0.0217 -0.3013
 3265TIP3    H133990   6.048   0.244  18.587 -1.6300 -0.4401  0.1153
 3265TIP3    H233991   6.184   0.210  18.644 -0.6889  2.5427 -0.1953
 3266TIP3   OH233992   3.860   5.944  17.489  0.3842  0.0975  0.1735
 3266TIP3    H133993   3.946   5.906  17.475  0.0229 -0.4857 -0.5122
 3266TIP3    H233994   3.836   5.982  17.404 -0.2192 -0.1231  0.2380
 3267TIP3   OH233995   1.437   1.756  19.340  0.4309 -0.8096 -0.2574
 3267TIP3    H133996   1.434   1.662  19.323 -1.9956 -0.8433  0.0909
 3267TIP3    H233997   1.355   1.790  19.304  0.4930  0.9073  1.0972
 3268TIP3   OH233998   3.844   6.763  18.007 -0.0093 -0.6276  0.3840
 3268TIP3    H133999   3.757   6.804  18.011  0.1687  0.0769 -1.6071
 3268TIP3    H234000   3.901   6.822  18.055 -0.2353  0.1245 -0.2471
 3269TIP3   OH234001   1.900   2.565  17.657 -0.4720 -0.1607 -0.1665
 3269TIP3    H134002   1.813   2.524  17.660 -0.8994  0.4253 -2.3770
 3269TIP3    H234003   1.902   2.610  17.572  1.7494  0.4275  0.1363
 3270TIP3   OH234004   5.832   1.522  17.961  0.1821 -0.2656 -0.1354
 3270TIP3    H134005   5.911   1.496  18.009  0.9543 -0.2943 -1.3862
 3270TIP3    H234006   5.845   1.615  17.942 -0.0492 -0.2918 -0.4203
 3271TIP3   OH234007   2.229   1.686  19.131  0.1802  0.4042  0.4424
 3271TIP3    H134008   2.210   1.593  19.139  0.2914  0.2074 -1.2183
 3271TIP3    H234009   2.154   1.729  19.171 -1.3272 -0.3974 -1.3893
 3272TIP3   OH234010   3.025   5.244  18.891 -0.4432  0.2785  0.4302
 3272TIP3    H134011   3.049   5.331  18.923 -3.6087  0.2827  3.4516
 3272TIP3    H234012   2.945   5.258  18.841  0.2664 -0.6854 -1.0202
 3273TIP3   OH234013   1.749   3.801  17.752 -0.6056 -0.0977 -0.2054
 3273TIP3    H134014   1.800   3.742  17.806 -0.5041 -0.3121 -0.5336
 3273TIP3    H234015   1.658   3.777  17.770 -0.5802 -0.0126  0.0434
 3274TIP3   OH234016   6.548   0.937  17.986  0.1253 -0.4299  0.1747
 3274TIP3    H134017   6.582   0.944  17.897 -0.3904 -1.0949 -0.0795
 3274TIP3    H234018   6.484   0.866  17.982  0.1325 -0.5003  1.0851
 3275TIP3   OH234019   0.910   6.103  18.707 -0.2615 -0.4356 -0.4878
 3275TIP3    H134020   0.953   6.073  18.627  1.5436  1.2206 -0.2214
 3275TIP3    H234021   0.906   6.025  18.763  1.9643 -0.8232 -0.7509
 3276TIP3   OH234022   2.655   5.061  18.399 -0.2087 -0.1561  0.2427
 3276TIP3    H134023   2.688   5.014  18.323  1.3755  1.0314  0.1401
 3276TIP3    H234024   2.600   5.131  18.362 -0.3540 -0.2656  0.2508
 3277TIP3   OH234025   6.559   6.247  19.207 -0.4712  0.2416 -0.1282
 3277TIP3    H134026   6.646   6.226  19.243  0.0525 -0.3310 -1.6306
 3277TIP3    H234027   6.577   6.272  19.117 -1.9050 -0.0969 -0.5237
 3278TIP3   OH234028   3.468   4.148  19.030 -0.5331  0.2045 -0.0212
 3278TIP3    H134029   3.480   4.216  18.964  2.4692 -0.1215  0.0771
 3278TIP3    H234030   3.431   4.195  19.106  0.4075  1.5246 -0.3396
 3279TIP3   OH234031   0.887   2.384  16.587 -0.3132 -0.3640 -0.7375
 3279TIP3    H134032   0.834   2.445  16.534 -0.2046  0.2546 -0.1534
 3279TIP3    H234033   0.829   2.309  16.601 -1.4781  0.7479  0.7850
 3280TIP3   OH234034   3.187   4.581  19.321 -0.3046  0.2934  0.2807
 3280TIP3    H134035   3.222   4.665  19.353  1.1157 -0.2278  0.1480
 3280TIP3    H234036   3.152   4.601  19.234  2.4953  0.2569 -0.9511
 3281TIP3   OH234037   1.092   6.420  18.615  0.9712 -0.2190  0.6869
 3281TIP3    H134038   1.186   6.433  18.603  0.8979 -1.3984 -1.4960
 3281TIP3    H234039   1.056   6.417  18.527 -1.2441  0.7608  1.4705
 3282TIP3   OH234040   7.636   5.565  17.036 -0.0721  0.3959 -0.1810
 3282TIP3    H134041   7.557   5.515  17.016  0.7724 -0.8241 -0.6233
 3282TIP3    H234042   7.685   5.567  16.954  1.4594 -0.9809  0.6283
 3283TIP3   OH234043   6.933   0.798  18.387 -0.5829  0.3956  0.0734
 3283TIP3    H134044   6.903   0.888  18.402 -1.2314 -0.0541  1.6494
 3283TIP3    H234045   7.020   0.796  18.427 -0.2185  0.5230 -0.6880
 3284TIP3   OH234046   2.663   7.546  18.836 -0.0739 -0.0780  0.1386
 3284TIP3    H134047   2.682   7.469  18.891  1.2977 -0.3531 -0.6841
 3284TIP3    H234048   2.568   7.555  18.840 -0.0481 -0.2396  2.3494
 3285TIP3   OH234049   0.408   2.806  17.104 -0.6186 -0.4001 -0.0980
 3285TIP3    H134050   0.379   2.732  17.050 -0.4136  0.5237 -1.5552
 3285TIP3    H234051   0.338   2.870  17.096  0.3753  0.6177 -1.1076
 3286TIP3   OH234052   0.571   7.673  16.831  0.4121 -0.0338 -0.1355
 3286TIP3    H134053   0.503   7.637  16.888  2.1714 -1.0272  1.4330
 3286TIP3    H234054   0.613   7.596  16.793  1.1942  0.5395 -0.4515
 3287TIP3   OH234055   1.591   3.919  18.402  0.3289 -0.0667 -0.4396
 3287TIP3    H134056   1.594   3.877  18.488  2.6228  1.3833  0.2579
 3287TIP3    H234057   1.518   3.981  18.409  0.9285  0.5473  0.7485
 3288TIP3   OH234058   7.631   1.499  18.271  0.5608 -0.7218 -0.2632
 3288TIP3    H134059   7.666   1.580  18.309  1.3401 -0.6490 -1.1048
 3288TIP3    H234060   7.637   1.513  18.176 -0.0917 -1.4295 -0.4143
 3289TIP3   OH234061   4.097   2.137  18.410 -0.1998  0.4310  0.1512
 3289TIP3    H134062   4.143   2.060  18.376 -0.8235 -0.4177  1.1825
 3289TIP3    H234063   4.163   2.207  18.408  0.8572 -0.5179  0.6550
 3290TIP3   OH234064   3.630   6.758  17.526  0.1147 -0.2119 -0.5962
 3290TIP3    H134065   3.610   6.724  17.439  1.1302  1.5362 -1.5710
 3290TIP3    H234066   3.684   6.690  17.566  2.5449  0.3634 -2.6633
 3291TIP3   OH234067   4.318   6.164  19.204 -0.5042 -0.1424  0.0862
 3291TIP3    H134068   4.225   6.182  19.191  0.2393  2.6894 -2.6870
 3291TIP3    H234069   4.351   6.242  19.248  0.9431  0.0839 -1.3128
 3292TIP3   OH234070   3.166   7.248  18.326 -0.0282 -0.0648 -0.1687
 3292TIP3    H134071   3.133   7.325  18.279 -1.9379 -0.4199  0.5027
 3292TIP3    H234072   3.138   7.173  18.273  0.1554 -0.3781  0.1730
 3293TIP3   OH234073   5.245   3.188  19.419 -0.1186 -0.1731 -0.4435
 3293TIP3    H134074   5.197   3.236  19.486  0.1013  0.7876 -0.9454
 3293TIP3    H234075   5.312   3.250  19.389 -1.3571  0.1360 -2.8271
 3294TIP3   OH234076   7.655   4.995  17.965 -0.3502 -0.1399  0.0601
 3294TIP3    H134077   7.708   5.015  17.888 -0.7510 -0.1335 -0.2141
 3294TIP3    H234078   7.582   5.057  17.962  0.5699  1.0688  1.4239
 3295TIP3   OH234079   4.871   6.646  17.729 -0.2482  0.3471 -0.6154
 3295TIP3    H134080   4.795   6.698  17.757  0.6945  1.4603 -0.0065
 3295TIP3    H234081   4.928   6.644  17.806  0.2869 -0.5714 -1.0228
 3296TIP3   OH234082   6.806   5.439  18.965  0.1975 -0.4524 -0.2059
 3296TIP3    H134083   6.842   5.399  19.043  1.6553  1.2230  0.0581
 3296TIP3    H234084   6.737   5.498  18.997  1.2324  0.7288 -0.0480
 3297TIP3   OH234085   4.279   7.244  18.184 -0.2146 -0.0804 -0.0147
 3297TIP3    H134086   4.307   7.156  18.158 -0.9271  0.2662 -2.1506
 3297TIP3    H234087   4.184   7.240  18.185 -0.2540  0.6785 -0.1707
 3298TIP3   OH234088   2.403   4.817  18.054  0.1929 -0.3031  0.0617
 3298TIP3    H134089   2.410   4.721  18.049  2.2140 -0.2647  0.9367
 3298TIP3    H234090   2.444   4.840  18.137  3.0191  1.5095 -1.6475
 3299TIP3   OH234091   2.219   4.949  18.635  0.1035  0.8951 -0.5511
 3299TIP3    H134092   2.218   4.999  18.553 -1.3877  1.8518 -0.0035
 3299TIP3    H234093   2.243   5.013  18.702 -0.8307  0.6562  0.0333
 3300TIP3   OH234094   4.420   4.311  18.858  0.0913 -0.8004 -0.1362
 3300TIP3    H134095   4.354   4.345  18.919  1.1544 -0.7893  1.0380
 3300TIP3    H234096   4.406   4.217  18.857  1.3390 -1.0395  1.7029
 3301TIP3   OH234097   7.204   4.598  18.727 -0.2956 -0.0903 -0.1535
 3301TIP3    H134098   7.144   4.581  18.799 -0.1630 -0.6168 -0.1585
 3301TIP3    H234099   7.278   4.539  18.743  1.3827  2.2102  1.1790
 3302TIP3   OH234100   3.836   3.807  18.719  0.1230  0.1955  0.3930
 3302TIP3    H134101   3.793   3.868  18.779  1.4688  1.1182  0.4584
 3302TIP3    H234102   3.824   3.721  18.760 -1.6359  0.3920  0.3942
 3303TIP3   OH234103   0.465   5.635  18.959  0.3610 -0.0725 -0.3374
 3303TIP3    H134104   0.455   5.719  19.004  2.1665  0.4751 -0.8639
 3303TIP3    H234105   0.376   5.611  18.931 -0.4370  0.7555  1.3788
 3304TIP3   OH234106   3.340   5.151  19.366 -0.6091 -0.3565 -0.1308
 3304TIP3    H134107   3.266   5.123  19.419 -0.5564 -1.3732 -0.5867
 3304TIP3    H234108   3.385   5.215  19.422 -0.6697 -1.2489  0.9853
 3305TIP3   OH234109   6.314   4.925  18.161  0.2782 -0.8053 -0.0255
 3305TIP3    H134110   6.341   4.857  18.099  1.3337 -0.4423  0.0070
 3305TIP3    H234111   6.394   4.977  18.175 -0.2570 -0.1656  0.7157
 3306TIP3   OH234112   2.320   7.502  17.228  0.6202  0.5820  0.2745
 3306TIP3    H134113   2.240   7.488  17.179  0.7188  1.3395 -0.1147
 3306TIP3    H234114   2.391   7.489  17.165  0.8786 -1.2555  0.8779
 3307TIP3   OH234115   1.967   6.499  17.701 -0.3815  0.4008 -0.1308
 3307TIP3    H134116   2.030   6.480  17.771  0.8230  0.1410 -1.2465
 3307TIP3    H234117   1.960   6.594  17.700 -1.3865  0.3579  1.1619
 3308TIP3   OH234118   2.142   6.488  16.822  0.0797  0.5658  0.2433
 3308TIP3    H134119   2.106   6.452  16.903  0.2112 -0.8350 -0.2790
 3308TIP3    H234120   2.066   6.509  16.768 -0.0416 -1.5394 -0.5039
 3309TIP3   OH234121   2.198   4.530  17.751  0.3594  0.2793  0.8024
 3309TIP3    H134122   2.205   4.435  17.741  1.2344  0.1804  2.1627
 3309TIP3    H234123   2.286   4.562  17.733  0.6793  0.5747  2.7307
 3310TIP3   OH234124   4.306   1.145  18.604  0.2337  0.4464  0.2195
 3310TIP3    H134125   4.273   1.228  18.638 -0.4168  0.1953  0.2332
 3310TIP3    H234126   4.314   1.159  18.510 -0.0350  0.4764  0.2004
 3311TIP3   OH234127   2.060   5.134  17.766  0.3846 -0.0050 -0.1082
 3311TIP3    H134128   2.092   5.208  17.715  0.6292  0.3408  0.5300
 3311TIP3    H234129   1.981   5.167  17.809 -0.2817 -0.5451 -0.8895
 3312TIP3   OH234130   2.386   0.030  17.966  1.1209 -0.8911 -0.7168
 3312TIP3    H134131   2.386   0.052  17.873 -0.1320 -0.0194 -0.5467
 3312TIP3    H234132   2.478   0.023  17.989  1.6156  2.0193 -1.3656
 3313TIP3   OH234133   0.113   5.373  18.960  0.1555  0.1892 -0.4159
 3313TIP3    H134134   0.197   5.419  18.956  1.0440 -1.3331 -0.0049
 3313TIP3    H234135   0.082   5.373  18.869  0.8063  0.3756 -0.6459
 3314TIP3   OH234136   4.902   2.400  18.019 -0.1751  0.1786 -0.6375
 3314TIP3    H134137   4.868   2.322  18.062 -0.8319  1.7230  1.8499
 3314TIP3    H234138   4.846   2.411  17.942 -2.3120  0.0257  0.8150
 3315TIP3   OH234139   2.475   3.921  18.129 -0.2922  0.4407 -0.0289
 3315TIP3    H134140   2.390   3.920  18.085  0.0599 -0.3676 -0.7250
 3315TIP3    H234141   2.472   3.846  18.189 -0.1419  0.5234  0.0829
 3316TIP3   OH234142   6.855   1.059  18.737  0.3605 -0.0386 -0.0459
 3316TIP3    H134143   6.771   1.021  18.760  1.2344 -0.4947  2.8774
 3316TIP3    H234144   6.857   1.059  18.641 -2.1346 -1.7827 -0.1867
 3317TIP3   OH234145   3.775   4.239  18.721 -0.2151 -0.0137  0.1417
 3317TIP3    H134146   3.813   4.326  18.736 -0.6442  0.7722 -2.6480
 3317TIP3    H234147   3.834   4.199  18.657 -1.8557 -0.3743 -1.2043
 3318TIP3   OH234148   2.983   2.146  18.949 -0.8005 -0.0956 -0.3849
 3318TIP3    H134149   3.011   2.178  18.864  0.5834 -2.7854 -1.0445
 3318TIP3    H234150   2.946   2.059  18.932 -0.1612 -0.8664  1.7465
 3319TIP3   OH234151   0.140   1.629  19.009  0.2730  0.6913  0.1205
 3319TIP3    H134152   0.163   1.659  18.922 -0.9096 -0.5482 -0.6654
 3319TIP3    H234153   0.224   1.604  19.049  0.6624 -0.9287 -1.5500
 3320TIP3   OH234154   6.478   6.392  17.332 -0.1195  0.0752  0.3408
 3320TIP3    H134155   6.446   6.472  17.373 -0.2410 -0.0637  0.5176
 3320TIP3    H234156   6.425   6.383  17.253 -1.0293 -0.5404  0.9988
 3321TIP3   OH234157   3.228   4.098  18.646 -0.2698  0.0052 -0.8635
 3321TIP3    H134158   3.139   4.065  18.662 -1.1721  1.9414 -1.5958
 3321TIP3    H234159   3.282   4.019  18.643 -1.8734 -1.1937  0.0916
 3322TIP3   OH234160   7.143   1.613  19.755 -0.2102 -0.1414 -0.2546
 3322TIP3    H134161   7.229   1.598  19.714 -0.2321 -1.1268  0.0470
 3322TIP3    H234162   7.129   1.707  19.746  2.1071  0.5582  2.0135
 3323TIP3   OH234163   0.682   1.382  18.466 -0.3446 -0.7345 -0.3782
 3323TIP3    H134164   0.682   1.299  18.420 -0.5484  0.1232 -2.0226
 3323TIP3    H234165   0.664   1.447  18.397  0.7799  0.7539  0.6784
 3324TIP3   OH234166   4.235   0.960  19.066 -0.4339 -0.8520 -1.0244
 3324TIP3    H134167   4.151   0.925  19.094 -0.9712 -0.5881 -2.2461
 3324TIP3    H234168   4.216   1.007  18.986  0.6606  0.3529 -0.6107
 3325TIP3   OH234169   1.951   1.665  17.964  0.3520 -0.2094  0.4066
 3325TIP3    H134170   1.873   1.618  17.992  0.5912  0.6157  2.6907
 3325TIP3    H234171   1.992   1.695  18.046  2.2211  0.7133 -0.7840
 3326TIP3   OH234172   7.319   5.072  18.367 -0.0522 -0.1316  0.4342
 3326TIP3    H134173   7.315   5.124  18.448  0.4382  0.0152  0.3669
 3326TIP3    H234174   7.372   5.125  18.307  0.0446 -0.4855  0.2013
 3327TIP3   OH234175   1.028   3.500  18.988 -0.5534 -0.2143 -0.0673
 3327TIP3    H134176   0.991   3.496  18.900 -0.2739 -1.0617 -0.1532
 3327TIP3    H234177   0.976   3.438  19.040  0.4144 -1.0679 -0.0774
 3328TIP3   OH234178   2.203   5.646  17.391 -0.0402  0.0179 -0.4881
 3328TIP3    H134179   2.257   5.570  17.370 -0.0813  0.3477 -1.8867
 3328TIP3    H234180   2.258   5.721  17.370 -0.5294  0.3659 -0.5377
 3329TIP3   OH234181   7.010   5.705  18.262 -0.3433  0.2607  0.3774
 3329TIP3    H134182   7.070   5.688  18.335 -1.1664  1.1222  1.2876
 3329TIP3    H234183   6.948   5.632  18.264 -0.1172  0.0664  0.2787
 3330TIP3   OH234184   4.561   0.395  18.865 -0.2713  0.1409 -0.4865
 3330TIP3    H134185   4.469   0.372  18.868 -0.0546 -0.9214 -1.3172
 3330TIP3    H234186   4.601   0.350  18.940 -0.3362  0.1506 -0.4468
 3331TIP3   OH234187   0.789   7.556  17.404  0.0595 -0.2660  0.5847
 3331TIP3    H134188   0.845   7.490  17.445 -0.5543  0.3123  2.4461
 3331TIP3    H234189   0.817   7.638  17.444 -1.0529  0.2319  0.3506
 3332TIP3   OH234190   1.464   2.777  16.746  0.2505 -0.0445  0.4770
 3332TIP3    H134191   1.526   2.840  16.708  1.0834 -1.1302 -0.0257
 3332TIP3    H234192   1.379   2.804  16.711  0.3148  1.8277  1.6495
 3333TIP3   OH234193   6.301   2.531  19.099 -0.2571 -0.1292  0.2766
 3333TIP3    H134194   6.338   2.577  19.174  2.6525 -1.0563 -0.4673
 3333TIP3    H234195   6.356   2.453  19.090 -1.6121 -0.9129 -1.8049
 3334TIP3   OH234196   3.743   7.050  19.062  0.0899  0.1925 -0.5015
 3334TIP3    H134197   3.726   7.141  19.038 -0.6028  0.5324  1.1295
 3334TIP3    H234198   3.671   7.027  19.121  1.2340 -0.8177  0.5614
 3335TIP3   OH234199   7.491   4.831  16.869 -0.3293 -0.6225  0.6020
 3335TIP3    H134200   7.538   4.748  16.879 -0.3672 -0.6263  0.7580
 3335TIP3    H234201   7.477   4.839  16.775  3.0534  1.0707  0.1036
 3336TIP3   OH234202   1.076   2.558  19.457  0.4499 -0.1068  0.3935
 3336TIP3    H134203   1.170   2.579  19.460  0.7152 -1.3645  2.2125
 3336TIP3    H234204   1.072   2.463  19.466 -0.9208 -0.5233 -2.9919
 3337TIP3   OH234205   1.741   7.216  19.151  0.2007  0.0592  0.3510
 3337TIP3    H134206   1.749   7.220  19.055  0.7182 -0.8442  0.3461
 3337TIP3    H234207   1.656   7.176  19.167 -0.6665  1.7586  0.3148
 3338TIP3   OH234208   0.114   5.935  19.021 -0.3472 -0.0253  0.2833
 3338TIP3    H134209   0.032   5.932  18.972  0.5691  0.8128 -1.3745
 3338TIP3    H234210   0.128   6.028  19.040  1.7104  0.2592 -2.1800
 3339TIP3   OH234211   1.332   0.806  16.534  0.9478  0.5915  0.5693
 3339TIP3    H134212   1.362   0.896  16.542  0.3785  0.8072  0.3375
 3339TIP3    H234213   1.241   0.808  16.566  0.4191  0.4105 -0.8548
 3340TIP3   OH234214   5.752   3.675  18.806  0.6494  0.4729 -0.7201
 3340TIP3    H134215   5.770   3.696  18.897 -0.6254  0.1271 -0.3692
 3340TIP3    H234216   5.834   3.694  18.760  1.3243  0.5785  0.4992
 3341TIP3   OH234217   0.977   5.928  17.937  0.2647  0.1582  0.0256
 3341TIP3    H134218   1.005   5.913  17.846  0.3012  0.8253 -0.0750
 3341TIP3    H234219   0.883   5.943  17.931  0.3872  0.9663  0.0004
 3342TIP3   OH234220   0.985   6.404  18.324 -0.1492  0.1173 -0.0872
 3342TIP3    H134221   1.055   6.348  18.290  0.7458  1.0863  0.1096
 3342TIP3    H234222   0.992   6.484  18.272 -1.7048 -0.0856 -0.6807
 3343TIP3   OH234223   2.061   6.607  18.266  0.1060  0.3722 -0.3330
 3343TIP3    H134224   1.968   6.628  18.255 -0.2133 -1.0507 -0.4259
 3343TIP3    H234225   2.106   6.678  18.221 -1.0002 -0.9285 -3.8371
 3344TIP3   OH234226   4.514   6.884  16.744  0.3706  0.3569  0.0768
 3344TIP3    H134227   4.494   6.978  16.752 -0.8544  0.1315 -0.1253
 3344TIP3    H234228   4.552   6.861  16.829 -2.4677  0.3372  1.4636
 3345TIP3   OH234229   6.086   7.364  19.265 -0.4526 -0.1712  0.4570
 3345TIP3    H134230   5.993   7.368  19.286 -0.7385 -2.4914 -0.0533
 3345TIP3    H234231   6.130   7.357  19.350 -0.8834 -0.7233  0.6369
 3346TIP3   OH234232   4.884   0.765  17.393  1.0501 -0.0006 -0.7230
 3346TIP3    H134233   4.862   0.690  17.450  0.3588  1.3776  0.9267
 3346TIP3    H234234   4.978   0.755  17.376  1.1925 -0.6940  0.3351
 3347TIP3   OH234235   5.994   4.192  18.701  0.2330  0.1482  0.3117
 3347TIP3    H134236   5.964   4.163  18.787  0.6005 -0.1964  0.3244
 3347TIP3    H234237   5.916   4.231  18.661 -0.5631 -1.7042 -0.0844
 3348TIP3   OH234238   7.225   5.318  16.861 -0.2746 -0.1166  0.2849
 3348TIP3    H134239   7.171   5.281  16.931 -1.6729 -1.2553 -1.3326
 3348TIP3    H234240   7.213   5.259  16.787 -0.0609  1.8740 -1.4238
 3349TIP3   OH234241   2.625   2.040  18.577  0.5069 -0.1520  0.1875
 3349TIP3    H134242   2.658   2.128  18.559 -1.0271  0.4938  0.3506
 3349TIP3    H234243   2.536   2.040  18.541 -1.3410 -0.0159  4.1290
 3350TIP3   OH234244   7.442   3.799  18.967 -0.4382  0.1681  0.3666
 3350TIP3    H134245   7.348   3.810  18.978 -0.3314  1.9653 -0.1471
 3350TIP3    H234246   7.458   3.826  18.876  0.7149  1.0288  0.8095
 3351TIP3   OH234247   6.566   7.182  16.521 -0.0042  0.1380  0.1686
 3351TIP3    H134248   6.623   7.259  16.526  0.5560 -0.3275  1.7005
 3351TIP3    H234249   6.510   7.190  16.598 -1.2697 -0.0059 -0.7082
 3352TIP3   OH234250   4.821   5.348  16.852  0.5101  0.0992  0.0378
 3352TIP3    H134251   4.853   5.405  16.922 -0.1189  0.4006  0.0913
 3352TIP3    H234252   4.900   5.310  16.814  0.7999 -1.2929  1.9053
 3353TIP3   OH234253   3.207   3.707  17.592 -0.3254 -0.1751  0.0739
 3353TIP3    H134254   3.121   3.682  17.556 -0.8678  0.0844  1.1370
 3353TIP3    H234255   3.202   3.680  17.684  0.4111  0.6393  0.3560
 3354TIP3   OH234256   4.915   6.286  18.683 -0.4764 -0.5029 -0.2202
 3354TIP3    H134257   4.938   6.341  18.608 -1.4284 -0.6260 -0.6247
 3354TIP3    H234258   4.897   6.200  18.645  0.5212 -0.9806  0.3494
 3355TIP3   OH234259   3.752   3.048  18.723  0.0796 -0.3123 -0.0869
 3355TIP3    H134260   3.676   3.067  18.667  0.1669 -3.3346 -1.3848
 3355TIP3    H234261   3.715   3.001  18.798  0.5261 -0.4974  0.0167
 3356TIP3   OH234262   1.117   4.669  17.507 -0.6687 -0.1490  0.0870
 3356TIP3    H134263   1.071   4.603  17.455 -0.0289 -1.0503  0.6300
 3356TIP3    H234264   1.108   4.638  17.597  2.0343 -1.0444  0.1131
 3357TIP3   OH234265   1.560   3.870  17.346 -0.9048  0.7250 -0.0425
 3357TIP3    H134266   1.602   3.920  17.416  0.0354  0.7820 -0.6261
 3357TIP3    H234267   1.470   3.904  17.343 -0.6768  1.3937  0.4908
 3358TIP3   OH234268   2.819   0.115  18.868  0.1982 -0.5588 -0.4198
 3358TIP3    H134269   2.888   0.107  18.934 -1.1484  0.3897  1.1893
 3358TIP3    H234270   2.789   0.025  18.855  0.5294 -0.7693  0.2045
 3359TIP3   OH234271   0.669   3.164  17.654  0.8009 -0.2375 -0.0324
 3359TIP3    H134272   0.694   3.209  17.573 -1.2891  0.3764 -0.3866
 3359TIP3    H234273   0.607   3.096  17.625 -0.2980  0.2611  1.0628
 3360TIP3   OH234274   5.257   0.698  17.468 -0.3572 -0.2553  0.7336
 3360TIP3    H134275   5.254   0.786  17.506  1.4119 -0.5590  1.7101
 3360TIP3    H234276   5.330   0.655  17.514  1.0582 -1.1027 -2.0973
 3361TIP3   OH234277   2.649   1.938  17.395 -0.2779  0.3226 -0.5968
 3361TIP3    H134278   2.740   1.967  17.398  0.1643 -0.8819 -1.3070
 3361TIP3    H234279   2.642   1.875  17.467 -0.5523  0.4117 -0.5471
 3362TIP3   OH234280   3.725   6.645  19.109  0.1937  0.3418 -0.1070
 3362TIP3    H134281   3.807   6.659  19.062  1.1150  0.9895  1.6008
 3362TIP3    H234282   3.661   6.628  19.040  2.1043 -2.2610 -1.4358
 3363TIP3   OH234283   5.985   6.851  18.946 -0.2829  0.2075  0.3225
 3363TIP3    H134284   6.001   6.757  18.946 -1.2814  0.0359  0.2556
 3363TIP3    H234285   5.895   6.861  18.916  0.4390  1.2974 -1.6407
 3364TIP3   OH234286   3.845   3.580  18.210 -0.1204  0.1885 -0.2246
 3364TIP3    H134287   3.842   3.579  18.306 -2.2119 -0.5933 -0.2438
 3364TIP3    H234288   3.826   3.671  18.187 -1.8053 -0.0295  0.1352
 3365TIP3   OH234289   0.208   5.644  18.840  0.3086  0.2121  0.2198
 3365TIP3    H134290   0.137   5.700  18.869 -0.3191 -0.9677  1.0017
 3365TIP3    H234291   0.230   5.676  18.752 -1.0748  0.6830  0.0352
 3366TIP3   OH234292   0.591   4.263  18.199  0.3940  0.2913 -0.1753
 3366TIP3    H134293   0.621   4.229  18.115 -0.9377  0.5416 -0.7621
 3366TIP3    H234294   0.646   4.341  18.213  0.5166  0.3436 -0.8839
 3367TIP3   OH234295   0.266   6.017  18.326 -0.4717  0.3107  0.2366
 3367TIP3    H134296   0.349   5.971  18.336 -0.0965  0.5632 -1.5332
 3367TIP3    H234297   0.257   6.068  18.407  1.4501  0.8423  0.1591
 3368TIP3   OH234298   6.545   6.074  17.142 -0.2376 -0.4565 -0.0704
 3368TIP3    H134299   6.477   6.023  17.099  0.3039 -1.5323  0.2919
 3368TIP3    H234300   6.622   6.065  17.085 -0.3712  0.7303 -0.4697
 3369TIP3   OH234301   6.090   5.275  18.303 -0.1399 -0.2832 -0.8236
 3369TIP3    H134302   6.156   5.214  18.333 -2.1349 -1.6430  1.1029
 3369TIP3    H234303   6.035   5.225  18.243 -0.5854  0.2186 -0.8502
 3370TIP3   OH234304   4.717   6.660  19.049 -0.0184 -0.4213  0.0313
 3370TIP3    H134305   4.780   6.719  19.008  0.0010 -1.2050 -1.0990
 3370TIP3    H234306   4.632   6.701  19.032 -0.0748 -1.1233 -1.5030
 3371TIP3   OH234307   3.450   2.279  19.025 -0.3126  0.3864 -0.1027
 3371TIP3    H134308   3.366   2.318  19.004  0.4639  1.7891 -0.7418
 3371TIP3    H234309   3.466   2.217  18.954 -0.3402  0.8741 -0.5398
 3372TIP3   OH234310   2.303   4.944  17.833 -0.0397 -0.0570  0.1323
 3372TIP3    H134311   2.355   4.909  17.905  1.1336  2.3531  0.5779
 3372TIP3    H234312   2.352   4.921  17.754  0.4133  0.0911  0.3682
 3373TIP3   OH234313   4.118   1.011  17.410 -0.0224 -0.5203  0.4458
 3373TIP3    H134314   4.097   0.918  17.402  0.5340 -0.7778  1.7104
 3373TIP3    H234315   4.068   1.053  17.340 -1.6963 -1.5491  0.9608
 3374TIP3   OH234316   4.472   2.936  18.076 -0.3151  0.8565 -0.0205
 3374TIP3    H134317   4.463   3.030  18.058 -1.6638  0.8171  0.3838
 3374TIP3    H234318   4.428   2.894  18.002 -1.0647  0.5805  0.5786
 3375TIP3   OH234319   4.879   7.435  17.118 -0.4637  0.7494  0.4892
 3375TIP3    H134320   4.971   7.454  17.135 -0.1165 -0.6470  0.3054
 3375TIP3    H234321   4.841   7.418  17.204 -0.1852 -0.1175  0.4546
 3376TIP3   OH234322   0.692   0.357  18.153 -0.1632 -0.1155  0.2232
 3376TIP3    H134323   0.647   0.398  18.079  0.0443 -2.0798 -1.0442
 3376TIP3    H234324   0.631   0.367  18.227 -0.9491  0.6960 -0.5191
 3377TIP3   OH234325   6.027   2.967  19.524  0.2111  0.1650 -0.2016
 3377TIP3    H134326   6.092   3.024  19.566 -0.3813 -0.9238  2.3719
 3377TIP3    H234327   5.975   3.026  19.470  0.2609  1.9341  1.5713
 3378TIP3   OH234328   7.207   0.321  19.161 -0.2201 -0.0159 -0.0034
 3378TIP3    H134329   7.113   0.319  19.177 -0.4896 -1.6695 -1.5239
 3378TIP3    H234330   7.218   0.385  19.090  0.0199  1.2615  1.1380
 3379TIP3   OH234331   7.334   4.578  16.346 -0.2006  0.3544 -0.3657
 3379TIP3    H134332   7.306   4.519  16.416 -0.0621 -0.4215 -0.9573
 3379TIP3    H234333   7.271   4.563  16.275  1.0454 -0.6543 -1.3193
 3380TIP3   OH234334   6.647   2.231  19.204  0.1466 -1.0779 -0.2309
 3380TIP3    H134335   6.648   2.138  19.229 -0.1927 -0.6254  1.5781
 3380TIP3    H234336   6.657   2.278  19.287  2.4673  0.5088 -1.3036
 3381TIP3   OH234337   4.525   7.029  17.185 -0.7549  0.7679  0.6071
 3381TIP3    H134338   4.552   6.990  17.101 -1.4427  1.4441  0.0573
 3381TIP3    H234339   4.499   6.954  17.238  1.2665  0.1719  0.8390
 3382TIP3   OH234340   1.857   1.541  16.698 -0.3643  0.2649  0.3580
 3382TIP3    H134341   1.849   1.493  16.780  0.3240  0.5862  0.6163
 3382TIP3    H234342   1.948   1.532  16.672  0.1347  2.4923  1.0969
 3383TIP3   OH234343   1.350   4.747  19.089  0.2610 -0.3435 -0.4583
 3383TIP3    H134344   1.431   4.720  19.045 -0.2711 -1.8027 -0.6126
 3383TIP3    H234345   1.369   4.739  19.182 -0.5721 -3.8088 -0.4434
 3384TIP3   OH234346   3.727   3.134  19.245  0.6051 -0.1353 -0.1180
 3384TIP3    H134347   3.644   3.171  19.216  0.7592  0.9749  0.7363
 3384TIP3    H234348   3.706   3.045  19.273 -0.1006 -0.1900 -0.7892
 3385TIP3   OH234349   6.563   3.486  19.448  0.3446  0.7929  0.3884
 3385TIP3    H134350   6.649   3.448  19.428  0.0015 -0.2978  0.8777
 3385TIP3    H234351   6.583   3.568  19.493  1.1630  0.0457  1.4454
 3386TIP3   OH234352   7.445   5.222  16.418  0.4366  0.1780 -0.4585
 3386TIP3    H134353   7.470   5.130  16.419  2.0947  0.5990 -0.2755
 3386TIP3    H234354   7.467   5.254  16.506 -0.4959  0.6598 -0.3880
 3387TIP3   OH234355   2.427   3.449  17.856 -0.2193  0.7036 -0.3339
 3387TIP3    H134356   2.337   3.459  17.888 -0.3823  0.5110 -0.7376
 3387TIP3    H234357   2.444   3.529  17.807 -0.1353  0.7820 -0.1789
 3388TIP3   OH234358   4.627   1.583  18.295 -0.3458 -0.1262 -0.3887
 3388TIP3    H134359   4.617   1.514  18.229 -0.3416  1.4023 -2.0518
 3388TIP3    H234360   4.721   1.599  18.299 -0.4524  0.6630 -0.9574
 3389TIP3   OH234361   3.761   0.193  19.112 -0.3557 -0.0477  0.0840
 3389TIP3    H134362   3.743   0.283  19.085 -3.3032 -0.1976  1.2181
 3389TIP3    H234363   3.760   0.143  19.031  2.9091  1.0338 -0.7762
 3390TIP3   OH234364   1.959   6.308  19.024  0.0923  0.0670 -0.0697
 3390TIP3    H134365   1.924   6.235  19.075  0.2651 -0.3847 -0.5860
 3390TIP3    H234366   1.981   6.270  18.939 -0.3360  0.8386 -0.5412
 3391TIP3   OH234367   7.039   4.390  18.226 -0.3710  0.0273  0.4554
 3391TIP3    H134368   7.037   4.427  18.137 -1.0401 -1.8171 -0.3538
 3391TIP3    H234369   7.113   4.432  18.268  0.2411  0.6222 -1.1536
 3392TIP3   OH234370   4.248   6.531  18.944  0.1002  0.8095 -0.5423
 3392TIP3    H134371   4.337   6.499  18.958 -1.6435 -5.7012 -1.3684
 3392TIP3    H234372   4.251   6.573  18.857  2.2714  0.4088 -0.7185
 3393TIP3   OH234373   1.311   1.600  17.484 -0.2780 -0.0844 -0.1034
 3393TIP3    H134374   1.246   1.548  17.437 -1.6141 -1.3191  2.8732
 3393TIP3    H234375   1.260   1.667  17.529  0.5368 -0.5944  1.6624
 3394TIP3   OH234376   0.688   6.629  18.146  0.3978 -0.6272 -0.2199
 3394TIP3    H134377   0.780   6.653  18.149  0.0789  0.4993  1.6669
 3394TIP3    H234378   0.689   6.538  18.114  2.1826 -0.8240  0.2622
 3395TIP3   OH234379   3.400   1.860  17.728  0.1877  0.6976  0.7125
 3395TIP3    H134380   3.399   1.771  17.764  1.1468 -0.3250 -1.5940
 3395TIP3    H234381   3.492   1.878  17.711 -0.0692  1.8642  0.4825
 3396TIP3   OH234382   6.582   7.644  19.372 -0.2460  0.2605  0.6514
 3396TIP3    H134383   6.603   7.566  19.423  0.3717  0.3213  0.5001
 3396TIP3    H234384   6.532   7.611  19.298  0.4967 -0.0813  0.2834
 3397TIP3   OH234385   0.762   3.829  18.752  0.7403 -0.3600 -0.4383
 3397TIP3    H134386   0.795   3.867  18.834  1.6188  1.2363 -1.4802
 3397TIP3    H234387   0.684   3.881  18.732  0.4174 -0.8747 -0.5228
 3398TIP3   OH234388   2.972   2.013  17.357 -0.3482  0.5922  0.4540
 3398TIP3    H134389   2.960   2.040  17.266  0.7212 -1.2649 -0.2951
 3398TIP3    H234390   2.950   2.091  17.409  1.6285  2.5793 -1.4789
 3399TIP3   OH234391   7.293   1.641  17.460 -0.1464 -0.4167 -0.1447
 3399TIP3    H134392   7.240   1.643  17.380  1.0164  0.0562 -0.9395
 3399TIP3    H234393   7.292   1.550  17.488 -2.6191 -0.1899  0.7537
 3400TIP3   OH234394   5.034   7.233  19.428 -0.0432  0.4081  0.2991
 3400TIP3    H134395   5.026   7.152  19.477  0.5888 -0.1155 -0.4342
 3400TIP3    H234396   4.944   7.265  19.419 -0.8823 -2.2335 -2.7133
 3401TIP3   OH234397   1.890   1.625  16.994 -0.7090  0.5061  0.4811
 3401TIP3    H134398   1.883   1.533  16.972 -1.6165  0.8787 -0.9439
 3401TIP3    H234399   1.983   1.645  16.989 -0.5241 -0.3035  0.6939
 3402TIP3   OH234400   4.646   5.290  18.151  0.0842 -0.2045  0.0881
 3402TIP3    H134401   4.622   5.249  18.235 -0.9303 -1.5558 -0.8258
 3402TIP3    H234402   4.709   5.358  18.176  0.4343 -1.0985  1.8734
 3403TIP3   OH234403   4.541   5.287  16.620 -0.2425 -0.2880  0.4180
 3403TIP3    H134404   4.501   5.219  16.566 -2.0562  0.2995  0.9635
 3403TIP3    H234405   4.547   5.363  16.561 -1.4811  0.1102  0.7744
 3404TIP3   OH234406   5.078   7.121  16.887 -0.5086 -0.1353  0.3639
 3404TIP3    H134407   5.073   7.026  16.879 -0.4751 -0.0733 -0.4677
 3404TIP3    H234408   5.167   7.143  16.861 -0.5044  0.1192  0.5941
 3405TIP3   OH234409   5.477   0.889  18.066  0.2170 -0.1099  0.4934
 3405TIP3    H134410   5.454   0.847  17.983 -0.0337  0.0476  0.4834
 3405TIP3    H234411   5.564   0.927  18.050 -0.3318  0.9430 -0.0800
 3406TIP3   OH234412   0.292   0.966  17.958  0.5387  0.0610 -0.1745
 3406TIP3    H134413   0.269   0.951  18.050  0.4697  0.1845 -0.1711
 3406TIP3    H234414   0.236   1.039  17.931 -0.3075 -0.7504 -0.6562
 3407TIP3   OH234415   5.755   2.837  18.896 -0.0818  0.2287 -0.2671
 3407TIP3    H134416   5.663   2.825  18.918  0.1666 -1.0651  0.1287
 3407TIP3    H234417   5.786   2.904  18.957 -0.4112 -0.3823  0.5871
 3408TIP3   OH234418   7.492   4.792  18.665 -0.5852  0.0926 -0.1974
 3408TIP3    H134419   7.473   4.829  18.751  0.9330  0.5477 -0.0351
 3408TIP3    H234420   7.491   4.697  18.679 -0.7637  0.1537  0.2147
 3409TIP3   OH234421   0.157   6.404  17.392  0.1914 -0.7858 -0.0970
 3409TIP3    H134422   0.209   6.348  17.450 -1.0766 -0.2201  1.6799
 3409TIP3    H234423   0.187   6.493  17.411  0.7166 -0.6655 -1.3619
 3410TIP3   OH234424   7.545   3.163  16.565  0.5266 -0.4003  0.3992
 3410TIP3    H134425   7.452   3.144  16.553  0.3506 -0.0886  1.2210
 3410TIP3    H234426   7.579   3.087  16.611  0.0871  0.6301  2.5472
 3411TIP3   OH234427   5.326   6.880  17.702  0.1236 -0.0210 -0.6483
 3411TIP3    H134428   5.362   6.807  17.652 -2.0733 -0.0128 -2.3971
 3411TIP3    H234429   5.268   6.926  17.641 -0.3604  1.8194  1.0655
 3412TIP3   OH234430   7.304   6.730  17.911  0.0816 -1.0529 -0.0564
 3412TIP3    H134431   7.288   6.824  17.899  2.0735 -0.4922  1.1618
 3412TIP3    H234432   7.232   6.700  17.966  0.2357  0.1362  0.8306
 3413TIP3   OH234433   2.034   0.973  19.124 -0.2717 -0.2403 -0.3138
 3413TIP3    H134434   1.963   0.931  19.173  0.2516 -2.3232 -1.2028
 3413TIP3    H234435   1.989   1.024  19.056 -0.9348  0.7197  0.8092
 3414TIP3   OH234436   7.153   2.675  18.838 -0.2543  0.2013 -0.0370
 3414TIP3    H134437   7.078   2.734  18.825 -0.9204 -0.5243  0.4366
 3414TIP3    H234438   7.153   2.619  18.760 -1.6733 -1.3577  1.0173
 3415TIP3   OH234439   0.618   2.383  17.547 -0.1006 -0.5444 -0.0332
 3415TIP3    H134440   0.605   2.430  17.465 -4.1085  0.7233  1.0906
 3415TIP3    H234441   0.590   2.294  17.529  0.2465 -0.6023 -0.3046
 3416TIP3   OH234442   0.055   7.260  17.904  1.1300 -0.6195 -0.6692
 3416TIP3    H134443   0.101   7.185  17.943  0.8218 -1.6570 -2.2166
 3416TIP3    H234444   0.124   7.325  17.889  1.8820 -1.6135 -1.6722
 3417TIP3   OH234445   2.298   3.146  18.171 -0.0980 -0.1527 -0.0425
 3417TIP3    H134446   2.214   3.190  18.183 -0.5521 -0.9028 -0.3507
 3417TIP3    H234447   2.284   3.058  18.206  0.2413 -0.6025 -1.0011
 3418TIP3   OH234448   3.764   7.603  18.938 -0.8909 -0.3946  0.1600
 3418TIP3    H134449   3.836   7.603  18.875 -0.4904  1.2554  0.5700
 3418TIP3    H234450   3.695   7.653  18.895 -1.5324 -1.2971  0.0938
 3419TIP3   OH234451   6.210   0.511  17.126 -0.1321  0.0033  0.3630
 3419TIP3    H134452   6.303   0.490  17.118  0.1578  1.4274 -0.5074
 3419TIP3    H234453   6.166   0.443  17.075  0.0463 -2.7995  3.6116
 3420TIP3   OH234454   3.699   4.915  17.846 -0.1025 -0.0295  0.4330
 3420TIP3    H134455   3.758   4.851  17.805 -0.1299  0.6703 -0.7664
 3420TIP3    H234456   3.746   4.998  17.840 -0.0095  0.0565  2.1008
 3421TIP3   OH234457   2.738   1.262  17.424  0.2535  0.2026 -0.0440
 3421TIP3    H134458   2.748   1.191  17.487  0.6428  0.1605 -0.1520
 3421TIP3    H234459   2.656   1.305  17.449 -1.6640 -2.1715 -1.8376
 3422TIP3   OH234460   2.038   4.726  17.936 -0.1823 -0.1217 -0.0930
 3422TIP3    H134461   1.944   4.712  17.951 -0.7672  3.2019  0.1314
 3422TIP3    H234462   2.067   4.647  17.890 -3.5161 -0.5008 -1.8628
 3423TIP3   OH234463   7.534   5.283  16.704 -0.0330  0.2338 -0.6908
 3423TIP3    H134464   7.579   5.366  16.690 -1.1192  0.8963 -0.3866
 3423TIP3    H234465   7.569   5.250  16.787 -0.6141  1.1033 -0.0836
 3424TIP3   OH234466   6.253   0.219  17.509 -0.1071 -0.3815 -0.1991
 3424TIP3    H134467   6.269   0.198  17.601  0.4949  1.2930  0.1106
 3424TIP3    H234468   6.337   0.203  17.466  0.0114  0.1872 -0.1864
 3425TIP3   OH234469   0.070   5.435  17.718 -0.1481 -0.2018  0.6092
 3425TIP3    H134470  -0.025   5.445  17.726 -0.0303  1.9657 -0.0917
 3425TIP3    H234471   0.104   5.523  17.733  1.6703 -0.7036 -0.3700
 3426TIP3   OH234472   0.814   4.396  19.311 -0.1120  0.1561 -1.1841
 3426TIP3    H134473   0.821   4.448  19.390 -2.2552  1.9266 -2.0474
 3426TIP3    H234474   0.839   4.455  19.240  1.6245 -1.3462 -1.8954
 3427TIP3   OH234475   2.199   2.608  17.403 -0.4413 -0.0562 -0.1949
 3427TIP3    H134476   2.169   2.693  17.372 -2.1877  0.2494  2.0729
 3427TIP3    H234477   2.288   2.600  17.369 -1.0337  1.6358 -2.3323
 3428TIP3   OH234478   2.312   2.901  17.901  0.5985  0.4435  0.0423
 3428TIP3    H134479   2.299   2.995  17.911  1.7890  0.7515 -1.0434
 3428TIP3    H234480   2.269   2.880  17.818 -0.4989 -0.1645  0.7500
 3429TIP3   OH234481   3.367   0.870  17.141 -0.2675  0.0387 -0.4658
 3429TIP3    H134482   3.350   0.781  17.171  0.3760 -0.7098 -2.2055
 3429TIP3    H234483   3.348   0.868  17.048 -2.2135  2.2782 -0.2069
 3430TIP3   OH234484   2.871   0.825  18.380 -0.2114 -0.4754  0.8533
 3430TIP3    H134485   2.908   0.906  18.415 -0.9539 -0.5217  1.8153
 3430TIP3    H234486   2.945   0.778  18.342  0.2999  0.4504  0.6834
 3431TIP3   OH234487   2.734   7.392  19.207  0.1819 -0.5333  0.8374
 3431TIP3    H134488   2.649   7.413  19.169  1.1242  0.3097 -0.8959
 3431TIP3    H234489   2.729   7.297  19.223 -0.2318 -1.0101 -1.6292
 3432TIP3   OH234490   6.982   0.875  16.975 -0.2038  0.1184 -0.1776
 3432TIP3    H134491   6.920   0.927  16.925  0.2071  2.2613  1.3981
 3432TIP3    H234492   6.928   0.808  17.018 -1.3403  1.3785  0.4356
 3433TIP3   OH234493   7.055   3.699  16.784  0.6276 -0.4315 -0.4817
 3433TIP3    H134494   7.013   3.644  16.717  0.0097  1.4915 -1.7503
 3433TIP3    H234495   7.003   3.684  16.863 -0.4930 -0.5041 -1.2043
 3434TIP3   OH234496   3.441   3.183  19.152  0.3242 -0.0550 -0.3800
 3434TIP3    H134497   3.471   3.272  19.172 -2.3107  0.5751  1.2386
 3434TIP3    H234498   3.345   3.190  19.152  0.0571 -2.7113 -1.2501
 3435TIP3   OH234499   3.870   2.154  18.277 -0.2167 -0.2313 -0.1863
 3435TIP3    H134500   3.831   2.239  18.295 -0.6102 -0.5507  0.5353
 3435TIP3    H234501   3.953   2.156  18.325 -1.0579 -0.9113  1.4033
 3436TIP3   OH234502   2.477   3.010  17.526 -0.1859  0.2454  0.2842
 3436TIP3    H134503   2.495   3.008  17.620 -1.3300 -1.0780  0.5034
 3436TIP3    H234504   2.438   3.096  17.511  1.2020  0.9956  0.7550
 3437TIP3   OH234505   7.309   0.190  17.556 -0.2782  0.3769  0.1835
 3437TIP3    H134506   7.284   0.111  17.603  0.1562 -0.8702 -1.5593
 3437TIP3    H234507   7.269   0.262  17.605 -1.7145 -1.0159  1.1395
 3438TIP3   OH234508   0.747   6.244  18.310  0.2175 -0.1737  0.9319
 3438TIP3    H134509   0.815   6.310  18.294 -0.9824  0.6115 -1.3128
 3438TIP3    H234510   0.796   6.164  18.329  1.9484 -0.0571 -2.2727
 3439TIP3   OH234511   4.892   4.502  17.404 -0.2649 -0.0279 -0.0843
 3439TIP3    H134512   4.975   4.478  17.446 -0.3418 -1.4871 -0.7058
 3439TIP3    H234513   4.852   4.418  17.381 -2.6683  0.5886  1.5675
 3440TIP3   OH234514   7.188   1.275  17.750 -0.2575 -0.5545  0.6698
 3440TIP3    H134515   7.121   1.343  17.760 -0.1984 -0.1519 -1.3085
 3440TIP3    H234516   7.139   1.197  17.724 -0.0196 -0.3742 -0.3486
 3441TIP3   OH234517   3.846   6.392  16.707  0.1554 -0.9667  0.5048
 3441TIP3    H134518   3.885   6.315  16.665  0.5662 -0.8931  0.7424
 3441TIP3    H234519   3.886   6.467  16.664 -1.2948 -0.8490 -0.7157
 3442TIP3   OH234520   0.570   4.310  19.217 -0.3096 -0.2957 -0.8623
 3442TIP3    H134521   0.511   4.351  19.280 -0.4425  0.4420 -1.4455
 3442TIP3    H234522   0.653   4.300  19.264 -0.9310 -1.4759  0.0114
 3443TIP3   OH234523   1.342   1.296  17.220 -0.4317  0.1741  0.4061
 3443TIP3    H134524   1.350   1.268  17.129  0.2150  1.4607  0.0374
 3443TIP3    H234525   1.271   1.360  17.219  1.8511  2.9125  0.0410
 3444TIP3   OH234526   1.933   4.373  17.869 -0.3584  0.4462  0.3074
 3444TIP3    H134527   1.921   4.467  17.860  2.5122  0.8066 -0.9616
 3444TIP3    H234528   1.859   4.334  17.822 -0.8443  2.0681 -0.3120
 3445TIP3   OH234529   5.431   4.846  17.868 -0.5620 -0.0155 -0.8927
 3445TIP3    H134530   5.370   4.874  17.937  0.7272  0.8856 -0.0520
 3445TIP3    H234531   5.487   4.923  17.853  1.2375 -1.1949 -0.6250
 3446TIP3   OH234532   6.703   6.878  18.809 -0.0199 -0.3179 -0.1162
 3446TIP3    H134533   6.758   6.945  18.849  0.0042 -0.9577  0.9391
 3446TIP3    H234534   6.619   6.922  18.792  0.8177  0.7197 -1.9024
 3447TIP3   OH234535   3.827   5.724  18.006  0.2904 -0.0899  0.2950
 3447TIP3    H134536   3.784   5.772  17.935  1.5838  2.1135  0.8793
 3447TIP3    H234537   3.765   5.730  18.079 -1.4197 -3.0913 -0.7629
 3448TIP3   OH234538   6.904   0.719  19.582  0.1529  0.2951 -0.0726
 3448TIP3    H134539   6.995   0.748  19.590 -0.0433  0.6750  0.9122
 3448TIP3    H234540   6.853   0.800  19.587 -0.2144  0.1783 -1.4972
 3449TIP3   OH234541   1.653   5.154  17.348  0.3113  0.3983  0.2161
 3449TIP3    H134542   1.691   5.188  17.430  1.4742 -0.2049 -0.0542
 3449TIP3    H234543   1.658   5.059  17.357 -1.8734  0.2633  0.4815
 3450TIP3   OH234544   3.719   1.251  19.140  0.5393 -0.2631 -0.0327
 3450TIP3    H134545   3.632   1.234  19.103  0.6932 -1.6621  0.1722
 3450TIP3    H234546   3.701   1.275  19.231  0.3738 -1.0464  0.1528
 3451TIP3   OH234547   1.116   4.054  17.716  0.5121  0.0790  0.1190
 3451TIP3    H134548   1.094   4.120  17.782  1.0817 -2.2013  2.7669
 3451TIP3    H234549   1.097   4.097  17.633 -0.4338  3.0750  1.7187
 3452TIP3   OH234550   7.500   3.719  18.446  0.2900  0.0732 -0.3040
 3452TIP3    H134551   7.422   3.690  18.398 -0.5727  0.1092  1.0087
 3452TIP3    H234552   7.556   3.643  18.450 -0.2762 -0.3441 -0.1382
 3453TIP3   OH234553   5.723   3.138  18.207 -0.4334  0.7563  0.2185
 3453TIP3    H134554   5.756   3.215  18.253 -0.3177  1.0084 -0.2720
 3453TIP3    H234555   5.672   3.091  18.273 -0.6112  1.3198  0.4990
 3454TIP3   OH234556   6.480   7.036  18.771  0.5848 -0.1907  0.1971
 3454TIP3    H134557   6.403   7.093  18.759  0.5600 -0.3026 -0.1841
 3454TIP3    H234558   6.545   7.092  18.813 -0.1740 -0.4642  1.8022
 3455TIP3   OH234559   6.539   5.283  18.899  0.4537  0.1100 -0.5495
 3455TIP3    H134560   6.629   5.291  18.931  0.3019 -0.5144  0.0740
 3455TIP3    H234561   6.508   5.373  18.890 -0.1687  0.4084  3.0768
 3456TIP3   OH234562   1.452   3.678  19.141  0.9240 -0.5606  0.7742
 3456TIP3    H134563   1.395   3.627  19.084  0.2449  1.3399 -0.3194
 3456TIP3    H234564   1.424   3.656  19.230 -1.0680 -0.1812  0.2710
 3457TIP3   OH234565   2.758   3.113  17.176  0.4708 -0.0134 -0.3808
 3457TIP3    H134566   2.792   3.081  17.093  0.8788 -0.3172 -0.0994
 3457TIP3    H234567   2.663   3.108  17.167  0.5229 -0.7728 -0.5468
 3458TIP3   OH234568   2.537   5.044  16.670 -0.2044 -0.3810 -0.3502
 3458TIP3    H134569   2.443   5.060  16.667 -0.2474 -0.6834 -2.2630
 3458TIP3    H234570   2.546   4.949  16.659  0.3138 -0.3866  0.0840
 3459TIP3   OH234571   2.353   6.190  16.523 -0.4306 -0.7103 -0.0053
 3459TIP3    H134572   2.344   6.283  16.541 -2.0421 -0.8886  0.2737
 3459TIP3    H234573   2.431   6.164  16.571 -1.7347 -0.1152  2.6450
 3460TIP3   OH234574   7.596   3.186  18.149  0.3225 -0.2624  0.6454
 3460TIP3    H134575   7.665   3.252  18.158  0.5660 -0.3167 -0.5990
 3460TIP3    H234576   7.607   3.130  18.225  0.7168  0.5806  1.2311
 3461TIP3   OH234577   7.592   2.383  18.733 -0.3200 -0.7006 -0.1975
 3461TIP3    H134578   7.669   2.372  18.677  0.3696  0.4684  0.4813
 3461TIP3    H234579   7.607   2.323  18.806 -0.0434 -0.4624 -0.0573
 3462TIP3   OH234580   1.286   4.918  17.745  0.0259 -0.2213  0.4217
 3462TIP3    H134581   1.310   4.950  17.831 -1.7441 -0.8365  1.1980
 3462TIP3    H234582   1.301   4.991  17.686  1.2717  0.2025  1.2284
 3463TIP3   OH234583   4.939   5.149  18.098 -0.5756  0.3213 -0.8890
 3463TIP3    H134584   4.876   5.220  18.086 -0.2120  0.8690  0.2745
 3463TIP3    H234585   4.993   5.177  18.172 -0.0992 -0.9431 -0.7275
 3464TIP3   OH234586   3.949   1.734  18.484  0.3798 -0.1878  0.6658
 3464TIP3    H134587   4.035   1.775  18.479 -0.3612  1.2892 -0.9140
 3464TIP3    H234588   3.891   1.802  18.519 -0.6259 -0.2757 -0.7463
 3465TIP3   OH234589   3.367   6.885  18.549  0.0706  0.1982  0.1948
 3465TIP3    H134590   3.285   6.853  18.587  0.5281 -0.8494  0.3428
 3465TIP3    H234591   3.359   6.867  18.456 -0.7542  2.1181 -0.1609
 3466TIP3   OH234592   0.784   7.307  18.882  0.0400  0.2874  0.4508
 3466TIP3    H134593   0.810   7.291  18.792  1.1208  1.3295  0.5443
 3466TIP3    H234594   0.725   7.236  18.904  0.5944 -0.5635 -0.7435
 3467TIP3   OH234595   0.992   0.547  18.650  0.2515 -0.4098  0.0030
 3467TIP3    H134596   0.941   0.539  18.569 -1.0774  0.5134  0.7112
 3467TIP3    H234597   0.933   0.515  18.719  0.2855  1.4630  0.9605
 3468TIP3   OH234598   7.350   6.101  17.348  0.0686 -0.5036  0.0662
 3468TIP3    H134599   7.283   6.100  17.280  0.2420  1.4122 -0.1931
 3468TIP3    H234600   7.346   6.190  17.384  1.6853 -0.7069  0.8214
 3469TIP3   OH234601   1.344   2.505  18.240  0.1161 -0.1686  0.0538
 3469TIP3    H134602   1.334   2.594  18.275  0.9183 -0.4233  0.9600
 3469TIP3    H234603   1.386   2.518  18.155  0.7139  0.2992  0.4058
 3470TIP3   OH234604   7.487   4.868  18.936  0.0650 -0.0093  0.0436
 3470TIP3    H134605   7.479   4.825  19.021  4.6922 -2.4944 -0.4677
 3470TIP3    H234606   7.520   4.956  18.956  0.1775 -0.2260  0.8324
 3471TIP3   OH234607   4.575   7.449  16.637 -0.6697 -0.5011  0.0864
 3471TIP3    H134608   4.647   7.420  16.581 -0.0073  2.0023 -0.4924
 3471TIP3    H234609   4.589   7.403  16.720  2.1361  0.4479  0.2657
 3472TIP3   OH234610   7.265   3.468  17.860  0.4625  0.5095  0.6247
 3472TIP3    H134611   7.205   3.462  17.935  0.6817 -0.3142  0.7448
 3472TIP3    H234612   7.218   3.522  17.797 -0.1289  0.4243  0.9806
 3473TIP3   OH234613   7.524   3.143  16.913  0.3345  0.7465  0.0082
 3473TIP3    H134614   7.476   3.226  16.917  0.7123  0.9249  0.9275
 3473TIP3    H234615   7.569   3.146  16.829 -1.4949  0.4345 -1.0485
 3474TIP3   OH234616   4.172   1.137  18.878  0.0747 -0.5497  0.4339
 3474TIP3    H134617   4.250   1.148  18.824  0.4715 -1.8914  0.6966
 3474TIP3    H234618   4.099   1.159  18.820  0.6599  1.8584  0.5131
 3475TIP3   OH234619   1.633   6.582  17.719 -0.0653  0.5397 -0.5893
 3475TIP3    H134620   1.674   6.622  17.643  0.7493  2.0538  0.5921
 3475TIP3    H234621   1.642   6.647  17.789 -1.1459 -0.6244  0.7060
 3476TIP3   OH234622   0.773   2.738  19.133  0.0793 -0.2975  0.0611
 3476TIP3    H134623   0.758   2.830  19.110  2.5121 -0.3295 -2.0918
 3476TIP3    H234624   0.712   2.690  19.078 -1.7029 -0.0346  1.6989
 3477TIP3   OH234625   4.517   4.836  19.584 -0.0905  0.1008  0.1997
 3477TIP3    H134626   4.544   4.916  19.538 -0.3361  0.1896  0.2071
 3477TIP3    H234627   4.458   4.867  19.653  0.7100  0.0215  0.9346
 3478TIP3   OH234628   4.241   0.352  18.849 -0.2561 -0.0207  0.0303
 3478TIP3    H134629   4.183   0.428  18.864  1.6759  1.2925  1.3142
 3478TIP3    H234630   4.251   0.313  18.936  1.6318  0.4780  0.0756
 3479TIP3   OH234631   1.704   1.609  18.128  0.2217  0.4919 -0.4800
 3479TIP3    H134632   1.691   1.522  18.165  0.6445  0.2732 -0.8320
 3479TIP3    H234633   1.632   1.620  18.066 -0.7670  1.0541  0.7295
 3480TIP3   OH234634   5.487   3.633  18.970 -0.3602 -0.3563 -0.1368
 3480TIP3    H134635   5.513   3.549  18.933  3.2028  1.2348 -1.7016
 3480TIP3    H234636   5.429   3.671  18.904 -1.8891 -1.4379  0.5237
 3481TIP3   OH234637   2.502   0.826  18.634  0.5970  0.1680 -0.9702
 3481TIP3    H134638   2.580   0.871  18.601  0.4483  0.1188 -1.3961
 3481TIP3    H234639   2.433   0.892  18.631  0.6201  0.2095 -0.6003
 3482TIP3   OH234640   4.861   5.435  19.277 -0.1104  0.5125  0.3714
 3482TIP3    H134641   4.803   5.469  19.345 -0.2193 -0.7032  0.9139
 3482TIP3    H234642   4.814   5.359  19.242  0.9429 -0.2238  0.5136
 3483TIP3   OH234643   2.393   4.015  16.735  0.5265 -0.3003 -0.1410
 3483TIP3    H134644   2.364   4.064  16.812 -0.2647 -1.6511  0.4476
 3483TIP3    H234645   2.489   4.025  16.736  0.4423  0.6139  0.3681
 3484TIP3   OH234646   0.094   5.780  18.521 -0.0799 -0.3780 -0.1698
 3484TIP3    H134647   0.014   5.830  18.502 -1.1414 -1.8325  0.2768
 3484TIP3    H234648   0.149   5.840  18.571 -1.2856  0.3559  0.3153
 3485TIP3   OH234649   7.410   0.258  18.772  0.1893  0.0314  0.1379
 3485TIP3    H134650   7.406   0.238  18.865  0.1638  0.1526  0.1614
 3485TIP3    H234651   7.495   0.223  18.744  1.5575  2.5611  0.8077
 3486TIP3   OH234652   6.849   4.407  16.929  0.7354 -0.8916 -0.0261
 3486TIP3    H134653   6.919   4.439  16.871  0.8611 -0.0476  0.5690
 3486TIP3    H234654   6.843   4.473  16.997  0.2436 -1.6285  0.6577
 3487TIP3   OH234655   3.130   1.252  18.607 -0.0653  0.0087  0.1879
 3487TIP3    H134656   3.078   1.302  18.543  0.9958 -0.2198 -0.8791
 3487TIP3    H234657   3.150   1.316  18.675  0.3095  0.7675 -0.6059
 3488TIP3   OH234658   0.363   3.213  18.683  0.2321 -0.4865 -0.2466
 3488TIP3    H134659   0.448   3.218  18.727 -0.0914 -1.6908  0.5733
 3488TIP3    H234660   0.335   3.122  18.695 -0.9888 -0.2181 -0.8611
 3489TIP3   OH234661   3.919   6.945  18.207 -0.7547 -0.4095  0.1995
 3489TIP3    H134662   3.833   6.986  18.218 -0.3241  0.8560 -0.8342
 3489TIP3    H234663   3.973   7.014  18.169  0.7359 -1.1794  0.8356
 3490TIP3   OH234664   2.364   6.863  17.864  0.1566 -0.4149  0.5794
 3490TIP3    H134665   2.450   6.823  17.848 -0.0738 -0.6881 -0.0005
 3490TIP3    H234666   2.384   6.953  17.887  0.5880 -0.3627  0.0322
 3491TIP3   OH234667   3.044   5.556  17.797 -0.2463  0.0757 -1.0747
 3491TIP3    H134668   3.116   5.494  17.806  1.2118  1.5034 -2.1986
 3491TIP3    H234669   2.997   5.550  17.880  1.8512 -0.1465  0.1908
 3492TIP3   OH234670   3.782   1.766  19.408 -0.3682  0.1291  0.4243
 3492TIP3    H134671   3.696   1.806  19.394 -0.5941 -0.1175  1.0653
 3492TIP3    H234672   3.842   1.819  19.356 -1.1182 -0.6159 -1.2638
 3493TIP3   OH234673   4.229   6.874  17.514  0.4683  0.1828  0.3075
 3493TIP3    H134674   4.234   6.780  17.529 -0.9787 -0.4009 -2.2604
 3493TIP3    H234675   4.147   6.900  17.556 -1.2848 -0.5933 -2.3913
 3494TIP3   OH234676   3.787   1.481  18.207 -0.2019 -0.7667 -0.4699
 3494TIP3    H134677   3.785   1.574  18.185 -1.4757 -0.9579 -1.2225
 3494TIP3    H234678   3.704   1.464  18.250  0.0095 -1.5745 -0.3603
 3495TIP3   OH234679   1.766   3.903  17.143  0.4598  0.0462  0.0449
 3495TIP3    H134680   1.805   3.825  17.104  2.7153  0.9542  0.3445
 3495TIP3    H234681   1.722   3.872  17.222  2.8141 -0.7718  1.1283
 3496TIP3   OH234682   1.916   4.443  16.537  0.0136  0.3614  0.4262
 3496TIP3    H134683   1.857   4.504  16.582 -0.9058 -0.1153 -0.1033
 3496TIP3    H234684   1.859   4.372  16.507  0.8667 -0.1252 -0.0858
 3497TIP3   OH234685   1.596   6.155  18.425 -0.1308 -0.5713 -0.3970
 3497TIP3    H134686   1.656   6.209  18.373 -1.5968  2.1322  0.5186
 3497TIP3    H234687   1.535   6.119  18.361 -0.5909  0.9087 -0.8248
 3498TIP3   OH234688   6.373   2.902  17.287  0.1212  0.1818  0.6163
 3498TIP3    H134689   6.408   2.990  17.277  0.0971  0.0379 -0.9748
 3498TIP3    H234690   6.293   2.914  17.338 -0.0998  1.1435  0.0651
 3499TIP3   OH234691   6.377   1.613  19.343  0.5798  0.3483 -0.0414
 3499TIP3    H134692   6.417   1.594  19.257 -1.6747 -2.1156 -0.7076
 3499TIP3    H234693   6.429   1.561  19.405  0.6464  0.0635 -0.3294
 3500TIP3   OH234694   3.935   4.192  18.065  0.5092 -0.4945  0.0101
 3500TIP3    H134695   3.924   4.132  18.139  1.6858 -1.4184 -0.5206
 3500TIP3    H234696   3.868   4.165  18.003  0.5915 -0.8295  0.0583
 3501TIP3   OH234697   6.670   6.700  19.050  0.9391 -0.2750  0.6079
 3501TIP3    H134698   6.586   6.710  19.093  0.0986 -2.3130 -0.4039
 3501TIP3    H234699   6.656   6.736  18.962  0.3013 -2.7320 -0.3782
 3502TIP3   OH234700   0.068   1.633  18.510 -0.1467  0.1456  0.3093
 3502TIP3    H134701   0.108   1.716  18.533  0.0944  0.6161 -1.6844
 3502TIP3    H234702   0.141   1.578  18.480 -0.6505  0.2547 -1.2131
 3503TIP3   OH234703   6.417   3.792  18.123  0.3918  0.4642 -0.1686
 3503TIP3    H134704   6.357   3.760  18.190  0.3621 -1.5831 -1.1042
 3503TIP3    H234705   6.456   3.871  18.161 -0.3982 -0.0489  1.8074
 3504TIP3   OH234706   4.450   3.989  16.815  0.4906  0.0717  0.4450
 3504TIP3    H134707   4.472   3.947  16.898  2.0695  0.2071  0.1278
 3504TIP3    H234708   4.485   4.078  16.824  0.4223  0.1714 -0.2552
 3505TIP3   OH234709   7.437   4.882  19.208  0.1718  0.4771  0.0607
 3505TIP3    H134710   7.377   4.873  19.282  0.1429  1.0078  0.1059
 3505TIP3    H234711   7.503   4.814  19.223  0.8232  1.3242  1.2158
 3506TIP3   OH234712   6.306   5.202  17.084  0.2185 -0.7982 -0.1408
 3506TIP3    H134713   6.213   5.224  17.093  0.5797  0.3633  1.2283
 3506TIP3    H234714   6.337   5.259  17.014 -0.0999 -1.2029 -0.6143
 3507TIP3   OH234715   4.027   2.342  16.701 -0.1228  0.1859  0.1393
 3507TIP3    H134716   4.026   2.279  16.629  0.7531 -0.1835  0.4332
 3507TIP3    H234717   4.108   2.323  16.748  0.3004  1.7150  0.0687
 3508TIP3   OH234718   6.614   1.704  18.810 -0.3813  0.4358  0.3376
 3508TIP3    H134719   6.663   1.650  18.872  0.2640  0.1281 -0.4285
 3508TIP3    H234720   6.570   1.641  18.753 -0.8141  0.7210  0.3542
 3509TIP3   OH234721   4.593   6.350  18.368  0.0691  0.0172  0.0462
 3509TIP3    H134722   4.563   6.419  18.427  0.4145  0.3332 -0.1481
 3509TIP3    H234723   4.648   6.394  18.304 -1.5093 -0.0679 -1.4390
 3510TIP3   OH234724   4.503   0.876  18.947  0.2521 -0.0358 -0.1273
 3510TIP3    H134725   4.437   0.891  18.880  0.4963  0.9596 -0.1517
 3510TIP3    H234726   4.579   0.842  18.899  0.3226  0.3909 -0.3248
 3511TIP3   OH234727   0.496   2.951  17.680  0.1056 -0.3111  0.3053
 3511TIP3    H134728   0.508   2.885  17.748 -0.6328  0.2474  0.9900
 3511TIP3    H234729   0.469   2.901  17.603 -1.3931 -0.7567  1.0719
 3512TIP3   OH234730   4.627   5.731  18.548 -0.1804 -0.5189 -0.0925
 3512TIP3    H134731   4.685   5.702  18.620 -1.2287 -0.2743  0.8810
 3512TIP3    H234732   4.675   5.803  18.507  0.1368 -0.1687  0.8408
 3513TIP3   OH234733   4.665   4.901  17.969  0.7407  0.2607  0.1059
 3513TIP3    H134734   4.761   4.897  17.971  0.8571  1.6267  3.3862
 3513TIP3    H234735   4.638   4.839  18.037 -0.7236 -0.0104 -0.6964
 3514TIP3   OH234736   4.375   3.158  18.295 -0.0761 -0.2906  0.0484
 3514TIP3    H134737   4.333   3.211  18.363  0.6921  1.4958 -0.7956
 3514TIP3    H234738   4.345   3.197  18.213  0.6217 -1.0949 -0.6048
 3515TIP3   OH234739   6.739   1.128  18.482 -0.6812 -0.1459 -0.0196
 3515TIP3    H134740   6.719   1.085  18.399 -2.1878 -0.0008  0.2368
 3515TIP3    H234741   6.660   1.117  18.534  0.9829 -2.2537  2.2909
 3516TIP3   OH234742   2.029   7.124  17.311 -0.1569 -0.1990  0.0677
 3516TIP3    H134743   1.996   7.210  17.334 -1.4374 -0.7601  0.3867
 3516TIP3    H234744   1.952   7.068  17.308  0.5320 -1.1487 -1.0410
 3517TIP3   OH234745   7.667   2.574  17.623  0.2917 -0.7558 -0.4245
 3517TIP3    H134746   7.654   2.523  17.543  0.7509 -0.7461 -0.5085
 3517TIP3    H234747   7.676   2.508  17.692 -1.5084 -0.7552 -0.1391
 3518TIP3   OH234748   5.585   3.815  19.253 -0.3651 -0.4912 -0.5254
 3518TIP3    H134749   5.592   3.906  19.223 -0.2564 -0.4577 -0.3975
 3518TIP3    H234750   5.495   3.790  19.231 -1.6641  0.8318  2.6986
 3519TIP3   OH234751   2.653   0.290  18.208 -0.9132  0.3748 -0.1136
 3519TIP3    H134752   2.650   0.279  18.303 -1.9227  1.8172  0.0583
 3519TIP3    H234753   2.745   0.309  18.189 -0.6768 -0.0662  0.5400
 3520TIP3   OH234754   6.114   7.513  17.929 -0.0453 -0.4043  0.0213
 3520TIP3    H134755   6.020   7.528  17.931  0.1346  0.8036  1.2778
 3520TIP3    H234756   6.140   7.530  17.839 -0.9186  0.0303 -0.1570
 3521TIP3   OH234757   1.515   2.710  17.385  0.0285 -0.5138 -0.8159
 3521TIP3    H134758   1.517   2.624  17.428 -0.6610 -0.2280 -0.1893
 3521TIP3    H234759   1.423   2.723  17.362 -0.2259  0.8733  0.8137
 3522TIP3   OH234760   7.185   0.214  18.611  0.0147  0.0217 -0.3601
 3522TIP3    H134761   7.274   0.230  18.644  0.7306  2.4743 -3.0627
 3522TIP3    H234762   7.128   0.262  18.672  0.9222  1.2551 -0.4301
 3523TIP3   OH234763   0.326   6.317  17.004  0.3052  0.2885  0.1944
 3523TIP3    H134764   0.376   6.328  16.923  1.0597  1.5354  0.7829
 3523TIP3    H234765   0.346   6.228  17.033  0.4252  0.0057 -0.7259
 3524TIP3   OH234766   7.134   4.906  18.744 -0.0017 -0.3675  0.1414
 3524TIP3    H134767   7.124   4.811  18.744  1.9357 -0.6199 -0.9390
 3524TIP3    H234768   7.090   4.936  18.664  2.0978 -0.7672 -1.2411
 3525TIP3   OH234769   0.203   5.242  16.912  0.0167 -0.1859  0.3723
 3525TIP3    H134770   0.265   5.205  16.849 -0.6155  0.8390 -0.9127
 3525TIP3    H234771   0.194   5.333  16.886 -1.2246 -0.0481  1.1835
 3526TIP3   OH234772   3.290   6.616  19.117 -0.3069  0.0658  0.1591
 3526TIP3    H134773   3.206   6.616  19.070 -1.4150 -0.2368  2.0572
 3526TIP3    H234774   3.268   6.642  19.206  1.3883 -1.4003  1.0788
 3527TIP3   OH234775   2.346   2.755  17.636  0.1856  0.0897  0.0243
 3527TIP3    H134776   2.411   2.699  17.594  0.0202  0.7266 -1.1140
 3527TIP3    H234777   2.287   2.782  17.565  0.5775  2.1341  0.4082
 3528TIP3   OH234778   2.930   6.718  18.161  0.0872  0.1741 -0.2870
 3528TIP3    H134779   2.970   6.634  18.185  0.0866 -0.4407 -2.2205
 3528TIP3    H234780   2.990   6.755  18.096 -0.1954  1.4266  0.1403
 3529TIP3   OH234781   5.144   2.787  17.435 -0.7294  0.3765 -0.1894
 3529TIP3    H134782   5.211   2.746  17.490  0.5723  1.0613 -1.1907
 3529TIP3    H234783   5.085   2.830  17.496 -0.6174 -0.7728  0.7512
 3530TIP3   OH234784   1.809   7.480  17.458 -0.0417  0.0217 -0.0295
 3530TIP3    H134785   1.865   7.528  17.518 -0.9356  0.8251  0.1918
 3530TIP3    H234786   1.794   7.540  17.385 -0.3639 -0.2896 -0.2273
 3531TIP3   OH234787   5.463   1.154  16.875 -0.1895  0.1441  0.1159
 3531TIP3    H134788   5.442   1.210  16.948 -1.4277 -0.4934  0.2728
 3531TIP3    H234789   5.405   1.079  16.884  1.1011 -0.9663 -0.3315
 3532TIP3   OH234790   4.453   0.042  17.865  0.2425  0.2252  0.3963
 3532TIP3    H134791   4.521   0.005  17.922  0.3807  0.4478  0.3768
 3532TIP3    H234792   4.474   0.007  17.778 -0.1896 -0.4192  0.5418
 3533TIP3   OH234793   6.980   3.341  17.409  0.1763  0.5920 -0.4648
 3533TIP3    H134794   6.982   3.269  17.347 -0.4542  0.1284  0.0405
 3533TIP3    H234795   7.060   3.329  17.462  0.2320  0.4459 -0.5819
 3534TIP3   OH234796   0.964   0.232  18.707 -0.0590  0.8970 -0.0091
 3534TIP3    H134797   1.059   0.246  18.710 -0.4302  4.4014  2.6097
 3534TIP3    H234798   0.939   0.254  18.618  1.3641  2.6200 -0.0281
 3535TIP3   OH234799   5.153   7.666  19.215  0.6170  0.5507 -0.9010
 3535TIP3    H134800   5.078   7.704  19.260 -0.5423  0.6137 -2.8171
 3535TIP3    H234801   5.166   7.581  19.258  1.3750  1.7287  1.4059
 3536TIP3   OH234802   5.022   5.437  18.739 -0.0358  0.1478  0.0543
 3536TIP3    H134803   5.054   5.451  18.828  1.4213 -0.8711 -0.2640
 3536TIP3    H234804   5.101   5.427  18.686 -0.8478 -1.3746 -0.9806
 3537TIP3   OH234805   4.957   5.626  19.111 -0.7782  0.1647 -0.0270
 3537TIP3    H134806   4.867   5.648  19.086 -1.2246 -1.5747 -0.1215
 3537TIP3    H234807   4.947   5.548  19.166  0.7906 -1.1189 -1.4773
 3538TIP3   OH234808   4.314   6.394  18.065 -0.0900 -0.9565 -0.1235
 3538TIP3    H134809   4.281   6.475  18.103  1.5913 -0.1610 -0.2666
 3538TIP3    H234810   4.299   6.328  18.132  0.5222 -0.0757  0.9023
 3539TIP3   OH234811   6.265   3.144  19.530  0.1791  0.0138 -0.3136
 3539TIP3    H134812   6.279   3.206  19.602 -0.1759 -0.9008  0.5641
 3539TIP3    H234813   6.243   3.199  19.455 -0.4738  0.9391  0.5266
 3540TIP3   OH234814   7.064   6.221  17.637 -0.1116 -0.2155 -0.2354
 3540TIP3    H134815   7.036   6.309  17.664  0.8549 -0.4624  1.7014
 3540TIP3    H234816   6.996   6.192  17.576 -1.8329  0.8573  1.0891
 3541TIP3   OH234817   4.372   5.249  17.051 -0.6386 -0.0729 -0.0401
 3541TIP3    H134818   4.449   5.192  17.045 -0.0712  0.6977 -0.1675
 3541TIP3    H234819   4.317   5.221  16.977  0.6018  0.9279 -1.4118
 3542TIP3   OH234820   7.329   2.586  17.325  0.2179  1.0065  0.1978
 3542TIP3    H134821   7.351   2.570  17.417  2.1482 -1.8877 -0.6450
 3542TIP3    H234822   7.388   2.655  17.298  1.9776 -0.3611  0.3684
 3543TIP3   OH234823   0.583   7.259  18.441  0.0174 -0.2398 -0.3975
 3543TIP3    H134824   0.561   7.185  18.498 -0.7835  0.2689 -0.0235
 3543TIP3    H234825   0.522   7.250  18.367 -0.3331  0.2517 -0.1703
 3544TIP3   OH234826   0.190   2.742  17.699 -0.2679 -0.3296 -0.2629
 3544TIP3    H134827   0.223   2.778  17.617  0.6815 -1.0720 -0.2238
 3544TIP3    H234828   0.122   2.680  17.672 -0.5267  0.0291 -0.4378
 3545TIP3   OH234829   6.823   0.122  16.698 -0.4466  0.3321  0.0850
 3545TIP3    H134830   6.836   0.027  16.703 -1.7614  0.0580 -1.0461
 3545TIP3    H234831   6.912   0.158  16.701  0.1698 -1.0170 -0.7472
 3546TIP3   OH234832   1.224   1.148  16.998 -0.2322  0.1969 -0.2088
 3546TIP3    H134833   1.234   1.054  17.011  0.1493  0.3809  0.9811
 3546TIP3    H234834   1.131   1.165  17.012 -0.0452  0.2009  1.1334
 3547TIP3   OH234835   2.442   6.725  16.637 -0.5197 -0.0258  0.1111
 3547TIP3    H134836   2.439   6.801  16.578 -1.0430 -0.0039  0.1536
 3547TIP3    H234837   2.521   6.737  16.688 -0.4552  0.3545 -0.0712
 3548TIP3   OH234838   1.318   1.168  19.327 -0.7244 -0.4913 -0.0838
 3548TIP3    H134839   1.386   1.182  19.392 -0.7624 -1.4752  0.1960
 3548TIP3    H234840   1.250   1.232  19.348 -0.0117  0.3106 -0.1960
 3549TIP3   OH234841   3.208   6.337  16.690  0.0038 -0.0495 -0.4274
 3549TIP3    H134842   3.278   6.276  16.666 -0.0307 -0.7868  1.2549
 3549TIP3    H234843   3.246   6.424  16.674  1.2151 -0.4435  0.2098
 3550TIP3   OH234844   0.854   5.175  16.786 -0.3328 -0.1655 -0.4159
 3550TIP3    H134845   0.884   5.168  16.695  0.4169 -1.8100 -0.0776
 3550TIP3    H234846   0.885   5.095  16.828 -0.8772  0.4463  1.2464
 3551TIP3   OH234847   0.297   2.020  17.756 -0.1095 -0.5114  0.2306
 3551TIP3    H134848   0.299   1.933  17.795  1.5883 -0.1257  1.0981
 3551TIP3    H234849   0.272   2.078  17.827 -0.9349 -0.2425 -0.2687
 3552TIP3   OH234850   1.392   1.148  18.904 -0.2194  0.1878 -0.4396
 3552TIP3    H134851   1.403   1.092  18.826  1.2979  0.0402 -0.1499
 3552TIP3    H234852   1.464   1.211  18.898 -2.5374  2.9497 -1.3795
 3553TIP3   OH234853   5.159   5.925  18.332 -0.5521  0.2504  0.0001
 3553TIP3    H134854   5.249   5.892  18.333 -0.2210  1.1445  0.0843
 3553TIP3    H234855   5.153   5.976  18.251 -1.8500 -2.1072 -1.5000
 3554TIP3   OH234856   0.523   1.942  18.226 -0.1466 -0.6681 -0.1174
 3554TIP3    H134857   0.516   2.037  18.214  1.2514 -0.3183  1.3710
 3554TIP3    H234858   0.616   1.927  18.244 -0.8149 -1.7784  3.2348
 3555TIP3   OH234859   7.642   1.688  19.560  0.0545  0.3055 -0.3803
 3555TIP3    H134860   7.561   1.651  19.596  0.2693  2.9411  3.3119
 3555TIP3    H234861   7.709   1.622  19.580 -0.5710 -0.2380 -0.0348
 3556TIP3   OH234862   3.462   3.598  18.108 -0.1853  0.1006 -0.1351
 3556TIP3    H134863   3.478   3.691  18.091  1.2118 -0.2514 -0.9286
 3556TIP3    H234864   3.448   3.593  18.202  0.9661  0.9727  0.1088
 3557TIP3   OH234865   0.692   1.557  19.425  0.3639  0.8143  0.3481
 3557TIP3    H134866   0.721   1.628  19.482  1.3062  1.8630 -1.3599
 3557TIP3    H234867   0.732   1.576  19.341 -2.0809  0.0858 -1.0735
 3558TIP3   OH234868   3.376   0.448  17.386 -0.0199  0.4120 -0.1317
 3558TIP3    H134869   3.354   0.416  17.473  0.8933 -0.1557 -0.0964
 3558TIP3    H234870   3.397   0.369  17.335  0.3195  0.7997 -0.6073
 3559TIP3   OH234871   7.588   0.870  17.763 -0.3158 -0.1635 -0.0704
 3559TIP3    H134872   7.619   0.817  17.690  1.7029  1.6023 -0.5756
 3559TIP3    H234873   7.497   0.889  17.741 -0.7273 -2.2714 -0.4888
 3560TIP3   OH234874   4.682   5.711  19.087 -0.5215  0.1182  0.0130
 3560TIP3    H134875   4.618   5.780  19.068 -0.8124 -0.2884 -0.5177
 3560TIP3    H234876   4.688   5.709  19.182  0.0984  1.4264  0.0094
 3561TIP3   OH234877   1.812   0.674  18.903  0.1669 -0.2455 -0.1201
 3561TIP3    H134878   1.769   0.615  18.966  0.8675 -1.5371 -0.7970
 3561TIP3    H234879   1.904   0.672  18.928  0.0144  1.9095  0.8542
 3562TIP3   OH234880   6.793   4.045  18.172  0.1322 -0.5649  0.3272
 3562TIP3    H134881   6.829   3.963  18.138  0.1763 -0.5143  0.2515
 3562TIP3    H234882   6.845   4.062  18.251  1.8600  0.7049 -1.0067
 3563TIP3   OH234883   1.682   2.513  17.173 -0.4084 -0.7642  0.0830
 3563TIP3    H134884   1.671   2.556  17.088  1.7657 -0.7889 -0.2571
 3563TIP3    H234885   1.689   2.585  17.236 -2.8427 -0.7414  0.4471
 3564TIP3   OH234886   1.839   0.020  16.507  0.6287 -0.1985 -0.0446
 3564TIP3    H134887   1.911   0.029  16.444  0.5757 -2.4446 -0.4925
 3564TIP3    H234888   1.769   0.074  16.470  1.2051 -0.0669 -0.9776
 3565TIP3   OH234889   0.296   6.868  17.375  0.3357  0.7226 -0.1629
 3565TIP3    H134890   0.281   6.955  17.415 -1.8477 -0.2088  1.2454
 3565TIP3    H234891   0.210   6.842  17.343  0.9741 -0.9093 -0.6059
 3566TIP3   OH234892   2.814   0.845  17.396  0.1148  0.0549 -0.0285
 3566TIP3    H134893   2.748   0.854  17.466 -0.8135  2.5450 -1.0811
 3566TIP3    H234894   2.796   0.760  17.356 -0.0622 -0.9213  2.0074
 3567TIP3   OH234895   1.332   2.756  18.907 -0.1720 -0.0254  0.2148
 3567TIP3    H134896   1.257   2.814  18.895  0.8952  1.6993  1.3095
 3567TIP3    H234897   1.392   2.778  18.836 -0.4767 -1.0368 -0.3671
 3568TIP3   OH234898   5.081   2.835  18.135 -0.8425 -0.3587 -0.2094
 3568TIP3    H134899   5.068   2.910  18.077  1.9754  0.4877  0.0850
 3568TIP3    H234900   5.118   2.767  18.077  3.3284  0.9488  0.5815
 3569TIP3   OH234901   1.158   4.478  18.071 -0.7654  0.4125 -0.0267
 3569TIP3    H134902   1.242   4.513  18.042 -0.7063 -0.7239 -1.3516
 3569TIP3    H234903   1.108   4.554  18.099  0.3314  1.2171 -0.1864
 3570TIP3   OH234904   4.837   5.608  16.612  0.0882  0.2891  0.3483
 3570TIP3    H134905   4.914   5.580  16.563 -0.2709 -1.0248  0.4752
 3570TIP3    H234906   4.810   5.529  16.659 -1.5954  0.6026 -0.0452
 3571TIP3   OH234907   2.487   5.798  17.975 -0.2518  0.2126  0.1612
 3571TIP3    H134908   2.486   5.774  18.068 -0.4133  0.7764  0.3061
 3571TIP3    H234909   2.476   5.893  17.974 -0.7519  0.1546 -0.4537
 3572TIP3   OH234910   6.899   6.596  17.391 -0.0554  0.1607 -0.0824
 3572TIP3    H134911   6.924   6.649  17.316 -1.2512  1.1862  0.1971
 3572TIP3    H234912   6.872   6.512  17.354  1.1086  0.0055 -0.6113
 3573TIP3   OH234913   2.630   7.575  18.313  0.1809 -0.3943 -0.0088
 3573TIP3    H134914   2.545   7.548  18.279  0.2693 -0.3908 -0.2348
 3573TIP3    H234915   2.637   7.531  18.398  0.5312 -1.4952 -0.5781
 3574TIP3   OH234916   3.243   7.556  19.237 -0.4990  0.4608 -0.6509
 3574TIP3    H134917   3.277   7.601  19.160  1.3186 -1.4428 -1.0550
 3574TIP3    H234918   3.153   7.534  19.214 -0.0199  0.0029 -2.2528
 3575TIP3   OH234919   2.684   5.669  17.811 -0.1613 -0.0832  0.6470
 3575TIP3    H134920   2.607   5.716  17.844  0.1102  0.5226  0.4248
 3575TIP3    H234921   2.710   5.612  17.884  0.7388  1.6063  1.7061
 3576TIP3   OH234922   2.737   5.342  18.494  0.1989  0.5428  0.6547
 3576TIP3    H134923   2.685   5.293  18.431  0.2063 -0.9103  1.7314
 3576TIP3    H234924   2.672   5.391  18.545  0.1775  1.5295 -0.2826
 3577TIP3   OH234925   7.100   5.289  17.231  1.4520  0.2463 -0.1927
 3577TIP3    H134926   7.082   5.236  17.153  0.6280  0.1472  0.0574
 3577TIP3    H234927   7.119   5.225  17.300 -1.9959  0.0446  0.7649
 3578TIP3   OH234928   0.294   5.809  17.178  0.5870 -0.0113  0.5997
 3578TIP3    H134929   0.229   5.745  17.148  1.0327  0.3677 -1.2614
 3578TIP3    H234930   0.377   5.776  17.145  0.9133  1.1334  0.2521
 3579TIP3   OH234931   1.828   1.252  18.708  0.7845 -0.3254 -0.6676
 3579TIP3    H134932   1.820   1.228  18.616 -1.2738  1.6467 -1.1145
 3579TIP3    H234933   1.896   1.320  18.709 -0.2472  0.7499 -1.0385
 3580TIP3   OH234934   4.567   7.189  19.376  0.3265 -0.2229  0.0320
 3580TIP3    H134935   4.477   7.170  19.403 -0.5757  2.1131 -1.0598
 3580TIP3    H234936   4.572   7.161  19.285  0.7721 -0.5499  0.1541
 3581TIP3   OH234937   7.220   0.065  18.032  0.8160 -0.4444  0.0230
 3581TIP3    H134938   7.252   0.134  18.091  0.4405  0.5858 -0.9582
 3581TIP3    H234939   7.165   0.010  18.088  0.5861  0.4286  0.6829
 3582TIP3   OH234940   7.065   6.285  18.979  0.3197  0.4776 -0.1874
 3582TIP3    H134941   7.036   6.368  19.016 -0.6890 -0.1517  0.4800
 3582TIP3    H234942   7.114   6.309  18.900 -0.3220  1.6790 -0.2332
 3583TIP3   OH234943   7.343   5.892  17.732  0.3921  0.3569  0.2483
 3583TIP3    H134944   7.384   5.972  17.699 -0.1052  1.1440  1.4360
 3583TIP3    H234945   7.356   5.828  17.663  0.4301  1.5835 -0.9316
 3584TIP3   OH234946   6.377   2.660  19.316 -0.4794  0.1562 -0.1293
 3584TIP3    H134947   6.292   2.692  19.344 -0.7139 -0.0924 -0.5433
 3584TIP3    H234948   6.436   2.734  19.327 -0.8711  0.5105 -0.4009
 3585TIP3   OH234949   4.996   6.998  19.529 -0.3766  0.1484 -0.1227
 3585TIP3    H134950   4.901   6.986  19.525 -0.9173  2.5686  2.3196
 3585TIP3    H234951   5.026   6.929  19.589 -0.6044 -0.4847 -0.7279
 3586TIP3   OH234952   5.099   2.650  17.765 -0.4416 -0.2122 -0.0770
 3586TIP3    H134953   5.181   2.678  17.724  0.1640  0.2463  1.4004
 3586TIP3    H234954   5.032   2.669  17.699  0.3012  1.9493 -0.2800
 3587TIP3   OH234955   1.583   4.221  16.983  0.1275  0.4370 -0.1037
 3587TIP3    H134956   1.606   4.290  16.921  1.7566  0.2373  0.2234
 3587TIP3    H234957   1.596   4.139  16.934 -1.1408  0.3227 -0.2830
 3588TIP3   OH234958   3.107   7.032  17.842 -0.2512 -0.0410  0.3473
 3588TIP3    H134959   3.143   7.035  17.754  0.5117  1.5951  0.6832
 3588TIP3    H234960   3.084   6.940  17.855 -1.6542 -0.1064 -2.0298
 3589TIP3   OH234961   5.394   0.975  18.329 -0.2475  0.2680 -0.3017
 3589TIP3    H134962   5.408   0.941  18.241 -0.2498 -0.9628  0.1518
 3589TIP3    H234963   5.471   1.027  18.348  0.0307  0.0415 -0.8049
 3590TIP3   OH234964   2.909   3.231  17.375  0.2719  0.0367  0.0767
 3590TIP3    H134965   2.889   3.181  17.296 -2.0238  0.1839  0.4978
 3590TIP3    H234966   2.929   3.165  17.441  0.3739 -0.1770 -0.1692
 3591TIP3   OH234967   0.053   0.375  17.963 -0.1969  0.0451  0.4363
 3591TIP3    H134968  -0.011   0.350  18.030  0.1334  0.6395  0.9887
 3591TIP3    H234969   0.005   0.367  17.880 -1.8962  2.9886  0.9757
 3592TIP3   OH234970   1.441   0.741  19.075  0.0438 -0.0072  0.0032
 3592TIP3    H134971   1.457   0.832  19.101 -0.6031 -0.0492  0.5731
 3592TIP3    H234972   1.345   0.733  19.073  0.0933 -0.5603 -0.4606
 3593TIP3   OH234973   7.573   3.948  18.305  0.0837  0.5450 -0.2770
 3593TIP3    H134974   7.526   3.888  18.363 -1.2526  0.5879 -1.2698
 3593TIP3    H234975   7.626   4.001  18.364 -0.8971  0.2960  0.8726
 3594TIP3   OH234976   7.086   2.731  16.905  0.1911 -0.3715  0.4365
 3594TIP3    H134977   7.169   2.693  16.877  0.8099 -0.5050  2.3102
 3594TIP3    H234978   7.084   2.817  16.863  1.4252 -0.2562  0.5779
 3595TIP3   OH234979   6.564   2.864  17.480 -0.1127  0.2349 -0.3649
 3595TIP3    H134980   6.500   2.900  17.419 -0.1950  2.4887  0.9605
 3595TIP3    H234981   6.635   2.928  17.481  0.8735 -0.8272  0.3133
 3596TIP3   OH234982   0.147   1.303  18.609  0.2579 -0.3291 -0.0823
 3596TIP3    H134983   0.198   1.355  18.548  0.1289  0.2499  0.2933
 3596TIP3    H234984   0.209   1.279  18.678 -0.0212  0.6117  0.5197
 3597TIP3   OH234985   3.606   7.478  16.548 -0.5610  0.1632 -0.3647
 3597TIP3    H134986   3.522   7.511  16.580  0.2162  1.7435  0.1431
 3597TIP3    H234987   3.584   7.395  16.504 -1.9561 -1.0472  2.3860
 3598TIP3   OH234988   1.386   2.187  16.480  0.3883  0.0836 -0.1170
 3598TIP3    H134989   1.320   2.134  16.524  1.0230 -0.6471 -0.0416
 3598TIP3    H234990   1.467   2.170  16.527  1.2328 -1.2007 -1.8925
 3599TIP3   OH234991   0.684   1.068  18.730  0.6831  0.2236  0.1348
 3599TIP3    H134992   0.604   1.067  18.678  1.0956 -0.1815 -0.4945
 3599TIP3    H234993   0.722   0.981  18.719  3.6392  1.7162 -3.3826
 3600TIP3   OH234994   5.043   3.500  18.327 -0.5393 -0.4681 -0.0205
 3600TIP3    H134995   5.047   3.593  18.346 -0.8038 -0.2907 -0.8060
 3600TIP3    H234996   5.104   3.460  18.389  0.5843  0.3706 -0.5573
 3601TIP3   OH234997   6.756   4.499  17.543  0.2552  0.0247 -0.2669
 3601TIP3    H134998   6.686   4.435  17.526  0.7364 -0.1010 -1.8933
 3601TIP3    H234999   6.712   4.584  17.539 -0.0533 -0.1096  0.1382
 3602TIP3   OH235000   0.493   5.589  18.247 -0.1317  0.0756 -0.3753
 3602TIP3    H135001   0.413   5.569  18.295  0.0866  1.0629  0.4441
 3602TIP3    H235002   0.562   5.586  18.314  0.1157  2.0063 -0.4925
 3603TIP3   OH235003   0.708   3.211  19.388  0.5948  0.2067  0.6752
 3603TIP3    H135004   0.677   3.152  19.320  0.1299 -0.0617  1.1180
 3603TIP3    H235005   0.631   3.262  19.413  0.8443  0.5520  0.7482
 3604TIP3   OH235006   2.947   7.084  17.088  0.2940 -0.0636  0.3447
 3604TIP3    H135007   3.033   7.061  17.123  0.4948  0.7078  0.3679
 3604TIP3    H235008   2.906   7.136  17.157  0.5822  1.2277 -0.4281
 3605TIP3   OH235009   4.779   6.510  18.177  0.7664  0.7438 -0.7055
 3605TIP3    H135010   4.826   6.583  18.137  0.2418  1.1090 -0.6651
 3605TIP3    H235011   4.687   6.534  18.170  0.6073  0.2560 -0.3583
 3606TIP3   OH235012   2.695   0.179  18.465 -0.1314  0.6598  0.3203
 3606TIP3    H135013   2.652   0.097  18.439 -0.4102  0.5354  1.1500
 3606TIP3    H235014   2.639   0.215  18.533 -0.9161  2.4005 -1.1423
 3607TIP3   OH235015   5.822   0.438  18.861 -0.8850  0.1498 -0.2050
 3607TIP3    H135016   5.843   0.495  18.935  3.0889  0.9383 -1.6960
 3607TIP3    H235017   5.794   0.499  18.792 -1.8410 -0.3110 -0.2447
 3608TIP3   OH235018   2.604   0.877  17.581 -0.0964 -0.5059 -0.2376
 3608TIP3    H135019   2.659   0.955  17.575 -0.6677 -0.2049 -2.8734
 3608TIP3    H235020   2.611   0.849  17.672  0.1278  2.6200  0.8203
 3609TIP3   OH235021   3.605   6.522  16.707 -0.8400 -0.3557 -0.4356
 3609TIP3    H135022   3.681   6.464  16.704  0.2442  1.0101 -0.2608
 3609TIP3    H235023   3.641   6.610  16.695 -2.4727  0.2759 -1.0664
 3610TIP3   OH235024   1.370   4.251  17.985  0.8638  0.3012  0.3914
 3610TIP3    H135025   1.373   4.331  17.933 -0.2921 -1.4368 -2.6272
 3610TIP3    H235026   1.277   4.238  18.003  0.9561 -0.7144  0.1900
 3611TIP3   OH235027   5.572   2.931  19.141 -0.0203  0.2110 -0.3731
 3611TIP3    H135028   5.586   2.837  19.148 -0.8058  0.0326 -1.0824
 3611TIP3    H235029   5.608   2.967  19.222 -0.4489 -0.7779  0.2606
 3612TIP3   OH235030   0.163   5.343  17.954 -0.1253 -0.2746 -0.2174
 3612TIP3    H135031   0.083   5.346  18.006 -1.2003 -2.7343 -1.5561
 3612TIP3    H235032   0.132   5.350  17.863  1.3420  0.3256 -0.7002
 3613TIP3   OH235033   1.506   3.520  18.437 -0.0964  0.1188 -0.0556
 3613TIP3    H135034   1.446   3.593  18.420 -0.7284  0.1253  1.9502
 3613TIP3    H235035   1.549   3.543  18.519  0.7360 -1.1199 -0.1214
 3614TIP3   OH235036   5.495   3.392  18.803  0.3419  0.3319 -0.9301
 3614TIP3    H135037   5.400   3.384  18.807  0.3305  0.9462  0.6751
 3614TIP3    H235038   5.524   3.308  18.767 -0.7246 -0.4460 -0.0441
 3615TIP3   OH235039   0.896   4.641  18.013 -0.1512  0.0094  0.0721
 3615TIP3    H135040   0.805   4.662  17.989  0.1204 -1.6199 -2.8272
 3615TIP3    H235041   0.949   4.694  17.955  0.5529 -3.7366 -3.1393
 3616TIP3   OH235042   3.303   6.608  16.952 -0.1205 -0.2840 -0.1110
 3616TIP3    H135043   3.260   6.688  16.923  0.6352  0.0577 -0.3147
 3616TIP3    H235044   3.313   6.556  16.872 -0.1443 -0.3508 -0.0698
 3617TIP3   OH235045   7.002   6.490  16.569 -0.0729 -0.4874 -0.2263
 3617TIP3    H135046   7.050   6.423  16.521 -0.1145 -1.4396  1.0025
 3617TIP3    H235047   6.916   6.451  16.585  0.5465 -1.0544  2.2491
 3618TIP3   OH235048   4.253   2.064  17.672 -0.0812  0.1408  0.1601
 3618TIP3    H135049   4.162   2.051  17.700 -0.4499  1.9837 -0.0357
 3618TIP3    H235050   4.248   2.061  17.576  0.3673 -1.4256  0.1720
 3619TIP3   OH235051   1.693   0.387  18.061  0.0849 -0.5012  0.2876
 3619TIP3    H135052   1.710   0.361  18.151 -3.9461 -1.6693  0.9433
 3619TIP3    H235053   1.643   0.468  18.068  0.8942  0.1459 -1.0224
 3620TIP3   OH235054   5.061   5.513  16.483  0.3886  0.1998  0.3750
 3620TIP3    H135055   5.104   5.547  16.405  0.6008 -1.6640 -0.3619
 3620TIP3    H235056   5.108   5.432  16.504 -2.1590 -1.4791  0.0465
 3621TIP3   OH235057   2.885   4.145  17.562 -0.4051 -0.6090  0.6583
 3621TIP3    H135058   2.945   4.071  17.554 -2.4098 -2.1407 -1.2615
 3621TIP3    H235059   2.798   4.106  17.563 -1.5262  1.6907  0.4060
 3622TIP3   OH235060   7.592   1.617  18.015  0.0998 -0.3008  0.3929
 3622TIP3    H135061   7.530   1.688  18.030  0.4205 -0.0445  0.5238
 3622TIP3    H235062   7.563   1.577  17.934 -1.4087 -1.4444  1.4478
 3623TIP3   OH235063   7.275   2.473  17.080  0.0593  0.0091  0.5630
 3623TIP3    H135064   7.363   2.463  17.042 -0.2086 -0.4946  0.0596
 3623TIP3    H235065   7.291   2.492  17.173  0.7019  0.0400  0.4504
 3624TIP3   OH235066   5.293   4.296  18.146 -1.2230 -0.3375  0.2810
 3624TIP3    H135067   5.285   4.287  18.051 -0.6800 -0.7650  0.2748
 3624TIP3    H235068   5.383   4.325  18.160 -0.1328 -3.6551  0.8794
 3625TIP3   OH235069   1.721   4.983  18.087  0.5732 -0.1256 -0.2316
 3625TIP3    H135070   1.666   5.049  18.046 -1.9772 -0.7727  1.8715
 3625TIP3    H235071   1.789   5.034  18.132  1.9798  0.6790 -3.0219
 3626TIP3   OH235072   5.704   0.657  17.499 -0.2961  0.3517 -0.5312
 3626TIP3    H135073   5.721   0.741  17.540  1.1384 -0.3820  0.4717
 3626TIP3    H235074   5.731   0.669  17.408 -1.2440  1.3065 -0.7025
 3627TIP3   OH235075   1.468   1.495  18.787  0.0367  0.2598 -0.5634
 3627TIP3    H135076   1.475   1.579  18.833 -1.6871 -0.2407  0.7200
 3627TIP3    H235077   1.396   1.509  18.724  1.4897  0.5214 -2.2567
 3628TIP3   OH235078   0.476   3.117  19.270  0.0166 -0.6086  0.1122
 3628TIP3    H135079   0.537   3.080  19.207 -0.5002  0.3382 -0.9782
 3628TIP3    H235080   0.407   3.051  19.280  0.8705 -1.4102  0.8715
 3629TIP3   OH235081   0.621   2.027  18.501  0.4928 -0.1674  0.1536
 3629TIP3    H135082   0.619   1.933  18.481 -1.1022 -0.1471  0.0517
 3629TIP3    H235083   0.604   2.031  18.595 -0.2811  0.0309  0.0131
 3630TIP3   OH235084   2.899   0.456  17.998  0.4649  0.3130  0.2366
 3630TIP3    H135085   2.986   0.493  18.011  1.1987 -1.7410  1.5987
 3630TIP3    H235086   2.872   0.490  17.912  3.0767  0.1400 -0.7659
 3631TIP3   OH235087   0.385   7.410  19.261 -0.1056  0.2462 -0.2452
 3631TIP3    H135088   0.303   7.457  19.242 -0.3392  0.1396  0.4822
 3631TIP3    H235089   0.438   7.423  19.182 -1.0132 -0.1198 -0.9433
 3632TIP3   OH235090   1.197   0.548  17.682  0.5696 -0.4130  0.2199
 3632TIP3    H135091   1.153   0.606  17.744 -0.8213 -3.0014  1.8295
 3632TIP3    H235092   1.226   0.606  17.612  0.7808  2.4362  2.4685
 3633TIP3   OH235093   0.862   3.791  17.658 -0.4826  0.2432  0.1656
 3633TIP3    H135094   0.877   3.736  17.734  1.3075  0.1568 -0.2189
 3633TIP3    H235095   0.846   3.878  17.694 -1.1410 -0.0879  0.6821
 3634TIP3   OH235096   0.433   1.501  17.757  0.1745 -0.2189 -0.1172
 3634TIP3    H135097   0.341   1.472  17.757 -0.0748  0.5369  0.2001
 3634TIP3    H235098   0.484   1.420  17.761 -0.4289 -0.7513 -2.1263
 3635TIP3   OH235099   3.320   3.936  18.230  0.6207 -0.4867  0.0832
 3635TIP3    H135100   3.356   3.934  18.141 -0.2075 -2.0552 -0.2751
 3635TIP3    H235101   3.276   3.851  18.239 -1.6612  0.6988  0.9997
 3636TIP3   OH235102   0.087   5.532  17.282  0.6710 -0.1606  0.4119
 3636TIP3    H135103   0.085   5.438  17.301  1.1148 -0.4942 -1.0410
 3636TIP3    H235104   0.043   5.540  17.198  0.6819  0.9400  0.5009
 3637TIP3   OH235105   3.909   5.137  18.587 -0.0869 -0.5283 -0.1439
 3637TIP3    H135106   3.955   5.218  18.608  0.1738 -0.7911  0.2968
 3637TIP3    H235107   3.960   5.098  18.516  0.1675 -0.6426  0.1029
 3638TIP3   OH235108   7.188   4.590  18.464  0.1330 -0.7836  0.5445
 3638TIP3    H135109   7.266   4.640  18.440 -1.5271  2.1349  0.7812
 3638TIP3    H235110   7.181   4.601  18.559 -0.3986 -1.3301  0.5742
 3639TIP3   OH235111   7.493   3.335  19.188  0.2036  0.1724  0.4131
 3639TIP3    H135112   7.411   3.305  19.227  0.8593 -0.9550  0.9626
 3639TIP3    H235113   7.467   3.406  19.129 -1.1461 -0.0935  0.6600
 3640TIP3   OH235114   2.604   0.531  17.960 -0.1087  0.2986  0.5288
 3640TIP3    H135115   2.690   0.492  17.944 -1.1529 -1.1455 -2.4199
 3640TIP3    H235116   2.566   0.477  18.029 -0.1458 -1.8107 -1.0249
 3641TIP3   OH235117   6.114   6.227  18.659 -0.6144 -0.3214  0.1673
 3641TIP3    H135118   6.056   6.278  18.715 -1.3017 -1.9136  0.9899
 3641TIP3    H235119   6.110   6.138  18.695  1.1671 -0.8003 -0.6842
 3642TIP3   OH235120   0.524   1.140  19.634 -0.3177 -0.2318 -0.2823
 3642TIP3    H135121   0.429   1.136  19.637 -0.2655 -2.0431  0.1062
 3642TIP3    H235122   0.549   1.078  19.565  0.5875  0.1271 -0.2987
 3643TIP3   OH235123   1.136   2.327  18.214  0.4419  0.0343  0.0070
 3643TIP3    H135124   1.208   2.381  18.247 -0.6869  0.4913  1.9036
 3643TIP3    H235125   1.090   2.384  18.152 -0.2237  1.0025  1.3349
 3644TIP3   OH235126   0.462   2.051  19.554  0.2354  0.0699  0.3900
 3644TIP3    H135127   0.420   1.968  19.576 -1.9320  0.2637 -2.4801
 3644TIP3    H235128   0.463   2.100  19.637  0.1563 -2.1665  1.7934
 3645TIP3   OH235129   0.417   3.367  17.873 -0.3173  0.1419  0.1183
 3645TIP3    H135130   0.401   3.310  17.798 -0.5835  1.7546 -1.0854
 3645TIP3    H235131   0.330   3.394  17.902 -0.1680  0.5992  0.1551
 3646TIP3   OH235132   6.549   6.238  17.888 -0.0609  0.5089  0.2740
 3646TIP3    H135133   6.607   6.283  17.949  1.0941  1.7313 -1.6392
 3646TIP3    H235134   6.584   6.149  17.883  0.5990  0.7532  0.4398
 3647TIP3   OH235135   3.046   4.943  17.707  0.3623 -0.2490  0.0739
 3647TIP3    H135136   3.119   4.903  17.659  0.4920  0.4857 -0.3630
 3647TIP3    H235137   3.062   4.921  17.798  0.9984 -0.3102 -0.0486
 3648TIP3   OH235138   6.447   2.785  18.632  0.0490  0.1907  0.6898
 3648TIP3    H135139   6.357   2.754  18.619  0.1143  0.1161  0.4059
 3648TIP3    H235140   6.493   2.709  18.669 -0.0338  0.2670  0.9504
 3649TIP3   OH235141   4.588   1.185  19.497 -0.3449 -0.3126  1.1703
 3649TIP3    H135142   4.605   1.272  19.533 -2.7264  0.7293 -0.0006
 3649TIP3    H235143   4.505   1.195  19.449  0.0919 -2.8615 -0.2710
 3650TIP3   OH235144   6.101   6.420  17.970 -0.0351  0.5028 -0.1665
 3650TIP3    H135145   6.099   6.505  18.015  0.3823  0.7003 -0.5108
 3650TIP3    H235146   6.046   6.363  18.024  1.9954  0.1872  1.7404
 3651TIP3   OH235147   3.816   1.749  18.195  0.4638 -0.5026  0.1002
 3651TIP3    H135148   3.884   1.783  18.137 -0.5283  2.4836  0.5032
 3651TIP3    H235149   3.859   1.738  18.279  0.6586  0.7243  0.1869
 3652TIP3   OH235150   7.323   1.223  16.761  0.0815 -0.1580 -0.4425
 3652TIP3    H135151   7.232   1.205  16.737 -1.0369  0.5881  2.6774
 3652TIP3    H235152   7.375   1.164  16.706 -2.2661 -0.7078 -2.2390
 3653TIP3   OH235153   3.211   5.640  18.050  0.4247 -0.8288  0.0480
 3653TIP3    H135154   3.138   5.675  18.000  0.7679  0.4623  0.3881
 3653TIP3    H235155   3.188   5.658  18.141 -0.0448 -2.8468  0.3647
 3654TIP3   OH235156   2.848   5.084  17.415 -0.1889  0.1762 -0.1949
 3654TIP3    H135157   2.942   5.104  17.411  0.2238 -1.7541 -1.2228
 3654TIP3    H235158   2.839   5.000  17.370 -2.3764  0.1326  0.2084
 3655TIP3   OH235159   1.481   1.951  18.514  0.6031 -0.1782 -0.6790
 3655TIP3    H135160   1.481   2.047  18.514 -0.4191 -0.1661 -0.6284
 3655TIP3    H235161   1.396   1.928  18.552  1.3419 -1.1103  0.4604
 3656TIP3   OH235162   1.373   5.375  17.758  0.0665  0.3087  0.0738
 3656TIP3    H135163   1.346   5.456  17.717  0.1887 -0.2115 -1.0640
 3656TIP3    H235164   1.329   5.375  17.843 -4.5610 -0.9993 -2.0195
 3657TIP3   OH235165   1.580   3.518  18.789  0.1641  0.0351 -0.2116
 3657TIP3    H135166   1.485   3.505  18.793  0.2462 -0.3472  0.7818
 3657TIP3    H235167   1.617   3.441  18.832  0.8016  1.5042  2.0439
 3658TIP3   OH235168   5.257   0.257  19.342  0.1301  0.5645 -0.0737
 3658TIP3    H135169   5.348   0.253  19.372  0.9844  0.5305 -2.4010
 3658TIP3    H235170   5.222   0.170  19.359  1.7786 -0.6722 -2.4773
 3659TIP3   OH235171   2.656   7.030  17.973 -0.0765  0.4288  0.5045
 3659TIP3    H135172   2.573   7.074  17.992 -0.4223  0.1509 -0.2778
 3659TIP3    H235173   2.630   6.944  17.940  0.6055 -0.5692  2.4603
 3660TIP3   OH235174   5.846   6.537  18.523 -0.5827  0.1106  0.1151
 3660TIP3    H135175   5.906   6.611  18.534  0.1145 -0.3351 -0.5886
 3660TIP3    H235176   5.897   6.471  18.478 -0.1391 -2.1657  3.6160
 3661TIP3   OH235177   4.872   1.542  18.116  0.2900 -0.1485 -0.1817
 3661TIP3    H135178   4.951   1.543  18.169 -0.1638  0.5584  0.4942
 3661TIP3    H235179   4.866   1.630  18.079 -0.1281 -0.2320 -0.3181
 3662TIP3   OH235180   1.896   6.810  18.035 -0.0766  0.5559  0.3830
 3662TIP3    H135181   1.873   6.898  18.064 -0.2466  1.2696 -1.7274
 3662TIP3    H235182   1.812   6.767  18.020  0.0073  0.0849  1.2143
 3663TIP3   OH235183   2.246   0.063  16.516 -0.0221 -0.0614 -0.2806
 3663TIP3    H135184   2.290   0.132  16.467 -1.3007  0.1777 -1.1445
 3663TIP3    H235185   2.217   0.000  16.449 -0.2980 -0.6067  0.3346
 3664TIP3   OH235186   5.946   5.912  17.595  0.6054 -0.3699  0.2255
 3664TIP3    H135187   5.982   5.827  17.571 -0.7177 -0.5369 -1.3212
 3664TIP3    H235188   5.853   5.907  17.571 -0.1321  0.6009  2.5659
 3665TIP3   OH235189   4.276   5.694  19.015 -0.1753  0.1382  0.0192
 3665TIP3    H135190   4.198   5.745  19.034  0.0562 -0.3031  2.4587
 3665TIP3    H235191   4.343   5.760  18.993 -0.4211  0.7792  1.0875
 3666TIP3   OH235192   4.961   7.512  17.474  0.3670 -0.4905  0.0035
 3666TIP3    H135193   4.974   7.597  17.432 -0.6698 -0.3285 -0.0079
 3666TIP3    H235194   5.047   7.490  17.509  0.4415  1.0838  0.9464
 3667TIP3   OH235195   2.962   2.155  18.451  0.3999  0.8954 -0.5170
 3667TIP3    H135196   3.011   2.195  18.522 -1.5123  0.3090  1.2392
 3667TIP3    H235197   2.910   2.227  18.414 -0.0007  0.8456 -0.0595
 3668TIP3   OH235198   6.175   4.791  18.364 -0.0197  0.2728  0.0243
 3668TIP3    H135199   6.212   4.813  18.450 -1.0464 -0.1784  0.5897
 3668TIP3    H235200   6.247   4.809  18.303  0.7901  0.4333  0.9856
 3669TIP3   OH235201   0.349   4.766  19.236 -0.4836  0.0760  0.0816
 3669TIP3    H135202   0.406   4.832  19.275  1.0179 -0.9266 -0.3124
 3669TIP3    H235203   0.407   4.717  19.178 -2.0971 -0.0489 -1.4960
 3670TIP3   OH235204   0.353   0.917  19.258  0.9811  0.2143 -0.8095
 3670TIP3    H135205   0.402   0.949  19.182  0.3102  0.8525 -0.9886
 3670TIP3    H235206   0.348   0.823  19.246 -0.1764  0.4235 -2.2144
 3671TIP3   OH235207   4.465   1.187  18.952 -0.1523 -0.3958 -0.0400
 3671TIP3    H135208   4.470   1.280  18.973 -1.3129 -0.6336  1.4746
 3671TIP3    H235209   4.552   1.164  18.920  0.2985  1.0901  0.0866
 3672TIP3   OH235210   6.129   0.058  17.081  0.2729  0.5326  0.3198
 3672TIP3    H135211   6.213   0.101  17.066  0.0117  0.6592 -0.9100
 3672TIP3    H235212   6.130  -0.018  17.023 -0.3303  0.3726  0.5139
 3673TIP3   OH235213   4.313   1.255  17.741  0.2088 -0.4535 -0.0696
 3673TIP3    H135214   4.324   1.200  17.664 -0.4385 -1.3961  0.4980
 3673TIP3    H235215   4.336   1.343  17.711 -1.0780 -0.6084 -1.6226
 3674TIP3   OH235216   3.412   2.404  18.326 -0.0488  0.2325  0.2534
 3674TIP3    H135217   3.388   2.484  18.279 -0.9589 -0.9227 -1.3409
 3674TIP3    H235218   3.382   2.333  18.270  2.2511 -1.2875  0.8000
 3675TIP3   OH235219   5.579   0.906  18.869 -0.1821 -0.2175 -0.6689
 3675TIP3    H135220   5.570   0.814  18.894  1.1326  0.3329  2.2447
 3675TIP3    H235221   5.498   0.947  18.898  1.0995  0.3060  2.5027
 3676TIP3   OH235222   6.632   4.227  17.416 -0.3383  0.1596  0.0678
 3676TIP3    H135223   6.664   4.167  17.483 -0.1143 -0.8192 -0.8784
 3676TIP3    H235224   6.537   4.213  17.414 -0.1417 -1.3299 -1.1734
 3677TIP3   OH235225   0.391   1.583  19.117  0.0279  0.1203 -0.2188
 3677TIP3    H135226   0.403   1.677  19.109  0.5166  0.1907  1.1510
 3677TIP3    H235227   0.478   1.549  19.138 -0.1102 -0.6674 -0.8501
 3678TIP3   OH235228   7.619   0.742  19.343 -0.0582 -0.3650 -0.3099
 3678TIP3    H135229   7.606   0.655  19.380  1.5780 -0.3219  0.4337
 3678TIP3    H235230   7.577   0.801  19.406 -1.9289 -0.6313 -1.2453
 3679TIP3   OH235231   4.051   3.906  18.911 -0.2868  0.0263  0.1212
 3679TIP3    H135232   4.130   3.929  18.863  0.2092 -1.3515  0.2249
 3679TIP3    H235233   3.989   3.977  18.891  0.5766  0.5234 -0.9048
 3680TIP3   OH235234   4.098   4.873  18.680 -0.5707 -0.4350 -0.1317
 3680TIP3    H135235   4.031   4.929  18.720  0.9494  0.5838  1.1305
 3680TIP3    H235236   4.098   4.899  18.588 -1.1988  0.2945  0.0607
 3681TIP3   OH235237   5.242   7.670  18.927  0.4415  0.1321  0.3866
 3681TIP3    H135238   5.184   7.736  18.965  1.5507  1.6725 -0.4673
 3681TIP3    H235239   5.197   7.587  18.941 -0.6572  0.9713  2.1731
 3682TIP3   OH235240   3.689   0.152  16.715 -0.1171  0.1428 -0.2612
 3682TIP3    H135241   3.659   0.153  16.624  2.5465  1.7202 -1.2542
 3682TIP3    H235242   3.676   0.242  16.746 -2.2933 -0.6838  1.4922
 3683TIP3   OH235243   4.189   1.396  18.291  0.1477  0.5770  0.3016
 3683TIP3    H135244   4.121   1.400  18.359 -0.3663  1.8406 -0.2646
 3683TIP3    H235245   4.142   1.414  18.210  1.3983  3.2740  0.0764
 3684TIP3   OH235246   6.597   4.048  19.298  0.4515  0.2741 -0.3757
 3684TIP3    H135247   6.616   4.094  19.216  2.1515 -0.7574 -0.6217
 3684TIP3    H235248   6.528   4.099  19.339  1.1762  2.1443 -1.3558
 3685TIP3   OH235249   2.368   5.851  18.506 -0.0569 -0.3839  0.6553
 3685TIP3    H135250   2.453   5.879  18.473 -0.6306 -1.0843 -1.5655
 3685TIP3    H235251   2.305   5.903  18.457 -0.9468 -0.5101  1.6364
 3686TIP3   OH235252   5.542   4.802  17.476  0.6259 -0.0278  0.0301
 3686TIP3    H135253   5.481   4.776  17.407  0.3006  0.5744  0.0799
 3686TIP3    H235254   5.520   4.746  17.550 -1.1367  1.4076  0.6623
 3687TIP3   OH235255   6.887   3.227  19.009 -0.9123 -0.5554  0.0672
 3687TIP3    H135256   6.911   3.272  18.927  0.2578 -0.9880  0.1512
 3687TIP3    H235257   6.943   3.269  19.075 -2.2920  0.2228  0.7797
 3688TIP3   OH235258   6.975   5.823  17.961  0.0339  0.3377  0.2509
 3688TIP3    H135259   6.987   5.894  17.897 -0.6268 -0.4894 -0.8149
 3688TIP3    H235260   6.891   5.843  18.003  0.8157  1.2967  1.4532
 3689TIP3   OH235261   6.323   4.697  17.495 -0.5452  0.4361 -0.0300
 3689TIP3    H135262   6.256   4.759  17.468  1.2906  1.9475 -1.4471
 3689TIP3    H235263   6.316   4.625  17.432 -2.6935 -0.9476  1.6303
 3690TIP3   OH235264   4.399   4.933  17.778 -0.2291 -0.0192 -0.7695
 3690TIP3    H135265   4.428   4.900  17.692 -0.6310 -0.2722 -0.8104
 3690TIP3    H235266   4.462   4.897  17.840  2.4507  3.2280 -1.2912
 3691TIP3   OH235267   1.871   1.541  17.636 -0.0988  0.4332 -0.3341
 3691TIP3    H135268   1.885   1.632  17.609  0.5456  0.2430 -0.6829
 3691TIP3    H235269   1.883   1.491  17.555  1.0666 -0.0879  0.1292
 3692TIP3   OH235270   4.781   5.880  19.324  0.1736  0.1241 -0.1262
 3692TIP3    H135271   4.846   5.939  19.362  2.0274 -2.7296  1.4190
 3692TIP3    H235272   4.775   5.907  19.233  1.9145  1.8258  0.1960
 3693TIP3   OH235273   3.614   2.590  16.831 -0.2525  0.3066  0.3489
 3693TIP3    H135274   3.554   2.592  16.756  1.6742  0.4210 -1.2718
 3693TIP3    H235275   3.574   2.649  16.895 -1.2317  1.3855 -1.1833
 3694TIP3   OH235276   2.580   5.412  16.641 -0.0095 -0.3889 -0.1698
 3694TIP3    H135277   2.510   5.372  16.694 -2.2165  0.6671 -2.1156
 3694TIP3    H235278   2.540   5.427  16.556  1.7273  2.7955 -0.5807
 3695TIP3   OH235279   1.997   1.079  16.822  0.0323 -0.1238  0.0293
 3695TIP3    H135280   2.051   1.091  16.743  1.4676 -0.2942  0.9449
 3695TIP3    H235281   1.910   1.107  16.796  0.0567 -1.8335 -2.1430
 3696TIP3   OH235282   2.900   2.100  17.106  0.3282 -0.3747  0.3264
 3696TIP3    H135283   2.981   2.089  17.057  0.7145 -0.1078  0.8971
 3696TIP3    H235284   2.831   2.076  17.044  0.8893 -1.5082  0.1132
 3697TIP3   OH235285   6.931   5.241  18.533  0.1054  0.0946 -0.4355
 3697TIP3    H135286   6.837   5.228  18.536  0.3013 -1.3791  1.5700
 3697TIP3    H235287   6.952   5.286  18.615  1.3170 -1.2194  0.0149
 3698TIP3   OH235288   1.794   4.242  16.722  0.0369 -0.2028  0.3650
 3698TIP3    H135289   1.755   4.155  16.733  0.5118 -0.1345  3.2562
 3698TIP3    H235290   1.742   4.283  16.652 -2.3163 -1.6139  1.1652
 3699TIP3   OH235291   5.825   1.288  19.375 -0.2966  0.2347  0.9581
 3699TIP3    H135292   5.784   1.359  19.424 -1.2871 -0.5633  1.3172
 3699TIP3    H235293   5.811   1.210  19.430  0.5004 -0.2937  0.4289
 3700TIP3   OH235294   5.993   4.605  17.044  0.2403 -0.2347  0.4626
 3700TIP3    H135295   6.077   4.606  16.998 -0.5055 -0.6501 -0.9727
 3700TIP3    H235296   5.989   4.518  17.085  1.2466  0.4192  2.0171
 3701TIP3   OH235297   1.678   0.363  18.868  0.0931 -0.3232  0.0677
 3701TIP3    H135298   1.645   0.452  18.864 -1.9284 -1.0583 -2.0319
 3701TIP3    H235299   1.657   0.333  18.957 -0.5055  0.8302  0.3240
 3702TIP3   OH235300   6.277   6.148  17.933 -0.8104  0.3155 -0.3204
 3702TIP3    H135301   6.192   6.192  17.923 -1.4922 -1.2752 -2.0713
 3702TIP3    H235302   6.341   6.216  17.911 -1.7071  1.0687 -0.7078
 3703TIP3   OH235303   3.297   5.064  18.138 -0.3571 -0.5231  0.4096
 3703TIP3    H135304   3.328   5.124  18.070  0.5114 -0.0607  1.1907
 3703TIP3    H235305   3.316   4.977  18.103 -0.1596 -0.3002 -0.0535
 3704TIP3   OH235306   0.775   7.182  16.458  0.2183 -0.1507  0.0837
 3704TIP3    H135307   0.847   7.239  16.487  0.9758  0.0678 -2.0491
 3704TIP3    H235308   0.702   7.242  16.443  0.6881  0.1611 -1.1057
 3705TIP3   OH235309   1.456   2.555  17.994  0.1881 -0.1302 -0.1073
 3705TIP3    H135310   1.436   2.642  17.960  1.3562  0.2347  0.0948
 3705TIP3    H235311   1.546   2.537  17.966  0.7761 -0.3106  1.7287
 3706TIP3   OH235312   1.816   5.286  17.542  0.0363  0.6596 -0.6422
 3706TIP3    H135313   1.893   5.315  17.494  0.1511 -0.4646 -1.1714
 3706TIP3    H235314   1.762   5.364  17.551  1.9707  1.8716  1.2416
 3707TIP3   OH235315   5.426   7.482  18.033  0.1651 -0.6972  0.2505
 3707TIP3    H135316   5.339   7.444  18.044  0.1749 -0.7725  0.0839
 3707TIP3    H235317   5.410   7.575  18.018  0.2144 -0.3833  1.9598
 3708TIP3   OH235318   5.036   2.633  18.889  0.0448 -0.3694 -0.0513
 3708TIP3    H135319   4.985   2.713  18.900 -0.2029 -0.8168  2.5656
 3708TIP3    H235320   5.004   2.595  18.807 -3.8402 -0.5873  1.3545
 3709TIP3   OH235321   0.147   4.433  19.390 -0.8052  0.4392  0.2101
 3709TIP3    H135322   0.099   4.458  19.311  0.0030 -0.4375 -0.5904
 3709TIP3    H235323   0.085   4.378  19.439 -1.2280  0.7856  0.0679
 3710TIP3   OH235324   7.031   5.941  18.642 -0.1315 -0.1799  0.0226
 3710TIP3    H135325   7.026   6.024  18.596  1.5737  1.0278  1.8558
 3710TIP3    H235326   7.053   5.877  18.574  0.4511  1.1961 -1.1199
 3711TIP3   OH235327   2.355   3.811  18.830  0.1438 -0.2402  0.1501
 3711TIP3    H135328   2.280   3.822  18.771 -1.0432 -0.5302  1.5273
 3711TIP3    H235329   2.396   3.729  18.801  0.0593  0.0261 -0.7523
 3712TIP3   OH235330   0.021   3.829  18.087  0.0527  0.2168  0.1345
 3712TIP3    H135331  -0.005   3.902  18.144  0.7292  0.7682 -0.2381
 3712TIP3    H235332  -0.046   3.762  18.101 -0.8647  1.1079  0.1064
 3713TIP3   OH235333   1.681   6.265  18.959 -0.0866 -0.1839  0.3064
 3713TIP3    H135334   1.711   6.204  19.026 -0.6705  1.3493  2.0377
 3713TIP3    H235335   1.744   6.338  18.964 -0.5521  0.2719 -0.3326
 3714TIP3   OH235336   3.743   0.964  17.575 -0.2006  0.5718 -0.1928
 3714TIP3    H135337   3.655   0.956  17.538 -0.1874 -0.7758  0.0119
 3714TIP3    H235338   3.728   0.973  17.669 -0.1096 -0.4480 -0.0722
 3715TIP3   OH235339   0.021   4.081  17.705  0.2945  0.1396 -0.2202
 3715TIP3    H135340   0.051   4.144  17.639  0.7722 -1.1919 -1.3282
 3715TIP3    H235341  -0.041   4.131  17.759 -1.3686  0.9166 -2.6410
 3716TIP3   OH235342   0.443   1.300  16.881 -0.0897 -0.3772 -0.5616
 3716TIP3    H135343   0.446   1.387  16.921 -0.3140 -0.8398  0.4869
 3716TIP3    H235344   0.533   1.282  16.856  0.0110  0.0271 -0.5005
 3717TIP3   OH235345   4.194   3.712  17.605 -0.2733 -0.1644 -0.1242
 3717TIP3    H135346   4.137   3.682  17.535 -0.8142 -1.4747  0.8241
 3717TIP3    H235347   4.136   3.760  17.664 -0.8941 -2.9267  1.7205
 3718TIP3   OH235348   3.117   2.057  16.912 -0.2722 -0.7868  0.3996
 3718TIP3    H135349   3.109   2.112  16.834 -1.4252 -0.5810  0.6428
 3718TIP3    H235350   3.129   1.968  16.877 -2.7246 -1.0014 -0.0953
 3719TIP3   OH235351   2.823   3.620  18.809 -0.2668 -0.2515  0.3107
 3719TIP3    H135352   2.847   3.547  18.866  2.0373  0.1785 -0.0093
 3719TIP3    H235353   2.804   3.580  18.725 -0.2058 -0.5916  0.4596
 3720TIP3   OH235354   2.068   5.175  17.064  0.6082  0.0631 -0.0050
 3720TIP3    H135355   2.012   5.228  17.006 -0.9772 -0.5504  0.8964
 3720TIP3    H235356   2.142   5.150  17.009 -0.8576 -0.5222 -1.8077
 3721TIP3   OH235357   2.090   5.447  19.101 -0.3914 -0.0607  0.2135
 3721TIP3    H135358   2.166   5.439  19.042 -0.6624  1.6444 -0.4104
 3721TIP3    H235359   2.129   5.452  19.188  0.3069  1.5675 -0.1531
 3722TIP3   OH235360   1.384   5.026  17.972  0.0153  0.5312 -0.1120
 3722TIP3    H135361   1.428   5.087  17.913 -0.3285  0.2011 -0.7172
 3722TIP3    H235362   1.417   5.048  18.059  0.5803  0.9745 -0.4378
 3723TIP3   OH235363   2.861   7.227  17.304 -0.0289 -0.4183  0.0823
 3723TIP3    H135364   2.824   7.158  17.360 -1.9591 -0.7781 -1.5028
 3723TIP3    H235365   2.797   7.298  17.309  0.5583  0.1521 -0.4280
 3724TIP3   OH235366   4.665   5.628  17.401  0.3655  0.0856  0.5832
 3724TIP3    H135367   4.727   5.616  17.473  0.3222  2.1413  1.0217
 3724TIP3    H235368   4.598   5.562  17.416  3.1224 -3.3241 -0.8042
 3725TIP3   OH235369   3.936   2.999  17.886  0.4778  0.2570 -0.0152
 3725TIP3    H135370   3.929   2.909  17.918 -1.4579  0.0687 -0.8490
 3725TIP3    H235371   4.029   3.009  17.863  0.9971 -1.0663  1.3146
 3726TIP3   OH235372   4.712   3.363  17.939  0.0428 -0.1291 -0.1470
 3726TIP3    H135373   4.775   3.423  17.901 -0.2312 -0.5473 -1.3056
 3726TIP3    H235374   4.712   3.384  18.033  0.1931  1.4296 -0.4695
 3727TIP3   OH235375   0.248   5.568  18.395  0.1590  0.7787 -0.4502
 3727TIP3    H135376   0.195   5.630  18.444  0.3329  1.1549 -0.7318
 3727TIP3    H235377   0.266   5.497  18.457  1.2327  1.7143  0.3656
 3728TIP3   OH235378   7.149   1.411  18.980 -0.2492 -0.2174  0.3473
 3728TIP3    H135379   7.243   1.425  18.996  0.1200 -2.1326  0.1262
 3728TIP3    H235380   7.144   1.389  18.886 -1.0398  0.7239  0.1620
 3729TIP3   OH235381   0.800   5.176  17.373 -0.1514  0.1045 -0.5840
 3729TIP3    H135382   0.734   5.127  17.324 -1.7517 -1.3768  2.7522
 3729TIP3    H235383   0.770   5.267  17.368  0.1286  0.1489 -2.7477
 3730TIP3   OH235384   3.874   5.243  17.123  0.1649  0.5388  0.1605
 3730TIP3    H135385   3.893   5.222  17.031  1.1365 -1.3157  0.7183
 3730TIP3    H235386   3.959   5.235  17.167 -0.5825 -0.4609  1.5021
 3731TIP3   OH235387   5.015   6.347  19.041  0.1834  0.9664 -0.1780
 3731TIP3    H135388   5.083   6.309  18.987  1.1636  1.3448  0.7444
 3731TIP3    H235389   4.964   6.402  18.981  0.5440  0.5028 -0.9196
 3732TIP3   OH235390   4.597   6.205  17.089  0.2566 -0.0252 -0.0426
 3732TIP3    H135391   4.657   6.190  17.016  0.3744  2.4246 -0.5289
 3732TIP3    H235392   4.653   6.242  17.158  0.3907 -3.3540  1.8552
 3733TIP3   OH235393   1.120   2.914  19.065 -0.1673 -0.2735  0.4040
 3733TIP3    H135394   1.068   2.853  19.118 -1.0922  1.4425  1.5855
 3733TIP3    H235395   1.186   2.948  19.126 -1.3059  1.8077  0.5460
 3734TIP3   OH235396   1.534   1.105  18.309 -0.5404 -0.4113  0.5731
 3734TIP3    H135397   1.559   1.038  18.372 -1.9466 -0.8382  0.6894
 3734TIP3    H235398   1.516   1.057  18.228 -1.6102 -0.1875  0.6738
 3735TIP3   OH235399   0.265   7.490  18.714  0.0844  0.3715 -0.0852
 3735TIP3    H135400   0.333   7.423  18.723 -0.5795 -0.1106  1.7743
 3735TIP3    H235401   0.294   7.561  18.771 -1.0127  0.0997  0.8416
 3736TIP3   OH235402   1.309   3.019  17.117 -0.4544  0.0689 -0.0835
 3736TIP3    H135403   1.310   3.026  17.021 -1.2848 -1.3658 -0.2383
 3736TIP3    H235404   1.238   3.077  17.144  0.4810  1.3168 -0.2156
 3737TIP3   OH235405   7.080   6.550  19.019 -0.3778  0.4599  0.5634
 3737TIP3    H135406   7.175   6.539  19.027 -0.5725  0.0847  3.4350
 3737TIP3    H235407   7.070   6.616  18.950  1.8234 -0.9623 -1.2865
 3738TIP3   OH235408   4.712   6.152  18.491 -0.0119 -0.3495 -0.3707
 3738TIP3    H135409   4.678   6.237  18.462  0.4871  0.0226  0.1124
 3738TIP3    H235410   4.710   6.098  18.412 -2.1323 -0.4933 -0.2600
 3739TIP3   OH235411   1.983   4.885  18.784 -0.1954  0.2053  0.5228
 3739TIP3    H135412   1.989   4.971  18.824  0.8889  0.5804 -0.3912
 3739TIP3    H235413   2.049   4.886  18.714 -1.2059 -0.8258 -0.4990
 3740TIP3   OH235414   5.068   7.123  18.119  0.1601  0.3259 -0.3576
 3740TIP3    H135415   5.162   7.101  18.123 -0.1981 -1.1622  1.9840
 3740TIP3    H235416   5.051   7.167  18.202 -1.4967 -0.7826 -0.0768
 3741TIP3   OH235417   1.920   6.779  16.509  0.3175 -0.5208 -0.4269
 3741TIP3    H135418   1.918   6.734  16.593 -0.5185  0.3385  0.0356
 3741TIP3    H235419   1.901   6.710  16.445 -2.4522 -0.6406  0.3879
 3742TIP3   OH235420   3.617   6.199  16.731 -0.2953  0.5226  0.4728
 3742TIP3    H135421   3.693   6.256  16.747 -1.4438  1.6709  2.2627
 3742TIP3    H235422   3.647   6.112  16.759  0.3913  0.9551  1.1509
 3743TIP3   OH235423   2.457   0.403  19.079  0.0166 -0.1719  0.6731
 3743TIP3    H135424   2.442   0.443  18.993 -0.0308  2.1248  1.7000
 3743TIP3    H235425   2.519   0.332  19.061  2.8828  2.4929 -0.8045
 3744TIP3   OH235426   2.174   3.168  17.228  0.0869 -0.2718 -0.4375
 3744TIP3    H135427   2.132   3.185  17.143 -1.3613  0.2365  0.3452
 3744TIP3    H235428   2.160   3.249  17.278 -0.4117 -1.0970  0.8035
 3745TIP3   OH235429   5.574   6.300  17.842  0.4262  0.0060 -0.1564
 3745TIP3    H135430   5.613   6.251  17.914 -0.7026  0.8536  1.0629
 3745TIP3    H235431   5.629   6.378  17.833  1.0201 -0.4623 -0.7594
 3746TIP3   OH235432   0.205   1.243  18.251 -0.0033  0.1290  0.0229
 3746TIP3    H135433   0.230   1.157  18.284 -0.4961  0.2598  0.7507
 3746TIP3    H235434   0.110   1.240  18.245  0.0728  0.1020 -1.4343
 3747TIP3   OH235435   6.676   1.274  19.386  0.3291 -0.1545  0.4397
 3747TIP3    H135436   6.763   1.283  19.347  0.4894 -0.3977  0.7455
 3747TIP3    H235437   6.643   1.190  19.354  0.7904 -0.7426  1.4753
 3748TIP3   OH235438   3.322   0.743  17.928  0.0361  0.1918  0.0419
 3748TIP3    H135439   3.350   0.830  17.898  2.2020 -0.0960  1.0830
 3748TIP3    H235440   3.303   0.695  17.847  1.6923  0.7416 -0.7165
 3749TIP3   OH235441   6.423   2.760  17.717 -0.0813 -0.2476 -0.0953
 3749TIP3    H135442   6.452   2.669  17.711  0.2044 -0.3161  1.6800
 3749TIP3    H235443   6.483   2.807  17.659 -0.5916 -1.2331 -1.4884
 3750TIP3   OH235444   0.632   6.785  18.433  0.2352  0.1543 -0.3948
 3750TIP3    H135445   0.543   6.815  18.451 -0.0971  0.7433 -2.6565
 3750TIP3    H235446   0.622   6.719  18.364  1.5567  0.4807 -0.9466
 3751TIP3   OH235447   5.048   0.722  16.988 -0.7082  0.0390 -0.2113
 3751TIP3    H135448   5.056   0.745  16.895 -1.5051  0.6077 -0.1507
 3751TIP3    H235449   4.976   0.659  16.991 -0.9351  0.3092  0.0624
 3752TIP3   OH235450   0.106   3.377  18.182 -0.1237 -0.2521 -0.6886
 3752TIP3    H135451   0.124   3.453  18.126  1.1783 -0.8991 -1.2011
 3752TIP3    H235452   0.192   3.337  18.195 -0.9372 -2.4699 -1.6463
 3753TIP3   OH235453   2.594   3.931  18.487 -0.0971 -0.2544  0.1230
 3753TIP3    H135454   2.645   4.010  18.470 -0.3856  0.4495  2.2001
 3753TIP3    H235455   2.534   3.956  18.558 -1.2432 -1.9219 -0.1994
 3754TIP3   OH235456   0.426   4.781  17.107  0.0600 -0.0414 -0.0463
 3754TIP3    H135457   0.349   4.816  17.153  0.4786  1.0344 -0.1345
 3754TIP3    H235458   0.489   4.763  17.177 -0.2041 -0.7923  0.0117
 3755TIP3   OH235459   6.174   0.837  18.590  0.5445  0.2112  0.2073
 3755TIP3    H135460   6.123   0.776  18.537 -1.7295  2.0824  0.0984
 3755TIP3    H235461   6.214   0.897  18.527  1.9830 -0.5122  0.3772
 3756TIP3   OH235462   5.617   1.245  18.630 -0.3423  0.9005  0.4977
 3756TIP3    H135463   5.569   1.226  18.710  2.8211 -0.8586  2.2100
 3756TIP3    H235464   5.607   1.339  18.617 -1.5834  1.1052  2.5429
 3757TIP3   OH235465   2.824   4.374  16.858 -0.4868  0.1206  0.2431
 3757TIP3    H135466   2.815   4.372  16.954 -0.0194  1.2599  0.3275
 3757TIP3    H235467   2.900   4.429  16.843 -1.6060  1.4332 -0.8308
 3758TIP3   OH235468   6.313   1.580  17.636 -0.5863 -0.7007 -0.2113
 3758TIP3    H135469   6.355   1.665  17.651  0.0772 -0.5859 -2.3740
 3758TIP3    H235470   6.230   1.586  17.684 -0.2790  0.9347  0.1832
 3759TIP3   OH235471   2.903   3.354  17.934 -0.3118 -0.2876  0.6846
 3759TIP3    H135472   2.932   3.275  17.888  1.6161 -1.1157  3.0786
 3759TIP3    H235473   2.957   3.424  17.899 -0.2779 -0.5245  0.2608
 3760TIP3   OH235474   7.050   7.668  17.495 -0.0112  0.2179  0.2530
 3760TIP3    H135475   7.122   7.662  17.558 -1.2430  0.5676  1.7633
 3760TIP3    H235476   7.082   7.624  17.417  1.4136 -0.6699  1.2983
 3761TIP3   OH235477   2.185   2.305  16.526 -0.4494  0.1899  0.0611
 3761TIP3    H135478   2.105   2.282  16.478 -0.3801  1.8901 -0.9669
 3761TIP3    H235479   2.184   2.401  16.528 -1.2612  0.3279  4.9275
 3762TIP3   OH235480   0.349   3.435  18.370 -0.2910  0.9375  0.5135
 3762TIP3    H135481   0.359   3.465  18.461 -0.2323  0.9502  0.5019
 3762TIP3    H235482   0.363   3.340  18.376 -1.7459  0.7109  0.7495
 3763TIP3   OH235483   1.414   4.714  17.505  0.6338 -0.1152  0.0970
 3763TIP3    H135484   1.352   4.640  17.510  1.0033 -0.3423  1.5357
 3763TIP3    H235485   1.360   4.791  17.519  0.7023 -0.3338  1.6516
 3764TIP3   OH235486   2.051   3.333  19.278 -0.3349  0.1983 -0.3838
 3764TIP3    H135487   2.063   3.337  19.373  2.4300  1.8610 -0.6751
 3764TIP3    H235488   2.009   3.416  19.256 -0.7131 -0.0618 -0.6481
 3765TIP3   OH235489   3.458   3.904  18.764 -0.7247  0.0140  0.3068
 3765TIP3    H135490   3.526   3.881  18.700 -0.3053  0.7384  0.4794
 3765TIP3    H235491   3.380   3.858  18.733 -0.2566 -0.5317 -0.1053
 3766TIP3   OH235492   1.707   7.195  17.863 -0.2021 -0.2293  0.5175
 3766TIP3    H135493   1.761   7.268  17.833  0.2336 -0.3516  0.9860
 3766TIP3    H235494   1.617   7.223  17.847 -0.1113  0.9544  1.8519
 3767TIP3   OH235495   7.383   2.126  17.048  0.1898  0.3942  0.0381
 3767TIP3    H135496   7.300   2.173  17.033  0.5011  1.6490  1.9103
 3767TIP3    H235497   7.360   2.057  17.110  0.2366 -0.3333 -0.7457
 3768TIP3   OH235498   4.829   3.307  18.283  0.3477 -0.1211  0.7872
 3768TIP3    H135499   4.904   3.346  18.329  1.6220  0.9565 -2.0020
 3768TIP3    H235500   4.865   3.231  18.238 -0.5928 -0.4873  0.6325
 3769TIP3   OH235501   3.419   1.592  19.101  0.0313 -0.6973  0.0818
 3769TIP3    H135502   3.442   1.509  19.144  1.4927 -0.3486  0.0170
 3769TIP3    H235503   3.502   1.627  19.070 -0.2879  1.5874  1.5083
 3770TIP3   OH235504   1.983   4.935  16.856 -0.8422  0.0302 -0.4885
 3770TIP3    H135505   1.932   4.873  16.803 -0.5941 -1.5750  1.0581
 3770TIP3    H235506   1.921   4.968  16.921 -0.3601 -0.5550  0.2801
 3771TIP3   OH235507   5.039   2.259  18.761 -0.5567  0.1451  0.0090
 3771TIP3    H135508   5.041   2.277  18.668 -2.1042  0.9876  0.0991
 3771TIP3    H235509   5.122   2.292  18.795 -0.8357  1.7152 -0.7648
 3772TIP3   OH235510   1.743   0.210  17.043 -0.2404  0.1546  0.1899
 3772TIP3    H135511   1.714   0.132  17.089  2.3123 -1.0699 -0.0997
 3772TIP3    H235512   1.736   0.188  16.950  2.2054 -0.5292  0.0994
 3773TIP3   OH235513   0.740   4.796  18.970 -0.0333  0.1722  0.3654
 3773TIP3    H135514   0.752   4.816  19.063  0.7399 -0.9937  0.5398
 3773TIP3    H235515   0.825   4.813  18.930 -0.3099  0.4845 -0.0960
 3774TIP3   OH235516   0.554   0.953  19.431  0.6197 -0.2989 -0.7142
 3774TIP3    H135517   0.471   0.954  19.383  0.8622  2.0202 -1.1867
 3774TIP3    H235518   0.587   0.864  19.419 -1.5544 -1.1610 -0.9007
 3775TIP3   OH235519   5.022   6.629  18.273 -0.2939 -0.4164 -0.0270
 3775TIP3    H135520   5.115   6.608  18.267 -0.6143 -1.8045 -0.2952
 3775TIP3    H235521   4.990   6.579  18.347 -0.8322  0.0862  0.0903
 3776TIP3   OH235522   1.320   3.492  18.973  0.0809 -0.0115 -0.7207
 3776TIP3    H135523   1.355   3.427  19.034  0.5419  0.9523  0.0726
 3776TIP3    H235524   1.229   3.503  19.000  0.9015  2.2514  1.5356
 3777TIP3   OH235525   7.044   5.640  17.641  0.1939 -0.1700  0.1996
 3777TIP3    H135526   6.958   5.599  17.631  0.2621 -0.5191  1.0231
 3777TIP3    H235527   7.093   5.611  17.563  0.2998 -1.8235  0.8356
 3778TIP3   OH235528   5.520   2.574  18.930  0.4062 -0.7072  0.1247
 3778TIP3    H135529   5.454   2.623  18.881 -0.4267 -0.8743  1.0533
 3778TIP3    H235530   5.523   2.489  18.887  0.8834 -0.3205 -0.6460
 3779TIP3   OH235531   2.959   5.108  19.109  0.5775  0.0565 -0.0324
 3779TIP3    H135532   2.995   5.153  19.032 -2.4733  2.3164 -0.3066
 3779TIP3    H235533   2.879   5.067  19.077  0.6597 -1.3134  1.4206
 3780TIP3   OH235534   4.331   2.500  18.167  0.4399 -0.2912  0.3680
 3780TIP3    H135535   4.419   2.532  18.184  0.7678 -0.3089 -1.1741
 3780TIP3    H235536   4.277   2.542  18.234  1.8105 -1.5108  2.3731
 3781TIP3   OH235537   7.645   1.975  17.732 -0.6653  0.4639 -0.5017
 3781TIP3    H135538   7.662   2.069  17.741  0.4081  0.3258 -0.9475
 3781TIP3    H235539   7.555   1.970  17.700  0.0628  1.4452 -2.8890
 3782TIP3   OH235540   7.256   7.018  16.895  0.0038  0.5853 -0.5073
 3782TIP3    H135541   7.264   7.109  16.924 -1.2781 -0.1035  2.4665
 3782TIP3    H235542   7.196   7.021  16.821 -1.3640  2.0642  0.5983
 3783TIP3   OH235543   4.681   7.312  18.302  0.2748 -0.0038  0.0663
 3783TIP3    H135544   4.592   7.323  18.335  0.4177  1.9293 -0.0753
 3783TIP3    H235545   4.676   7.334  18.209  1.0954  1.3047  0.3117
 3784TIP3   OH235546   6.767   6.129  18.277 -0.6214 -0.1420 -0.2975
 3784TIP3    H135547   6.757   6.141  18.182 -1.3048 -2.9969 -0.6837
 3784TIP3    H235548   6.731   6.209  18.315  2.2119  2.3422 -2.4333
 3785TIP3   OH235549   6.448   7.316  18.036  0.3692  0.1616  0.0085
 3785TIP3    H135550   6.384   7.294  17.968  0.5967  1.7783 -0.7799
 3785TIP3    H235551   6.533   7.290  17.998  0.3372 -0.6998  0.4888
 3786TIP3   OH235552   5.705   0.629  17.819 -0.0103  0.4434 -0.3805
 3786TIP3    H135553   5.680   0.721  17.822  0.3562  0.5721 -1.1310
 3786TIP3    H235554   5.789   0.628  17.773 -0.3292 -0.3256 -0.9753
 3787TIP3   OH235555   5.293   1.944  17.143  0.1862  0.5412  0.3440
 3787TIP3    H135556   5.306   1.858  17.183  1.3727  0.8604  0.6909
 3787TIP3    H235557   5.381   1.979  17.132 -0.1572  0.9233 -1.5810
 3788TIP3   OH235558   1.378   7.367  18.390 -0.2625  0.1740  0.0828
 3788TIP3    H135559   1.316   7.318  18.335  1.3215  0.8002 -2.4379
 3788TIP3    H235560   1.322   7.414  18.452 -2.4198  1.0521 -2.3378
 3789TIP3   OH235561   5.251   0.827  19.135  0.1447 -0.0327  0.0500
 3789TIP3    H135562   5.307   0.874  19.197 -1.2204  0.2711  1.0832
 3789TIP3    H235563   5.205   0.763  19.187 -0.6694 -0.1079 -0.7403
 3790TIP3   OH235564   3.639   0.143  17.663 -0.0058 -0.2064  0.4610
 3790TIP3    H135565   3.632   0.130  17.568 -1.3128 -0.2213  0.5398
 3790TIP3    H235566   3.725   0.183  17.675 -0.2655  0.8215 -0.8463
 3791TIP3   OH235567   2.813   1.787  16.986 -0.0058 -0.0770 -0.1491
 3791TIP3    H135568   2.798   1.727  16.912 -2.1487 -1.2410  1.1329
 3791TIP3    H235569   2.892   1.754  17.028  1.5156  0.8667 -2.0834
 3792TIP3   OH235570   1.543   0.090  16.553  0.5249  0.2008 -0.0629
 3792TIP3    H135571   1.468   0.067  16.498  0.5662  1.0801 -0.4994
 3792TIP3    H235572   1.593   0.152  16.501  1.0866  0.3004  0.5827
 3793TIP3   OH235573   1.841   3.473  18.547  0.5995  0.2685 -0.5452
 3793TIP3    H135574   1.926   3.429  18.540  0.2098 -0.3818 -1.2949
 3793TIP3    H235575   1.785   3.429  18.483 -0.4550  0.3672  0.2863
 3794TIP3   OH235576   0.047   5.986  17.842  0.2004 -0.0842  0.3224
 3794TIP3    H135577   0.066   6.074  17.809 -1.0322  0.5660  1.2503
 3794TIP3    H235578   0.124   5.962  17.893  0.1231  0.9094  0.9307
 3795TIP3   OH235579   0.822   5.853  17.011  0.4449 -0.1848 -0.2098
 3795TIP3    H135580   0.785   5.826  16.927  0.6404  0.8352 -0.6391
 3795TIP3    H235581   0.843   5.771  17.055 -0.1353 -0.7431 -0.9438
 3796TIP3   OH235582   3.595   2.456  18.787  0.0434 -0.0999 -0.5240
 3796TIP3    H135583   3.660   2.399  18.828  1.0570  1.6776  0.4703
 3796TIP3    H235584   3.576   2.523  18.853  0.2525  1.7281 -2.1862
 3797TIP3   OH235585   5.022   0.429  17.757 -0.0812  0.1944  0.8017
 3797TIP3    H135586   5.049   0.407  17.846  0.1189 -1.9167  0.2569
 3797TIP3    H235587   4.958   0.362  17.733 -1.2658  1.5870 -0.1419
 3798TIP3   OH235588   0.938   1.236  19.368 -0.2561 -0.4446 -0.1393
 3798TIP3    H135589   0.937   1.323  19.327  0.0959 -0.3039  0.1418
 3798TIP3    H235590   0.865   1.190  19.328 -1.2349  0.4028  0.6103
 3799TIP3   OH235591   1.049   5.223  17.487  0.5169 -0.2281  0.0923
 3799TIP3    H135592   0.975   5.222  17.427  0.2163  0.7019  0.4310
 3799TIP3    H235593   1.042   5.140  17.535  0.6172 -0.8637 -0.9643
 3800TIP3   OH235594   3.356   7.567  17.512  0.0423  0.1918  0.2516
 3800TIP3    H135595   3.410   7.526  17.580  0.3441  0.0161 -0.0940
 3800TIP3    H235596   3.385   7.526  17.431  0.3013  1.0517 -0.0906
 3801TIP3   OH235597   0.711   4.943  16.520 -0.2110 -0.5644  0.0257
 3801TIP3    H135598   0.662   4.953  16.601  1.8560 -0.1251  1.2898
 3801TIP3    H235599   0.802   4.930  16.548  0.9125  1.6473 -2.2164
 3802TIP3   OH235600   2.025   3.974  17.591 -0.5284  0.8683 -0.4111
 3802TIP3    H135601   2.053   4.064  17.579 -0.4693  0.9226  0.0898
 3802TIP3    H235602   2.052   3.929  17.511 -2.0993  1.6539 -1.4344
 3803TIP3   OH235603   4.328   1.654  18.321  0.0595 -0.0228  0.2823
 3803TIP3    H135604   4.422   1.670  18.325  0.0346  0.1661  0.1535
 3803TIP3    H235605   4.318   1.576  18.266  0.0826  0.5605 -0.5689
 3804TIP3   OH235606   2.147   5.048  19.198 -0.2676 -0.3106 -0.3119
 3804TIP3    H135607   2.161   5.139  19.170  0.5481 -1.0576 -2.5563
 3804TIP3    H235608   2.053   5.035  19.191 -0.2800  0.0856 -1.0170
 3805TIP3   OH235609   0.183   6.084  17.204  0.1374 -0.2560  0.3226
 3805TIP3    H135610   0.092   6.094  17.175  0.6454  0.4427 -1.1340
 3805TIP3    H235611   0.201   5.990  17.195 -0.0116 -0.1873 -0.7855
 3806TIP3   OH235612   7.200   0.670  18.512  0.4733  0.0611 -0.2263
 3806TIP3    H135613   7.273   0.729  18.492 -0.2454  0.9522 -0.2764
 3806TIP3    H235614   7.181   0.687  18.604  0.0338  0.1741 -0.3371
 3807TIP3   OH235615   2.883   4.261  18.764 -0.4639  0.4254  0.2536
 3807TIP3    H135616   2.833   4.242  18.843 -2.5979  0.8536 -0.9331
 3807TIP3    H235617   2.827   4.318  18.712  0.9029  0.2402 -1.5599
 3808TIP3   OH235618   1.892   6.805  19.153  0.5205  0.2589  0.7034
 3808TIP3    H135619   1.807   6.845  19.171 -0.1668  0.0034 -1.5755
 3808TIP3    H235620   1.940   6.812  19.235 -0.8943  2.4048  1.4361
 3809TIP3   OH235621   2.679   7.119  19.184  0.3208  0.2141 -0.2554
 3809TIP3    H135622   2.679   7.026  19.207  0.2162  0.0245 -1.0177
 3809TIP3    H235623   2.605   7.130  19.124 -0.1729  0.9539  0.4500
 3810TIP3   OH235624   4.361   0.134  18.113  0.0793 -0.1415  0.3516
 3810TIP3    H135625   4.338   0.067  18.178  1.3457  0.0901  1.0802
 3810TIP3    H235626   4.370   0.086  18.031 -2.4102 -0.3161  0.1026
 3811TIP3   OH235627   2.747   1.173  18.088 -0.1996 -0.5774  0.1085
 3811TIP3    H135628   2.793   1.201  18.008  0.3972 -2.8044 -0.4100
 3811TIP3    H235629   2.672   1.233  18.095 -0.7853 -0.8394 -2.6476
 3812TIP3   OH235630   0.341   5.165  18.979 -0.2922 -0.2755 -0.2686
 3812TIP3    H135631   0.323   5.195  18.889  1.4175 -0.1259 -0.5948
 3812TIP3    H235632   0.407   5.096  18.968 -0.6493 -0.8107  0.8304
 3813TIP3   OH235633   5.476   6.956  17.901 -0.7447  0.3173 -0.0292
 3813TIP3    H135634   5.496   6.866  17.924 -0.6325 -0.2364 -2.0585
 3813TIP3    H235635   5.415   6.950  17.827 -0.0817  1.8533 -0.7662
 3814TIP3   OH235636   5.989   6.031  17.332 -0.1699  0.2418 -0.3654
 3814TIP3    H135637   5.925   6.046  17.262 -1.7901  0.9210  1.1885
 3814TIP3    H235638   5.937   6.031  17.412  1.7108  0.0661  0.9081
 3815TIP3   OH235639   6.363   2.410  19.519 -0.3349 -0.1708 -1.4752
 3815TIP3    H135640   6.338   2.473  19.452  1.2530  0.7061 -1.2789
 3815TIP3    H235641   6.457   2.396  19.506  0.6768  1.9745  2.0572
 3816TIP3   OH235642   4.921   0.007  18.955 -0.7416  0.5117  0.2810
 3816TIP3    H135643   4.883  -0.076  18.926  2.5438 -0.6425 -1.2665
 3816TIP3    H235644   4.914   0.065  18.879  2.4475 -0.5083 -0.9365
 3817TIP3   OH235645   5.639   0.100  16.812  0.1978  0.4452 -0.5164
 3817TIP3    H135646   5.603   0.103  16.724 -0.2941 -0.1518 -0.3383
 3817TIP3    H235647   5.607   0.018  16.849  2.9235 -0.8823 -0.8604
 3818TIP3   OH235648   6.599   3.308  18.395 -0.0565  0.0746  0.0648
 3818TIP3    H135649   6.522   3.312  18.338 -0.3121 -0.7180  0.3333
 3818TIP3    H235650   6.572   3.251  18.467  0.9210 -0.5917 -0.0707
 3819TIP3   OH235651   2.410   4.535  18.055  0.5437  0.2146 -0.1006
 3819TIP3    H135652   2.446   4.491  17.978 -2.3141 -2.4052 -0.1083
 3819TIP3    H235653   2.428   4.476  18.128 -0.9827  0.3070  0.3856
 3820TIP3   OH235654   5.970   7.129  17.593  0.3014 -0.0194 -0.5419
 3820TIP3    H135655   6.030   7.203  17.582  0.4021 -0.0696 -0.3391
 3820TIP3    H235656   5.908   7.158  17.660  0.7605 -0.3729  0.0507
 3821TIP3   OH235657   2.652   3.824  17.552 -0.3213 -0.3942 -0.3939
 3821TIP3    H135658   2.662   3.751  17.491  3.4992 -1.1264  0.8724
 3821TIP3    H235659   2.654   3.784  17.638  2.2313  1.0955  0.3578
 3822TIP3   OH235660   1.488   0.536  17.717  0.4042  0.3765 -0.1562
 3822TIP3    H135661   1.504   0.630  17.711 -0.8718  0.7281  1.4225
 3822TIP3    H235662   1.393   0.528  17.727  0.4575 -1.1193 -0.5572
 3823TIP3   OH235663   5.457   0.015  19.144  0.1702 -0.0347 -0.2388
 3823TIP3    H135664   5.374   0.021  19.097  0.7123  1.6152 -1.0436
 3823TIP3    H235665   5.484   0.106  19.158 -0.0141 -0.3686  3.3948
 3824TIP3   OH235666   6.087   6.589  17.519 -0.0630 -0.0636 -0.1078
 3824TIP3    H135667   6.156   6.523  17.531  0.0364  0.4554  3.0999
 3824TIP3    H235668   6.134   6.668  17.495  0.4727  0.1162  1.3890
 3825TIP3   OH235669   2.562   1.387  18.066  0.6724 -0.3905 -0.3449
 3825TIP3    H135670   2.577   1.474  18.102  0.8042 -0.0019 -1.3051
 3825TIP3    H235671   2.468   1.385  18.047  0.8327 -0.0971 -1.2084
 3826TIP3   OH235672   4.677   3.171  16.835  0.1821  0.4457  0.3710
 3826TIP3    H135673   4.726   3.128  16.906  0.8515 -1.9241 -1.4256
 3826TIP3    H235674   4.594   3.195  16.875  0.2012 -1.5760  1.7865
 3827TIP3   OH235675   6.863   0.888  17.777  0.6896  0.5176 -0.1534
 3827TIP3    H135676   6.924   0.833  17.727 -0.7566  1.1582 -2.7847
 3827TIP3    H235677   6.887   0.978  17.753 -0.0804  0.8447  0.2860
 3828TIP3   OH235678   0.145   5.272  16.425 -0.2987 -0.5002 -0.2685
 3828TIP3    H135679   0.136   5.271  16.330 -0.2024  0.5650 -0.3011
 3828TIP3    H235680   0.103   5.354  16.452  2.8042  1.0348  0.2673
 3829TIP3   OH235681   4.571   6.998  19.162 -0.1829 -0.2030  0.3995
 3829TIP3    H135682   4.662   6.974  19.178 -0.4864 -1.6053  0.1154
 3829TIP3    H235683   4.520   6.927  19.200 -1.0787 -0.7425 -1.6682
 3830TIP3   OH235684   5.349   2.368  17.196 -0.8776  0.1871 -0.2285
 3830TIP3    H135685   5.422   2.347  17.139 -0.8920 -0.6773  0.0531
 3830TIP3    H235686   5.275   2.380  17.136 -0.4746  1.3006 -0.5323
 3831TIP3   OH235687   7.285   6.150  18.027  0.7693 -0.1312 -0.3377
 3831TIP3    H135688   7.259   6.103  17.947  0.5773 -0.3475 -0.1483
 3831TIP3    H235689   7.277   6.085  18.097  0.3083  0.2339 -0.0474
 3832TIP3   OH235690   4.185   4.215  17.437  0.1069 -0.0566  0.3198
 3832TIP3    H135691   4.270   4.217  17.393 -0.2943  0.8460 -0.4611
 3832TIP3    H235692   4.138   4.143  17.396  0.7331 -1.0385  1.2649
 3833TIP3   OH235693   4.706   0.494  17.498 -0.4940 -0.2747  0.0338
 3833TIP3    H135694   4.666   0.516  17.414 -0.6317  0.9925  0.4066
 3833TIP3    H235695   4.703   0.398  17.502 -1.4348 -0.3008 -0.9345
 3834TIP3   OH235696   2.760   4.477  18.376  0.0006  0.7576 -0.2960
 3834TIP3    H135697   2.851   4.454  18.396  0.3017  0.9071 -1.4056
 3834TIP3    H235698   2.765   4.521  18.292 -1.2408 -0.3514 -0.9922
 3835TIP3   OH235699   6.674   3.134  18.776  0.2423  0.3844  0.2485
 3835TIP3    H135700   6.752   3.132  18.721  0.2239  1.7081  0.1295
 3835TIP3    H235701   6.676   3.052  18.825  0.0536 -1.0317 -1.9735
 3836TIP3   OH235702   6.140   4.184  17.330 -0.0905  0.0043  0.2206
 3836TIP3    H135703   6.217   4.133  17.355  0.4952  1.2140  0.9694
 3836TIP3    H235704   6.104   4.215  17.413 -0.5075  0.6827 -0.2020
 3837TIP3   OH235705   3.750   3.484  17.384  0.3206 -0.3925 -0.2577
 3837TIP3    H135706   3.828   3.433  17.405  0.3508 -0.1993  0.1119
 3837TIP3    H235707   3.706   3.434  17.316  0.3314 -0.9295  0.1260
 3838TIP3   OH235708   1.691   0.158  16.774 -0.3172  0.1211  0.0175
 3838TIP3    H135709   1.693   0.129  16.683  4.2929 -2.0679  0.5512
 3838TIP3    H235710   1.684   0.254  16.768  0.1692  0.0642 -2.6793
 3839TIP3   OH235711   5.892   0.623  19.050 -0.2518  0.7851 -0.0315
 3839TIP3    H135712   5.860   0.671  19.126 -2.2182  3.0174 -2.0800
 3839TIP3    H235713   5.909   0.691  18.984  0.7122 -1.0696 -1.8204
 3840TIP3   OH235714   7.208   0.182  18.281 -0.0243  0.0944  0.0858
 3840TIP3    H135715   7.155   0.258  18.258 -1.6330 -0.5896  1.3617
 3840TIP3    H235716   7.272   0.215  18.344  0.2662  0.6788 -0.5094
 3841TIP3   OH235717   3.067   5.453  19.126  0.2201  0.1325  0.3540
 3841TIP3    H135718   3.125   5.485  19.057  0.6832  1.3111  1.2512
 3841TIP3    H235719   3.114   5.379  19.164 -0.1163 -0.6360 -0.6777
 3842TIP3   OH235720   5.344   4.361  18.812  0.1510  0.6355  0.3364
 3842TIP3    H135721   5.425   4.399  18.779 -0.6979  1.0585 -1.3378
 3842TIP3    H235722   5.307   4.313  18.738  0.7736 -2.9024  2.1375
 3843TIP3   OH235723   1.318   7.206  17.137  0.0646  0.1131  0.2581
 3843TIP3    H135724   1.265   7.273  17.180 -0.6954 -0.4420  0.2041
 3843TIP3    H235725   1.254   7.144  17.101  0.7247 -0.0750 -0.6243
 3844TIP3   OH235726   1.233   1.315  17.549 -0.0187  0.2717 -0.0570
 3844TIP3    H135727   1.327   1.307  17.529  0.3397  1.7178  0.8485
 3844TIP3    H235728   1.195   1.350  17.469  0.5221  1.2218  0.0780
 3845TIP3   OH235729   3.966   7.525  16.963 -0.2937  0.5139 -0.2032
 3845TIP3    H135730   3.996   7.437  16.939 -0.6327  0.4201 -0.2923
 3845TIP3    H235731   4.013   7.583  16.903 -0.4750  0.3480 -0.5105
 3846TIP3   OH235732   7.563   2.829  18.102 -0.2175 -0.2875 -0.0782
 3846TIP3    H135733   7.562   2.772  18.026  0.9846  1.0604 -1.1677
 3846TIP3    H235734   7.498   2.896  18.083  0.0293  0.0081  0.0988
 3847TIP3   OH235735   0.925   4.522  16.877 -0.6631  0.0619  0.7171
 3847TIP3    H135736   0.885   4.557  16.798 -0.9055 -1.0713  0.3083
 3847TIP3    H235737   1.008   4.485  16.847 -0.6584 -0.1882  1.0295
 3848TIP3   OH235738   3.051   5.302  17.442  0.4489 -0.1739 -0.0412
 3848TIP3    H135739   3.108   5.254  17.502  3.1118  1.6155 -0.9287
 3848TIP3    H235740   3.007   5.367  17.497 -1.1301 -1.8090  0.7186
 3849TIP3   OH235741   7.668   5.420  18.670  0.4816 -0.1117  0.1002
 3849TIP3    H135742   7.640   5.452  18.756 -1.2741 -2.0836  0.3383
 3849TIP3    H235743   7.595   5.442  18.612  0.9118 -0.3231 -0.5292
 3850TIP3   OH235744   2.464   4.570  17.693  0.1296  0.0048 -0.1915
 3850TIP3    H135745   2.460   4.490  17.641 -0.8991 -0.6336  0.8240
 3850TIP3    H235746   2.546   4.563  17.742 -0.6407 -1.1818  1.0040
 3851TIP3   OH235747   6.256   0.301  18.378  0.0060  0.4229 -0.5151
 3851TIP3    H135748   6.328   0.245  18.349  0.8878  1.8857 -1.2855
 3851TIP3    H235749   6.299   0.382  18.406 -1.2953  1.0710 -0.3250
 3852TIP3   OH235750   1.211   1.816  17.784  0.1271 -0.5404  0.1961
 3852TIP3    H135751   1.187   1.724  17.794 -1.4974 -0.2215 -0.3128
 3852TIP3    H235752   1.163   1.844  17.705 -1.0857  1.2296  1.4767
 3853TIP3   OH235753   1.491   3.733  17.803 -0.2723  0.3620 -0.3277
 3853TIP3    H135754   1.407   3.763  17.766 -1.3118  1.0019  2.3542
 3853TIP3    H235755   1.494   3.771  17.890  0.3780 -3.7962  1.7034
 3854TIP3   OH235756   3.355   5.273  18.327 -0.5929 -0.5436  0.1889
 3854TIP3    H135757   3.269   5.254  18.288 -0.8044 -1.7538  1.1740
 3854TIP3    H235758   3.414   5.208  18.288 -1.1752 -2.9905  3.0796
 3855TIP3   OH235759   0.284   0.546  18.924  0.0903 -0.6719  0.1198
 3855TIP3    H135760   0.212   0.493  18.956 -0.4489  0.1503  0.2900
 3855TIP3    H235761   0.247   0.596  18.851  0.5088 -0.3095  0.1522
 3856TIP3   OH235762   5.740   3.603  17.606 -0.2071 -0.4106  0.3361
 3856TIP3    H135763   5.672   3.603  17.674 -0.1947  0.0503  0.3505
 3856TIP3    H235764   5.797   3.530  17.629 -0.2301 -0.2872  0.7940
 3857TIP3   OH235765   5.872   3.981  19.204  0.4430  0.0028  0.2634
 3857TIP3    H135766   5.784   4.013  19.187  0.5577  0.2452  0.1151
 3857TIP3    H235767   5.927   4.060  19.203  0.5558 -0.0498  1.0668
 3858TIP3   OH235768   6.621   0.288  18.591  0.0349 -0.4510 -0.6689
 3858TIP3    H135769   6.663   0.315  18.673 -0.3606 -1.4354 -0.1254
 3858TIP3    H235770   6.670   0.211  18.563 -1.0115 -1.2516 -0.3510
 3859TIP3   OH235771   3.500   7.632  16.816 -0.4555  0.0624 -0.2706
 3859TIP3    H135772   3.570   7.695  16.799 -1.4408  1.1418 -0.4998
 3859TIP3    H235773   3.451   7.627  16.733  0.3982 -2.0825 -0.7042
 3860TIP3   OH235774   5.355   5.164  18.106 -0.8785  0.0108  0.6333
 3860TIP3    H135775   5.450   5.156  18.121 -0.8541  0.1333  0.5455
 3860TIP3    H235776   5.347   5.235  18.043 -0.9683 -0.6606 -0.1234
 3861TIP3   OH235777   7.582   3.511  16.936  0.0378 -1.2141 -0.2982
 3861TIP3    H135778   7.491   3.483  16.927 -0.5648  0.0890  1.3452
 3861TIP3    H235779   7.629   3.461  16.869 -2.4072  0.7415 -3.7645
 3862TIP3   OH235780   5.900   0.150  18.220  0.1022  0.2147  0.3271
 3862TIP3    H135781   5.899   0.057  18.243  1.0713  0.1989  0.3656
 3862TIP3    H235782   5.820   0.164  18.170  0.7006 -1.0134 -1.0561
 3863TIP3   OH235783   7.052   6.465  17.807  0.1680 -0.0196 -0.5098
 3863TIP3    H135784   7.031   6.533  17.871  0.4323  0.2830 -0.7397
 3863TIP3    H235785   7.147   6.464  17.804  0.2324 -1.6723  0.8428
 3864TIP3   OH235786   1.639   5.683  17.397 -0.4173  0.0586  0.7820
 3864TIP3    H135787   1.588   5.737  17.336  0.1755  0.5167  0.6791
 3864TIP3    H235788   1.711   5.648  17.344 -1.9319 -2.5952  0.3136
 3865TIP3   OH235789   3.416   3.019  17.680  0.2235  0.0324 -1.1739
 3865TIP3    H135790   3.425   3.115  17.674 -1.1997  0.1807 -1.2092
 3865TIP3    H235791   3.373   3.005  17.764  1.8735 -0.7143 -0.4090
 3866TIP3   OH235792   3.088   3.211  17.674 -0.3015 -0.2081 -0.4141
 3866TIP3    H135793   3.036   3.279  17.632 -0.9109  0.2245  0.9741
 3866TIP3    H235794   3.172   3.213  17.629 -1.0124  0.0233 -1.7767
 3867TIP3   OH235795   0.910   1.425  19.118  0.1586  0.0975 -0.5474
 3867TIP3    H135796   0.904   1.346  19.065 -1.6980  0.4621 -0.9262
 3867TIP3    H235797   0.969   1.483  19.068 -0.7449  0.0373 -1.7327
 3868TIP3   OH235798   1.239   1.986  19.104  0.2900 -0.0930 -0.1764
 3868TIP3    H135799   1.304   1.989  19.034  2.0384  1.5447  1.4115
 3868TIP3    H235800   1.242   2.073  19.143 -1.8110 -0.4512  0.9255
 3869TIP3   OH235801   2.244   4.858  16.922 -0.1768  0.2519  0.0246
 3869TIP3    H135802   2.155   4.852  16.887  0.1682 -1.0417 -0.7138
 3869TIP3    H235803   2.272   4.946  16.901 -0.5192 -0.0235 -1.7139
 3870TIP3   OH235804   4.296   3.318  18.530  0.1032 -0.1282  0.4378
 3870TIP3    H135805   4.286   3.412  18.546 -0.3527 -0.1965  0.5754
 3870TIP3    H235806   4.208   3.289  18.502  0.0509 -0.6545  1.1319
 3871TIP3   OH235807   3.748   3.463  17.789 -0.0753 -0.5612  0.4963
 3871TIP3    H135808   3.839   3.444  17.765 -0.1078 -0.7962  0.5556
 3871TIP3    H235809   3.745   3.450  17.884 -0.5441 -2.1284  0.2909
 3872TIP3   OH235810   2.353   0.377  19.334 -0.0007 -0.3315  0.1363
 3872TIP3    H135811   2.360   0.353  19.242 -1.0934 -0.3189  0.0438
 3872TIP3    H235812   2.390   0.302  19.381 -0.8762 -1.0243 -0.2587
 3873TIP3   OH235813   0.288   5.928  18.653 -0.2395  0.0685 -0.2236
 3873TIP3    H135814   0.382   5.922  18.671  0.0681  0.4532 -1.5772
 3873TIP3    H235815   0.260   6.008  18.698  0.0582 -0.1009  0.2640
 3874TIP3   OH235816   0.545   0.000  17.816 -0.1471  0.2480  0.1711
 3874TIP3    H135817   0.542  -0.077  17.760  1.6220 -0.9415  1.6142
 3874TIP3    H235818   0.506   0.070  17.762 -0.5082 -1.3009 -1.6931
 3875TIP3   OH235819   0.939   5.422  18.859 -0.1742  0.6702  0.1792
 3875TIP3    H135820   0.875   5.353  18.845  1.8407 -1.0598 -1.0663
 3875TIP3    H235821   0.891   5.490  18.906 -2.3589 -1.3587  1.0673
 3876TIP3   OH235822   3.281   1.471  18.351 -0.0014 -0.7955  0.0957
 3876TIP3    H135823   3.271   1.566  18.338 -0.0257 -0.3613  2.7379
 3876TIP3    H235824   3.221   1.451  18.423  0.0397 -2.8270 -0.4015
 3877TIP3   OH235825   4.385   6.299  18.691  0.6141  0.1626 -0.5929
 3877TIP3    H135826   4.408   6.206  18.701 -0.2934  0.0847  1.0922
 3877TIP3    H235827   4.293   6.304  18.715  0.7728  1.5741 -0.1769
 3878TIP3   OH235828   3.232   0.367  18.658  0.3731 -0.0006 -0.1503
 3878TIP3    H135829   3.141   0.357  18.683  0.4205  0.7566  0.3463
 3878TIP3    H235830   3.267   0.278  18.656 -0.6321 -0.4047 -1.3704
 3879TIP3   OH235831   1.380   5.079  19.325 -0.6178  0.0896  0.1572
 3879TIP3    H135832   1.302   5.071  19.269  0.2605 -2.5338 -0.8834
 3879TIP3    H235833   1.447   5.116  19.268  0.0558 -1.8430 -0.4079
 3880TIP3   OH235834   5.586   1.252  19.098  0.4021  0.1487  0.9099
 3880TIP3    H135835   5.572   1.337  19.057 -0.1827 -0.4034 -0.0866
 3880TIP3    H235836   5.662   1.216  19.053 -1.0553 -1.0438 -0.7623
 3881TIP3   OH235837   0.623   4.330  17.334  0.1227 -0.2605  0.3289
 3881TIP3    H135838   0.628   4.419  17.299 -0.0270 -0.2570  0.3164
 3881TIP3    H235839   0.673   4.277  17.272 -0.3279 -0.2902 -0.0137
 3882TIP3   OH235840   7.099   1.455  19.498 -0.4432  0.8862  0.4442
 3882TIP3    H135841   7.162   1.395  19.538  0.0117  0.5215 -0.7817
 3882TIP3    H235842   7.072   1.513  19.570 -1.9808 -1.6322  2.0673
 3883TIP3   OH235843   2.904   3.392  17.592  0.3396 -0.0667 -0.2951
 3883TIP3    H135844   2.819   3.394  17.638 -0.8532  0.8708 -2.3966
 3883TIP3    H235845   2.891   3.330  17.521  2.2266 -1.6477  0.6542
 3884TIP3   OH235846   3.668   1.848  17.606  0.8167 -0.4043 -0.1896
 3884TIP3    H135847   3.682   1.939  17.630  0.0870 -0.1547 -0.6926
 3884TIP3    H235848   3.681   1.846  17.511 -3.2573  0.0586 -0.9344
 3885TIP3   OH235849   6.208   3.736  18.316  0.1056 -0.5204 -0.1962
 3885TIP3    H135850   6.161   3.745  18.233  0.3082  1.6968 -0.1504
 3885TIP3    H235851   6.168   3.661  18.359 -2.9280  0.7805 -0.4922
 3886TIP3   OH235852   1.767   0.971  17.998 -0.3599 -0.5035  0.6055
 3886TIP3    H135853   1.799   0.987  17.910  0.4276 -0.5055  0.8785
 3886TIP3    H235854   1.694   1.032  18.009  0.2275  0.2699  0.3311
 3887TIP3   OH235855   3.434   1.395  17.719  0.0533 -0.2490  0.2496
 3887TIP3    H135856   3.505   1.455  17.740 -1.4063  1.7076 -0.1702
 3887TIP3    H235857   3.413   1.413  17.628  1.0475 -3.0596 -0.6594
 3888TIP3   OH235858   7.541   6.914  18.133  0.9050  0.5552 -0.1257
 3888TIP3    H135859   7.565   6.833  18.087  0.3129  0.5635 -0.4531
 3888TIP3    H235860   7.527   6.978  18.063  1.9726  1.1155  0.1580
 3889TIP3   OH235861   2.294   1.255  18.108  0.0444  0.0606 -0.2354
 3889TIP3    H135862   2.337   1.171  18.124  0.6539  0.2749 -0.6992
 3889TIP3    H235863   2.298   1.300  18.193 -1.4847 -0.8850  0.3830
 3890TIP3   OH235864   0.657   1.416  17.069 -0.3949 -0.3396 -0.2952
 3890TIP3    H135865   0.581   1.473  17.060  0.0557  0.7107  1.8788
 3890TIP3    H235866   0.724   1.458  17.015 -0.8865 -0.4117 -0.9772
 3891TIP3   OH235867   4.159   2.606  18.668  0.5067  0.1687 -0.3048
 3891TIP3    H135868   4.243   2.634  18.706  0.0178  0.3179  0.6936
 3891TIP3    H235869   4.109   2.687  18.658 -0.6903 -0.1980  2.0463
 3892TIP3   OH235870   3.380   2.705  18.143 -0.3322 -0.1225  0.2316
 3892TIP3    H135871   3.445   2.683  18.076  0.5882 -1.4983  1.5356
 3892TIP3    H235872   3.429   2.750  18.211 -1.2573  1.2170  0.0678
 3893TIP3   OH235873   3.664   5.502  17.131 -0.8184 -0.1136  0.1800
 3893TIP3    H135874   3.738   5.556  17.161 -1.7344  0.3447  1.7733
 3893TIP3    H235875   3.589   5.561  17.137 -2.0065 -1.7201  2.8203
 3894TIP3   OH235876   1.629   0.943  19.563 -0.3613 -0.2454 -0.3911
 3894TIP3    H135877   1.691   0.941  19.636 -1.4058 -0.2205  0.5163
 3894TIP3    H235878   1.635   0.855  19.524  2.4188  0.6131 -2.2515
 3895TIP3   OH235879   5.726   6.800  18.856 -0.3106 -0.1843 -0.5860
 3895TIP3    H135880   5.649   6.805  18.798 -0.7508 -1.9022 -0.2055
 3895TIP3    H235881   5.740   6.707  18.869 -0.4848  0.1241  2.4181
 3896TIP3   OH235882   0.334   4.051  17.913 -0.1007  0.0767  0.4715
 3896TIP3    H135883   0.426   4.046  17.938 -0.4047 -0.5283  1.5451
 3896TIP3    H235884   0.298   3.965  17.933 -0.7650  0.0958 -0.5387
 3897TIP3   OH235885   1.872   3.713  18.017  0.0533  0.1886 -0.6407
 3897TIP3    H135886   1.829   3.635  18.050 -0.4082  0.4277 -0.6733
 3897TIP3    H235887   1.855   3.780  18.083 -0.1809  0.4518 -0.9656
 3898TIP3   OH235888   7.261   2.770  19.067  0.1710 -0.0832  0.5092
 3898TIP3    H135889   7.315   2.694  19.092 -0.5645  0.2244  3.3326
 3898TIP3    H235890   7.191   2.733  19.014  1.2178 -0.9721 -0.3142
 3899TIP3   OH235891   5.807   5.384  17.428  0.5520  0.1749  0.1236
 3899TIP3    H135892   5.759   5.345  17.355  3.1784 -2.1229 -0.5641
 3899TIP3    H235893   5.813   5.477  17.406  1.2840 -0.4438 -2.6855
 3900TIP3   OH235894   1.079   0.139  19.222  0.0743 -0.3233 -0.3096
 3900TIP3    H135895   1.119   0.223  19.244  2.3843 -1.7206  1.3290
 3900TIP3    H235896   1.008   0.129  19.287  1.9670 -1.0290  1.7846
 3901TIP3   OH235897   7.169   5.080  17.037  0.1111  0.1174 -0.5087
 3901TIP3    H135898   7.239   5.102  17.097 -1.3028 -0.0294  1.2739
 3901TIP3    H235899   7.128   5.002  17.073 -2.0546  1.1724 -0.4639
 3902TIP3   OH235900   5.086   3.064  19.215 -0.2345 -0.2454 -0.7980
 3902TIP3    H135901   5.117   3.100  19.298  1.2560 -1.9572 -0.5470
 3902TIP3    H235902   5.124   2.977  19.211 -0.6491 -0.3871 -3.0879
 3903TIP3   OH235903   6.060   3.046  16.905  0.2536  0.0723 -0.6781
 3903TIP3    H135904   6.145   3.032  16.865  0.1648 -0.5150 -0.6768
 3903TIP3    H235905   6.000   2.991  16.854  0.1041 -0.5218  0.1210
 3904TIP3   OH235906   4.455   5.542  18.128 -0.4674 -0.0170 -0.1896
 3904TIP3    H135907   4.512   5.533  18.204 -1.1256 -0.2601  0.2886
 3904TIP3    H235908   4.512   5.529  18.052  0.3310  0.9450  0.2353
 3905TIP3   OH235909   0.522   2.839  17.345 -0.0063  1.0585  0.3571
 3905TIP3    H135910   0.539   2.753  17.381 -1.8092  0.4718 -0.0608
 3905TIP3    H235911   0.491   2.822  17.256 -1.6765  1.9937  0.7116
 3906TIP3   OH235912   7.142   6.510  17.175 -0.3247 -0.5833 -0.1271
 3906TIP3    H135913   7.083   6.585  17.172  0.6338  0.2595  1.0440
 3906TIP3    H235914   7.207   6.528  17.107  0.7815  0.4543  1.1536
 3907TIP3   OH235915   4.953   6.106  16.688 -0.4487 -0.7341  0.0260
 3907TIP3    H135916   5.043   6.100  16.718 -0.7064 -0.1870  0.9589
 3907TIP3    H235917   4.953   6.180  16.627 -0.3642 -0.4194  0.4057
 3908TIP3   OH235918   2.195   5.069  18.388  0.0890 -0.1874 -0.3872
 3908TIP3    H135919   2.266   5.006  18.374 -1.4992 -1.7865 -1.6281
 3908TIP3    H235920   2.183   5.111  18.303 -1.2327 -0.7804 -0.5018
 3909TIP3   OH235921   2.609   4.097  17.646  0.6795 -0.2357  0.3701
 3909TIP3    H135922   2.637   4.018  17.599  2.0623  0.1043  0.5620
 3909TIP3    H235923   2.556   4.064  17.718  2.4339 -1.1452  1.3203
 3910TIP3   OH235924   2.053   2.731  18.185 -0.1279 -0.0231 -0.2115
 3910TIP3    H135925   2.068   2.650  18.234  1.2496 -0.9626 -2.0700
 3910TIP3    H235926   1.999   2.703  18.110 -0.2383  0.9155 -0.4899
 3911TIP3   OH235927   0.508   6.777  18.025  0.2114 -0.5638  0.1257
 3911TIP3    H135928   0.484   6.862  18.063  0.7840 -0.2295 -0.2412
 3911TIP3    H235929   0.552   6.731  18.096 -0.4146 -0.6919  0.4301
 3912TIP3   OH235930   0.528   3.326  19.013  0.1849  0.5765 -0.1663
 3912TIP3    H135931   0.565   3.238  19.017 -0.4740  0.0150 -3.4379
 3912TIP3    H235932   0.496   3.343  19.101 -0.5138 -2.8423  0.3751
 3913TIP3   OH235933   5.025   5.194  18.385  0.7237 -0.2114 -0.3671
 3913TIP3    H135934   4.988   5.120  18.434 -0.1037  1.3809  1.5580
 3913TIP3    H235935   5.120   5.180  18.390  0.6244 -0.5474  0.9861
 3914TIP3   OH235936   4.472   4.707  18.503  0.1504  0.1243 -0.5981
 3914TIP3    H135937   4.427   4.676  18.425 -0.6531  1.2281 -0.6026
 3914TIP3    H235938   4.466   4.634  18.565 -2.8676  0.6359 -0.1135
 3915TIP3   OH235939   2.685   2.877  17.415  0.4790 -0.1540 -0.3233
 3915TIP3    H135940   2.611   2.928  17.448  0.4915 -0.2658 -0.1231
 3915TIP3    H235941   2.755   2.892  17.479  0.3867 -0.6679 -0.0979
 3916TIP3   OH235942   6.235   2.119  19.502  0.5811 -0.0496 -0.2066
 3916TIP3    H135943   6.289   2.192  19.530  1.1627 -0.0742 -1.2182
 3916TIP3    H235944   6.296   2.056  19.463 -0.1013 -0.2826 -0.9486
 3917TIP3   OH235945   6.063   5.191  17.588 -0.6184  0.0467  0.0256
 3917TIP3    H135946   6.143   5.228  17.551 -1.0160  1.0233  0.1077
 3917TIP3    H235947   5.998   5.199  17.518 -0.5196 -1.2706 -0.2459
 3918TIP3   OH235948   2.407   4.176  18.375 -0.2143  0.1411  0.4389
 3918TIP3    H135949   2.423   4.103  18.436 -0.6243 -0.1720  0.1751
 3918TIP3    H235950   2.386   4.250  18.432 -2.9048 -0.6952  0.6639
 3919TIP3   OH235951   0.215   5.134  18.747  0.4668 -0.6100  0.3072
 3919TIP3    H135952   0.138   5.123  18.691 -0.6372  2.1358  1.1212
 3919TIP3    H235953   0.228   5.048  18.787 -1.6724 -1.3691 -0.4811
 3920TIP3   OH235954   4.707   6.001  19.098  0.0370  0.2290  0.6247
 3920TIP3    H135955   4.766   5.965  19.033 -0.6537  2.0229 -1.0944
 3920TIP3    H235956   4.720   6.096  19.093 -1.7551  0.5705  1.3928
 3921TIP3   OH235957   5.643   7.207  19.391 -0.1040  0.1193  0.1343
 3921TIP3    H135958   5.566   7.264  19.388 -1.0992 -1.1836 -0.2997
 3921TIP3    H235959   5.608   7.119  19.378  1.4651 -0.5254  0.0095
 3922TIP3   OH235960   7.342   0.682  17.517 -0.0465 -0.2701 -0.0391
 3922TIP3    H135961   7.259   0.673  17.470  0.9123  2.9983 -2.8203
 3922TIP3    H235962   7.404   0.629  17.467 -0.0203 -1.1575  0.8919
 3923TIP3   OH235963   3.081   6.177  19.383  0.0651 -0.2369 -0.2979
 3923TIP3    H135964   3.027   6.245  19.343  0.2948  0.0899 -0.0513
 3923TIP3    H235965   3.040   6.161  19.468  0.1213 -0.2762 -0.2777
 3924TIP3   OH235966   2.880   3.138  18.143  0.0594 -0.1623 -0.1498
 3924TIP3    H135967   2.866   3.218  18.091 -1.6008  1.4175  2.4690
 3924TIP3    H235968   2.954   3.159  18.200  2.0925 -2.0016 -1.9612
 3925TIP3   OH235969   2.474   5.147  18.802  0.3910  0.3404 -0.2536
 3925TIP3    H135970   2.498   5.056  18.786 -0.3585  0.3501 -1.6257
 3925TIP3    H235971   2.498   5.163  18.893  0.8319 -1.1243 -0.0861
 3926TIP3   OH235972   0.711   0.353  19.103  0.2567  0.6815  0.3812
 3926TIP3    H135973   0.656   0.423  19.138  1.6908  1.9424  0.2236
 3926TIP3    H235974   0.794   0.396  19.083  1.0558 -1.0063 -0.0784
 3927TIP3   OH235975   0.566   3.247  17.107  0.6144  0.1551  0.1587
 3927TIP3    H135976   0.619   3.197  17.045 -0.0240  0.0375 -0.2961
 3927TIP3    H235977   0.604   3.335  17.106 -0.4036  0.6084 -1.6407
 3928TIP3   OH235978   6.026   0.385  19.346  0.5358 -0.1130  0.1479
 3928TIP3    H135979   6.091   0.319  19.322 -0.3358 -1.2065  0.7079
 3928TIP3    H235980   6.042   0.403  19.438 -0.0554 -0.5030  0.3280
 3929TIP3   OH235981   2.347   3.475  19.462  0.0506  0.2450  0.3099
 3929TIP3    H135982   2.337   3.536  19.535 -1.8813  0.1296  0.1989
 3929TIP3    H235983   2.330   3.528  19.384  0.8254  0.0837  0.0192
 3930TIP3   OH235984   0.119   6.235  17.716  0.1867 -0.6475  0.5679
 3930TIP3    H135985   0.198   6.238  17.661  0.2397  0.2359  0.6835
 3930TIP3    H235986   0.082   6.323  17.710 -0.5708 -0.9400  0.8439
 3931TIP3   OH235987   4.229   3.244  19.175  0.2665  0.5876  0.6993
 3931TIP3    H135988   4.166   3.185  19.217 -0.8645  0.4158 -1.1484
 3931TIP3    H235989   4.296   3.186  19.138 -1.1035  0.3391 -1.5451
 3932TIP3   OH235990   1.636   5.478  17.572  0.6944  0.2427  0.8146
 3932TIP3    H135991   1.555   5.465  17.622  0.0630 -1.1683 -0.4784
 3932TIP3    H235992   1.616   5.552  17.514  0.8140  0.7438  1.3973
 3933TIP3   OH235993   2.331   1.637  18.886 -0.2451  0.3353 -0.0482
 3933TIP3    H135994   2.290   1.642  18.972 -0.0410  0.0726  0.0632
 3933TIP3    H235995   2.381   1.556  18.887  0.4288  0.7425 -0.1181
 3934TIP3   OH235996   4.765   6.201  17.566 -0.2575  0.6842  0.0674
 3934TIP3    H135997   4.783   6.295  17.573  0.2341  1.1705 -4.8447
 3934TIP3    H235998   4.672   6.197  17.543 -0.1955 -0.0338 -0.0553
 3935TIP3   OH235999   4.617   7.561  17.306  0.6189  0.2543 -0.8265
 3935TIP3    H136000   4.544   7.623  17.309  0.3532 -0.0567 -0.8111
 3935TIP3    H236001   4.578   7.477  17.333  1.3677  0.4555  1.0525
 3936TIP3   OH236002   1.431   6.553  16.969  0.2872 -0.5820  0.0825
 3936TIP3    H136003   1.521   6.584  16.959 -0.5143  1.6463 -0.8531
 3936TIP3    H236004   1.389   6.617  17.026 -1.4706  0.1966 -1.9463
 3937TIP3   OH236005   0.596   5.854  18.673 -0.7684 -0.0827  0.1182
 3937TIP3    H136006   0.552   5.770  18.660 -1.5267 -0.0481  2.1442
 3937TIP3    H236007   0.690   5.832  18.672 -0.9402 -0.8321 -0.0713
 3938TIP3   OH236008   0.829   2.302  18.876  0.1346 -0.4451 -0.8049
 3938TIP3    H136009   0.888   2.350  18.935 -3.8874  1.1290  2.4905
 3938TIP3    H236010   0.807   2.365  18.808 -0.1946  0.1162 -0.1904
 3939TIP3   OH236011   5.706   6.038  17.330 -0.1072  0.1939 -0.1409
 3939TIP3    H136012   5.661   6.077  17.405 -1.5219  0.3458 -1.0311
 3939TIP3    H236013   5.635   6.016  17.269  0.6771 -2.9043 -0.0954
 3940TIP3   OH236014   3.032   3.927  17.453 -0.0361 -0.3577  0.5304
 3940TIP3    H136015   3.050   3.923  17.359 -1.2085 -0.3731  0.2824
 3940TIP3    H236016   2.997   3.840  17.474  1.3655 -0.7662  1.2504
 3941TIP3   OH236017   2.537   0.901  17.181 -0.4233 -0.3871  0.0458
 3941TIP3    H136018   2.576   0.821  17.216 -0.6488 -1.0734 -1.2132
 3941TIP3    H236019   2.602   0.934  17.118 -0.1327  0.6850  0.8776
 3942TIP3   OH236020   5.373   5.029  16.897  0.1215  0.2859 -0.2568
 3942TIP3    H136021   5.356   5.000  16.808 -0.3175 -1.1211  0.2603
 3942TIP3    H236022   5.289   5.022  16.942 -0.0095  2.4121 -0.0787
 3943TIP3   OH236023   1.830   0.973  18.289  0.1325 -0.9447  0.0838
 3943TIP3    H136024   1.865   0.884  18.289  1.7891 -0.3924 -2.1348
 3943TIP3    H236025   1.783   0.981  18.206  1.9784  0.8644 -0.8956
 3944TIP3   OH236026   5.955   1.594  16.788 -0.1862 -0.2935 -0.3954
 3944TIP3    H136027   5.883   1.656  16.800 -0.1930 -0.6778  2.1141
 3944TIP3    H236028   6.034   1.644  16.810  0.1326 -0.3715 -1.3337
 3945TIP3   OH236029   7.592   7.468  19.185 -0.7407  0.6698 -0.5904
 3945TIP3    H136030   7.544   7.445  19.106 -1.3708  0.0188 -0.0395
 3945TIP3    H236031   7.533   7.526  19.233 -1.2274 -0.5174  0.3172
 3946TIP3   OH236032   7.544   0.861  18.238 -0.4298 -0.2575  0.1310
 3946TIP3    H136033   7.522   0.954  18.249 -2.1019 -0.3039 -2.1767
 3946TIP3    H236034   7.606   0.860  18.165 -0.8057 -0.9996 -0.1835
 3947TIP3   OH236035   4.137   3.475  18.753  0.3030  0.0699  0.1350
 3947TIP3    H136036   4.114   3.510  18.840 -1.5554  1.4210 -0.8169
 3947TIP3    H236037   4.066   3.414  18.733 -0.1015  0.8609 -0.9893
 3948TIP3   OH236038   0.086   0.327  19.326  0.8386 -0.6799  0.1799
 3948TIP3    H136039   0.022   0.303  19.259  0.4354  0.3302  0.1768
 3948TIP3    H236040   0.168   0.288  19.297 -0.1447 -3.8405  1.2617
 3949TIP3   OH236041   1.768   7.489  18.584 -0.5599 -0.4613 -0.3929
 3949TIP3    H136042   1.723   7.571  18.607 -0.8206 -0.0947 -2.0856
 3949TIP3    H236043   1.736   7.426  18.648 -2.0022  0.2680 -0.3430
 3950TIP3   OH236044   6.102   6.990  19.173 -0.4072 -0.5019  0.2179
 3950TIP3    H136045   6.025   7.035  19.207 -1.4337 -0.1400 -2.3655
 3950TIP3    H236046   6.068   6.930  19.106  1.5220 -0.1570 -1.1768
 3951TIP3   OH236047   5.736   2.353  18.480 -0.5677 -0.1585 -0.3536
 3951TIP3    H136048   5.670   2.421  18.466  1.2683  1.2876 -2.7593
 3951TIP3    H236049   5.746   2.311  18.395  1.7357 -0.1826 -0.1335
 3952TIP3   OH236050   3.991   4.405  17.453 -0.4839 -0.1496  0.2122
 3952TIP3    H136051   4.059   4.338  17.445  0.6661  0.9152  0.6497
 3952TIP3    H236052   3.909   4.360  17.432  0.2575 -1.6672  0.4584
 3953TIP3   OH236053   7.018   4.617  19.411  0.0352 -0.1912  0.5643
 3953TIP3    H136054   6.996   4.618  19.505 -1.7602 -0.2943  0.1811
 3953TIP3    H236055   6.941   4.654  19.368  0.7757 -0.2872 -0.8939
 3954TIP3   OH236056   3.245   0.630  17.242 -0.0400 -0.2066  0.7972
 3954TIP3    H136057   3.168   0.612  17.187  0.3347 -0.9905  0.5159
 3954TIP3    H236058   3.299   0.551  17.234  1.6958  1.0436 -0.5000
 3955TIP3   OH236059   2.397   5.758  17.216 -0.5851 -0.2831 -0.9158
 3955TIP3    H136060   2.467   5.696  17.238  1.1264  1.8601  0.0064
 3955TIP3    H236061   2.427   5.799  17.134  2.5440  4.8417  2.2466
 3956TIP3   OH236062   2.604   5.067  17.558 -0.4798  0.1608 -0.2073
 3956TIP3    H136063   2.682   5.042  17.507  0.1615  2.4153 -0.4742
 3956TIP3    H236064   2.558   4.985  17.573  1.9626 -1.2909 -0.0164
 3957TIP3   OH236065   6.095   5.567  18.291  0.9581  0.2128 -0.6188
 3957TIP3    H136066   6.110   5.473  18.303  1.1269  0.0755 -1.7656
 3957TIP3    H236067   6.156   5.591  18.221  0.5408  1.0663 -0.6896
 3958TIP3   OH236068   3.508   6.030  17.822  0.0409  0.6167 -0.4510
 3958TIP3    H136069   3.518   6.014  17.915 -2.7903 -0.5933 -0.2624
 3958TIP3    H236070   3.568   5.969  17.780  0.5763  0.4503  0.5454
 3959TIP3   OH236071   7.521   7.157  17.776 -0.0991 -0.0935 -0.0280
 3959TIP3    H136072   7.590   7.183  17.837 -1.0062  1.6295  0.3132
 3959TIP3    H236073   7.565   7.145  17.692  0.5050  1.8097 -0.0077
 3960TIP3   OH236074   5.226   7.186  18.897 -0.0096  0.5711 -0.0326
 3960TIP3    H136075   5.262   7.274  18.893 -1.5772  1.2108 -0.5962
 3960TIP3    H236076   5.145   7.190  18.848 -0.9868 -0.7613  1.3651
 3961TIP3   OH236077   5.952   4.747  18.177  0.2828  0.6395  0.1391
 3961TIP3    H136078   5.892   4.803  18.227  1.0590  0.8820  0.8157
 3961TIP3    H236079   6.029   4.738  18.234 -0.5330 -2.6531  0.9053
 3962TIP3   OH236080   7.607   5.016  17.395 -0.1501 -0.2102 -0.5820
 3962TIP3    H136081   7.657   5.023  17.314 -1.9240 -1.0665 -1.8101
 3962TIP3    H236082   7.604   5.105  17.429  0.5804  0.1728 -1.4788
 3963TIP3   OH236083   4.638   1.647  17.264 -0.2011 -0.2258 -0.0647
 3963TIP3    H136084   4.653   1.648  17.359 -1.0788 -1.5843  0.1218
 3963TIP3    H236085   4.701   1.584  17.230 -0.5252 -0.4582 -0.2451
 3964TIP3   OH236086   1.606   6.092  17.804  0.3049  0.5981  0.3502
 3964TIP3    H136087   1.588   6.059  17.716  0.9193  3.3475 -0.9053
 3964TIP3    H236088   1.701   6.089  17.812  0.2439  0.2757  0.9714
 3965TIP3   OH236089   3.265   2.468  16.723 -0.0542 -0.0096 -0.7534
 3965TIP3    H136090   3.237   2.545  16.773 -0.0940 -0.2596 -0.3823
 3965TIP3    H236091   3.298   2.503  16.640  0.2068  0.4300 -0.4673
 3966TIP3   OH236092   4.691   3.770  17.376  0.2369 -0.0271 -0.4026
 3966TIP3    H136093   4.604   3.741  17.349 -0.2641  0.4762  0.6337
 3966TIP3    H236094   4.731   3.804  17.296 -0.6041 -0.0478 -0.8430
 3967TIP3   OH236095   0.592   2.054  19.329 -0.4463 -0.2529 -0.0366
 3967TIP3    H136096   0.544   2.083  19.406 -0.0504 -0.8496  0.4474
 3967TIP3    H236097   0.531   1.994  19.284  0.0188 -1.4575  0.8791
 3968TIP3   OH236098   5.282   6.031  17.575 -0.0826 -0.5522 -0.0894
 3968TIP3    H136099   5.280   6.127  17.574  1.9810 -0.4699 -0.8760
 3968TIP3    H236100   5.264   6.006  17.484  0.6392 -0.8648 -0.1464
 3969TIP3   OH236101   7.536   5.258  18.255 -0.3832  0.0643  0.2930
 3969TIP3    H136102   7.561   5.316  18.184 -2.3939  1.4828  0.6672
 3969TIP3    H236103   7.608   5.194  18.260  1.6640  2.1550 -0.4878
 3970TIP3   OH236104   0.524   0.560  19.045 -0.5804 -0.2490  0.3689
 3970TIP3    H136105   0.439   0.537  19.008 -0.7838  0.2144  0.5497
 3970TIP3    H236106   0.564   0.617  18.979 -1.1525  0.9954  1.0680
 3971TIP3   OH236107   1.893   5.010  17.215  0.5496 -0.1580 -0.4404
 3971TIP3    H136108   1.946   5.068  17.160 -1.4455  1.2641 -0.9872
 3971TIP3    H236109   1.803   5.024  17.185 -0.3885 -0.9341  1.7785
 3972TIP3   OH236110   0.595   4.257  17.642 -0.0115 -0.2339 -0.2551
 3972TIP3    H136111   0.500   4.264  17.646 -0.0695 -1.3802  1.9990
 3972TIP3    H236112   0.620   4.314  17.569 -2.4427 -0.3742 -1.3087
 3973TIP3   OH236113   0.065   2.041  18.873  0.3506  0.2481 -0.3192
 3973TIP3    H136114   0.017   2.112  18.917  2.2693  0.5709  1.4236
 3973TIP3    H236115   0.006   1.966  18.876 -0.0033  0.5423  2.0204
 3974TIP3   OH236116   1.049   1.581  18.393 -0.3718  0.1512  0.0561
 3974TIP3    H136117   1.063   1.597  18.300  2.7972 -2.1205 -0.0272
 3974TIP3    H236118   1.029   1.487  18.398  2.2921 -0.4209  1.7566
 3975TIP3   OH236119   4.865   5.398  18.435  0.4373  0.0532 -0.2695
 3975TIP3    H136120   4.922   5.328  18.403 -1.1842 -0.7423 -1.5379
 3975TIP3    H236121   4.900   5.420  18.521  1.2518 -2.0206 -0.0121
 3976TIP3   OH236122   2.677   1.640  17.541  0.3673 -0.1097 -0.1012
 3976TIP3    H136123   2.691   1.591  17.623  1.9852 -1.8994 -1.3727
 3976TIP3    H236124   2.758   1.689  17.528 -1.1515  2.9899  1.0501
 3977TIP3   OH236125   6.307   6.626  17.749 -0.5412  0.1793 -0.4085
 3977TIP3    H136126   6.369   6.569  17.704 -0.5008  0.3632 -0.5866
 3977TIP3    H236127   6.275   6.573  17.823 -1.0452 -0.3409 -0.9821
 3978TIP3   OH236128   0.329   0.996  18.930  0.5025  0.2071 -0.7889
 3978TIP3    H136129   0.330   1.081  18.885 -0.2081  1.0723  0.7557
 3978TIP3    H236130   0.277   0.939  18.873 -1.3738  1.5939 -0.5618
 3979TIP3   OH236131   6.400   1.907  19.379  0.3664  0.0947 -0.0044
 3979TIP3    H136132   6.480   1.933  19.332  0.8753  0.6035  1.0901
 3979TIP3    H236133   6.392   1.814  19.363 -0.5839  0.5646 -2.7112
 3980TIP3   OH236134   0.920   4.899  19.179  0.3927  0.7549  0.5020
 3980TIP3    H136135   0.858   4.957  19.223  1.3862  1.1459  1.4181
 3980TIP3    H236136   1.006   4.928  19.209  1.1493  1.2165 -1.9002
 3981TIP3   OH236137   6.327   0.021  18.506  0.0917  0.7721 -0.2161
 3981TIP3    H136138   6.367  -0.062  18.480  2.0189  0.1574  3.8726
 3981TIP3    H236139   6.237  -0.002  18.527  0.5285 -0.2915  0.6080
 3982TIP3   OH236140   7.388   0.953  18.826 -0.6812  0.1524  0.4824
 3982TIP3    H136141   7.318   0.988  18.771 -2.1584 -0.9510  1.5921
 3982TIP3    H236142   7.387   0.858  18.809  0.1706  0.0471  0.9470
 3983TIP3   OH236143   0.818   0.528  18.435 -0.0826 -0.0717  0.5769
 3983TIP3    H136144   0.816   0.433  18.449  2.5574 -0.1641  0.9622
 3983TIP3    H236145   0.883   0.540  18.366 -0.6944  1.4550  0.2276
 3984TIP3   OH236146   7.268   6.808  18.698  0.0377 -0.6247  0.0119
 3984TIP3    H136147   7.247   6.850  18.614  0.8182  0.5252  0.3701
 3984TIP3    H236148   7.299   6.721  18.673 -0.5208 -0.6016 -0.8330
 3985TIP3   OH236149   7.427   0.250  19.395  0.1847 -0.2319  0.0953
 3985TIP3    H136150   7.460   0.310  19.462  1.2341 -1.1645  0.4467
 3985TIP3    H236151   7.383   0.306  19.332  3.0831  1.2546 -0.8148
 3986TIP3   OH236152   6.424   6.567  18.588  0.7135 -0.5969  0.3576
 3986TIP3    H136153   6.368   6.637  18.621  0.2837 -0.2582 -1.0374
 3986TIP3    H236154   6.405   6.492  18.645  1.2830  0.4154  1.9640
 3987TIP3   OH236155   6.746   4.401  18.245 -0.1974  0.6173  0.0608
 3987TIP3    H136156   6.832   4.360  18.243 -0.4754 -0.0030  0.3537
 3987TIP3    H236157   6.756   4.482  18.195  0.8835  1.2408  1.2469
 3988TIP3   OH236158   5.108   4.792  18.288  0.5470  0.2637  0.5852
 3988TIP3    H136159   5.084   4.795  18.195  1.1217 -2.0421  0.2959
 3988TIP3    H236160   5.031   4.824  18.334  0.0025  0.8082 -0.6675
 3989TIP3   OH236161   2.172   2.663  19.129 -0.1259 -0.3848 -0.4326
 3989TIP3    H136162   2.105   2.692  19.067  1.8334  1.5541 -1.7868
 3989TIP3    H236163   2.199   2.743  19.174  0.5831 -1.2982  0.8224
 3990TIP3   OH236164   6.377   2.947  19.387  0.7840 -0.2636  0.2807
 3990TIP3    H136165   6.316   2.981  19.321  0.3332  0.4687  1.0675
 3990TIP3    H236166   6.353   2.991  19.468  2.3954  0.0790  0.6100
 3991TIP3   OH236167   1.522   2.227  19.505 -0.4434  0.4272  0.1357
 3991TIP3    H136168   1.599   2.264  19.462 -1.3140  0.1027 -1.8030
 3991TIP3    H236169   1.534   2.132  19.497 -1.2675  0.3770 -0.6488
 3992TIP3   OH236170   6.469   7.148  17.227  0.5965 -0.1429 -0.3882
 3992TIP3    H136171   6.455   7.229  17.179 -1.3342 -0.5178 -0.5506
 3992TIP3    H236172   6.412   7.155  17.303 -0.1386 -1.5967 -0.7626
 3993TIP3   OH236173   7.559   6.606  19.102 -0.7052 -0.5143  0.3456
 3993TIP3    H136174   7.527   6.629  19.190  0.4765 -0.7020  0.8548
 3993TIP3    H236175   7.605   6.685  19.073 -0.3142 -0.7560  0.2918
 3994TIP3   OH236176   4.597   5.751  17.866  0.6056 -0.2182 -0.0503
 3994TIP3    H136177   4.522   5.802  17.896  1.0735  0.2972  0.2690
 3994TIP3    H236178   4.561   5.666  17.843 -0.1060  0.0871 -0.0850
 3995TIP3   OH236179   1.525   2.219  18.551 -0.5187 -0.1867  0.8104
 3995TIP3    H136180   1.534   2.195  18.644  0.0355  1.1528  1.1263
 3995TIP3    H236181   1.488   2.307  18.553  1.5381  0.7684 -0.1476
 3996TIP3   OH236182   6.544   6.289  18.402  0.0603  0.0406  0.6974
 3996TIP3    H136183   6.456   6.323  18.385  0.7043  2.5258  1.8600
 3996TIP3    H236184   6.534   6.233  18.479 -0.9460 -2.1827 -0.9504
 3997TIP3   OH236185   3.498   6.286  18.245 -0.0617 -0.1580 -0.4933
 3997TIP3    H136186   3.443   6.348  18.292  0.3192  0.2190 -0.5400
 3997TIP3    H236187   3.436   6.225  18.204 -0.6242  1.6432 -2.5503
 3998TIP3   OH236188   4.392   0.470  17.703  0.3183  0.9752 -0.5414
 3998TIP3    H136189   4.357   0.429  17.624  0.1384  0.7361 -0.3374
 3998TIP3    H236190   4.318   0.517  17.742 -0.3840 -1.3472  1.0925
 3999TIP3   OH236191   7.221   2.619  18.251  0.3661 -0.3843  0.3293
 3999TIP3    H136192   7.236   2.539  18.302 -0.6941 -0.6641  0.2251
 3999TIP3    H236193   7.169   2.674  18.309  1.5601  0.4809  0.6131
 4000TIP3   OH236194   6.271   5.124  16.670 -0.1042 -0.1945  0.0715
 4000TIP3    H136195   6.302   5.207  16.633  0.3258 -0.3644  0.0473
 4000TIP3    H236196   6.286   5.060  16.601  1.1414 -0.5999  0.7015
 4001TIP3   OH236197   7.501   4.210  17.864  0.4630  0.5121 -0.0442
 4001TIP3    H136198   7.525   4.301  17.883 -2.0196  1.6257 -1.7331
 4001TIP3    H236199   7.462   4.179  17.946 -0.1288  1.5415  0.0925
 4002TIP3   OH236200   6.678   1.377  18.672  0.3461  0.4275  0.2269
 4002TIP3    H136201   6.594   1.340  18.643  2.3485 -2.1796 -2.9069
 4002TIP3    H236202   6.684   1.460  18.624 -0.9693  1.3882  1.6156
 4003TIP3   OH236203   6.328   6.914  17.842  0.3482 -0.0618 -0.2039
 4003TIP3    H136204   6.241   6.881  17.820  0.1200  0.9580 -0.9250
 4003TIP3    H236205   6.378   6.836  17.866 -0.8355 -0.6253  0.5080
 4004TIP3   OH236206   3.635   5.469  19.306  0.6804  0.1655 -0.0310
 4004TIP3    H136207   3.682   5.390  19.280 -2.9503 -2.8991  1.7096
 4004TIP3    H236208   3.688   5.508  19.375  0.9107 -3.0387  1.7858
 4005TIP3   OH236209   3.685   2.854  16.767 -0.4156 -0.1770  0.1330
 4005TIP3    H136210   3.650   2.859  16.678  0.6161 -0.1295 -0.2911
 4005TIP3    H236211   3.713   2.763  16.777 -1.4222 -0.4296  0.7766
 4006TIP3   OH236212   6.995   1.387  16.961  0.1403  0.1102 -0.1183
 4006TIP3    H136213   7.078   1.401  17.007 -0.2157  0.6032  0.3978
 4006TIP3    H236214   7.020   1.347  16.878  0.7346 -1.5758  0.8294
 4007TIP3   OH236215   1.197   5.740  19.282 -0.2020 -0.5552  0.1584
 4007TIP3    H136216   1.132   5.671  19.291 -0.3750 -0.8508 -2.3917
 4007TIP3    H236217   1.274   5.696  19.247 -0.0193  0.3697 -0.6644
 4008TIP3   OH236218   1.220   3.795  17.688  0.6118  0.2580 -0.2597
 4008TIP3    H136219   1.153   3.728  17.703  1.5529 -1.2830 -2.4518
 4008TIP3    H236220   1.170   3.877  17.680 -0.7757 -0.4903  0.4065
 4009TIP3   OH236221   3.166   1.806  17.560 -0.2866 -0.4178  0.0112
 4009TIP3    H136222   3.206   1.815  17.474  1.1729 -1.6409  0.5191
 4009TIP3    H236223   3.237   1.827  17.621 -1.2027  0.0879  0.9234
 4010TIP3   OH236224   5.189   4.596  18.824 -0.0149 -0.7789 -0.1775
 4010TIP3    H136225   5.264   4.545  18.796 -1.3572 -2.6304 -0.6233
 4010TIP3    H236226   5.119   4.532  18.834 -1.3362  0.7521  1.0161
 4011TIP3   OH236227   7.434   4.033  18.630  0.0228  0.0451  0.6416
 4011TIP3    H136228   7.471   3.947  18.645 -0.8514 -0.3829  0.3965
 4011TIP3    H236229   7.379   4.050  18.707  0.7643  0.7122  1.0477
 4012TIP3   OH236230   6.253   5.922  18.553 -0.2300 -0.2832  0.2463
 4012TIP3    H136231   6.185   5.950  18.614 -1.0032 -0.6388 -0.4312
 4012TIP3    H236232   6.206   5.902  18.472  0.9443  1.9008 -1.0837
 4013TIP3   OH236233   4.611   7.371  19.084  0.3960 -0.5606 -0.0229
 4013TIP3    H136234   4.528   7.378  19.131  1.0469  0.1049  1.0645
 4013TIP3    H236235   4.666   7.440  19.121  1.1078 -0.3364 -1.4275
 4014TIP3   OH236236   0.182   6.982  17.920  0.4699 -0.0413 -0.1114
 4014TIP3    H136237   0.272   7.013  17.907  0.1862  0.2722 -1.5076
 4014TIP3    H236238   0.189   6.887  17.919  0.7936 -0.0181 -0.2114
 4015TIP3   OH236239   1.615   1.283  18.862  0.3421  0.6395 -0.1780
 4015TIP3    H136240   1.682   1.281  18.794 -1.0308  2.0560 -1.6719
 4015TIP3    H236241   1.563   1.361  18.842 -0.8399  0.4340  1.8084
 4016TIP3   OH236242   4.338   7.177  17.052 -0.3967 -0.1782 -0.0954
 4016TIP3    H136243   4.413   7.137  17.097 -2.0152 -1.8168  1.3198
 4016TIP3    H236244   4.332   7.128  16.969  0.8153  0.8452 -0.8288
 4017TIP3   OH236245   2.341   3.183  17.828  0.3130 -0.0787 -0.1725
 4017TIP3    H136246   2.350   3.267  17.783 -2.2844 -0.4299 -1.5276
 4017TIP3    H236247   2.409   3.185  17.896 -0.1399  3.4522  0.4002
 4018TIP3   OH236248   3.615   7.069  17.382 -0.0445  0.3864 -0.2886
 4018TIP3    H136249   3.538   7.016  17.359 -0.9791  1.8103 -0.5705
 4018TIP3    H236250   3.604   7.089  17.475 -0.6939  1.6100 -0.6053
 4019TIP3   OH236251   5.547   3.725  17.127  0.6260 -0.2656 -0.1662
 4019TIP3    H136252   5.606   3.674  17.070  0.2523  0.6008 -1.3691
 4019TIP3    H236253   5.476   3.753  17.069  0.3899  0.9156  0.6598
 4020TIP3   OH236254   6.892   6.122  17.984 -0.1180 -0.7379 -0.2673
 4020TIP3    H136255   6.880   6.213  18.009 -2.3787 -1.4820  1.7206
 4020TIP3    H236256   6.987   6.112  17.974  0.1803  1.8083 -0.6280
 4021TIP3   OH236257   2.004   4.738  17.262  0.4978  0.2719 -0.2862
 4021TIP3    H136258   1.964   4.651  17.270  2.1577 -0.4165  1.4797
 4021TIP3    H236259   1.938   4.798  17.298 -0.2956 -0.3768 -0.6294
 4022TIP3   OH236260   2.094   2.777  18.798 -0.0246  0.4419 -0.1434
 4022TIP3    H136261   2.027   2.836  18.832  0.0748 -0.8948  2.6010
 4022TIP3    H236262   2.050   2.693  18.787  0.5015  0.2936 -1.3126
 4023TIP3   OH236263   7.268   3.947  17.475  0.4030  0.3459  0.1638
 4023TIP3    H136264   7.233   3.858  17.475  2.0196 -0.3334  0.3885
 4023TIP3    H236265   7.284   3.966  17.567 -2.1500  1.8509  0.3824
 4024TIP3   OH236266   6.153   4.083  18.330 -0.0714 -0.2337 -0.4586
 4024TIP3    H136267   6.159   4.023  18.404 -0.0008 -1.1227 -1.1670
 4024TIP3    H236268   6.224   4.056  18.272  0.3221  0.9022 -0.5408
 4025TIP3   OH236269   2.891   6.817  19.104 -0.1013  0.3133  0.0503
 4025TIP3    H136270   2.889   6.904  19.066 -1.2525 -0.6120 -2.1771
 4025TIP3    H236271   2.809   6.809  19.153 -1.2842 -0.3542 -1.9219
 4026TIP3   OH236272   2.497   2.030  17.617 -0.1349 -0.2105  0.6202
 4026TIP3    H136273   2.444   1.993  17.546 -0.6647  2.3224 -0.4089
 4026TIP3    H236274   2.442   2.021  17.695 -0.8691 -0.2176  0.1121
 4027TIP3   OH236275   2.042   5.360  17.395  0.0708  0.0841  0.5261
 4027TIP3    H136276   2.097   5.282  17.387 -0.7378 -0.6701  2.0181
 4027TIP3    H236277   2.088   5.426  17.343  1.2133 -1.1362 -0.0932
 4028TIP3   OH236278   4.195   6.648  16.457  0.1652  0.0223  0.2417
 4028TIP3    H136279   4.172   6.579  16.394  0.3599  0.8131 -0.7140
 4028TIP3    H236280   4.279   6.681  16.428  0.4249  0.1765  1.1314
 4029TIP3   OH236281   6.019   3.776  19.310  0.4496  0.1752  0.4257
 4029TIP3    H136282   5.974   3.854  19.278  1.0609  0.5207  0.3839
 4029TIP3    H236283   6.107   3.807  19.333  0.5857 -0.4300  0.7473
 4030TIP3   OH236284   2.333   0.538  16.416 -0.0056 -0.0218 -0.2317
 4030TIP3    H136285   2.428   0.537  16.427  0.0259 -0.0733 -0.4879
 4030TIP3    H236286   2.304   0.613  16.467  0.1202 -0.2965  0.2524
 4031TIP3   OH236287   1.818   5.775  18.779 -0.1201  0.2933 -0.2764
 4031TIP3    H136288   1.795   5.684  18.766  1.7100 -0.2530 -0.0484
 4031TIP3    H236289   1.845   5.806  18.693  1.2774 -0.0397  0.0067
 4032TIP3   OH236290   4.460   5.163  18.657 -0.5091  0.2471  0.2242
 4032TIP3    H136291   4.515   5.239  18.673 -0.8202  0.8091 -1.2547
 4032TIP3    H236292   4.482   5.103  18.728  3.1131 -0.1865 -1.0425
 4033TIP3   OH236293   5.765   7.168  16.816  0.0120  0.1360 -0.0605
 4033TIP3    H136294   5.853   7.148  16.848  0.4854  0.3659 -1.1456
 4033TIP3    H236295   5.744   7.095  16.757  0.0692  0.7609 -0.8785
 4034TIP3   OH236296   2.132   0.532  19.266  0.1353 -0.5937 -0.1874
 4034TIP3    H136297   2.167   0.620  19.253 -0.7755  0.1795  2.1781
 4034TIP3    H236298   2.198   0.488  19.319 -0.9939 -0.1085  1.7098
 4035TIP3   OH236299   2.461   3.035  18.589 -1.0051 -0.6517 -0.5901
 4035TIP3    H136300   2.527   3.049  18.521  0.7658 -1.3858  0.8915
 4035TIP3    H236301   2.412   2.958  18.559  0.6392 -1.8068 -0.4696
 4036TIP3   OH236302   5.493   0.479  19.391  0.4567  0.0320  0.0546
 4036TIP3    H136303   5.504   0.389  19.422 -0.9076  0.2324  1.2350
 4036TIP3    H236304   5.504   0.533  19.470  3.4423  1.1272 -0.9934
 4037TIP3   OH236305   2.239   6.755  18.984 -0.0358 -0.4489  0.5513
 4037TIP3    H136306   2.205   6.844  18.995 -0.3306 -0.3764 -0.7597
 4037TIP3    H236307   2.163   6.699  18.997 -0.4905 -0.3404 -1.2984
 4038TIP3   OH236308   7.464   5.351  17.006  0.9303  0.2958 -0.0649
 4038TIP3    H136309   7.400   5.350  16.935  1.5654  0.6421 -0.6578
 4038TIP3    H236310   7.457   5.264  17.046 -0.2258  0.4857  0.1804
 4039TIP3   OH236311   3.303   4.777  18.363  0.1726  0.3404 -0.5774
 4039TIP3    H136312   3.225   4.793  18.415  1.0824  0.9666  0.6642
 4039TIP3    H236313   3.376   4.803  18.421  1.3262 -0.8536 -1.4403
 4040TIP3   OH236314   7.139   4.982  19.386 -0.5372 -0.3055 -0.0950
 4040TIP3    H136315   7.189   4.900  19.393  0.6078 -0.4860 -5.6188
 4040TIP3    H236316   7.195   5.048  19.426  0.1042 -1.7234  1.4450
 4041TIP3   OH236317   4.685   7.063  17.785  0.8260  0.5516  0.8048
 4041TIP3    H136318   4.638   7.135  17.744  0.5240 -0.2245 -0.2765
 4041TIP3    H236319   4.777   7.085  17.775  0.8086 -0.0610 -1.2517
 4042TIP3   OH236320   7.118   1.875  19.707  0.1050 -0.1511  0.3763
 4042TIP3    H136321   7.078   1.866  19.621  0.7162 -1.6592  0.2195
 4042TIP3    H236322   7.194   1.932  19.692  0.7105 -1.1077 -0.2720
 4043TIP3   OH236323   4.658   0.535  17.201 -0.1354 -0.1159  0.3155
 4043TIP3    H136324   4.596   0.584  17.147  0.0704  1.5183  1.4713
 4043TIP3    H236325   4.721   0.499  17.139 -0.2424  1.1935 -0.5941
 4044TIP3   OH236326   1.900   5.572  17.795 -0.3834  0.1785 -0.3372
 4044TIP3    H136327   1.851   5.623  17.731  0.0880  1.4136  0.2511
 4044TIP3    H236328   1.991   5.601  17.786  0.0737 -1.2845 -0.6562
 4045TIP3   OH236329   2.727   0.682  17.187  0.0337  0.1573  0.0503
 4045TIP3    H136330   2.772   0.716  17.109  1.0553 -0.0262  0.5410
 4045TIP3    H236331   2.772   0.600  17.206  0.0276  0.3784  1.0356
 4046TIP3   OH236332   0.537   0.676  19.310 -0.1635  0.3082 -0.2205
 4046TIP3    H136333   0.525   0.593  19.356 -1.6801  0.3985 -0.4053
 4046TIP3    H236334   0.560   0.651  19.221 -3.0994 -0.0461 -0.9834
 4047TIP3   OH236335   4.289   4.078  18.441 -0.3721 -0.3071 -0.1999
 4047TIP3    H136336   4.248   4.164  18.447  1.5131  0.7715 -1.6742
 4047TIP3    H236337   4.253   4.039  18.361 -0.1206 -0.2546 -0.3407
 4048TIP3   OH236338   1.804   3.291  17.690 -0.0486  0.2843 -0.2063
 4048TIP3    H136339   1.894   3.314  17.714 -0.2163 -0.2369  1.0214
 4048TIP3    H236340   1.750   3.349  17.743 -0.4355 -0.4919  0.2675
 4049TIP3   OH236341   2.963   2.483  19.293 -0.2010 -0.2153 -0.1039
 4049TIP3    H136342   3.029   2.418  19.271 -0.4563  0.2650 -2.5972
 4049TIP3    H236343   2.882   2.448  19.256 -0.5526  0.9941 -0.5274
 4050TIP3   OH236344   0.550   3.596  17.943 -0.2414  0.2536 -0.6160
 4050TIP3    H136345   0.541   3.601  18.038  1.4487 -0.3259 -0.3900
 4050TIP3    H236346   0.487   3.529  17.917 -0.2259 -0.0957  0.1946
 4051TIP3   OH236347   5.537   5.490  18.151 -0.2694  0.1730 -0.1821
 4051TIP3    H136348   5.572   5.554  18.088 -0.3668  0.8051  0.3955
 4051TIP3    H236349   5.614   5.439  18.177  0.1840  1.3100  0.7977
 4052TIP3   OH236350   5.489   1.032  17.490  0.0362 -0.2562  1.0274
 4052TIP3    H136351   5.533   1.018  17.406 -0.7581 -0.1206  0.5746
 4052TIP3    H236352   5.504   1.124  17.511 -0.4240 -0.0894  0.6382
 4053TIP3   OH236353   7.067   1.698  18.703 -0.0117 -0.3259  0.5900
 4053TIP3    H136354   7.014   1.618  18.702  0.9056 -0.9675 -0.7878
 4053TIP3    H236355   7.007   1.767  18.731 -1.4013 -1.1549 -0.2363
 4054TIP3   OH236356   3.756   7.236  18.353 -0.1105 -0.1670  0.7810
 4054TIP3    H136357   3.715   7.189  18.280 -0.4796  0.3291  0.6622
 4054TIP3    H236358   3.726   7.189  18.431  0.0711 -0.5369  0.6330
 4055TIP3   OH236359   6.067   4.683  18.823 -0.2894 -0.2559  0.0821
 4055TIP3    H136360   6.007   4.754  18.847  0.3107  0.8268 -1.4543
 4055TIP3    H236361   6.045   4.663  18.732 -0.4753 -2.1238  0.5044
 4056TIP3   OH236362   6.014   0.276  19.051 -0.4416 -0.4594 -1.0422
 4056TIP3    H136363   5.996   0.364  19.082  1.6350 -0.1813 -0.4350
 4056TIP3    H236364   5.942   0.255  18.992 -0.8461  1.7363 -1.3989
 4057TIP3   OH236365   1.826   4.340  18.139  0.2802  0.4813  0.4157
 4057TIP3    H136366   1.872   4.365  18.059  2.5006 -0.1932  1.4236
 4057TIP3    H236367   1.834   4.417  18.196  0.3337  0.2786  0.6804
 4058TIP3   OH236368   6.429   5.270  18.079 -0.6279 -0.7237  0.1342
 4058TIP3    H136369   6.435   5.262  18.174  0.4835 -0.2229  0.1278
 4058TIP3    H236370   6.511   5.312  18.054 -1.0867 -0.4754 -1.0055
 4059TIP3   OH236371   5.860   0.175  18.850  0.5804  0.6112 -0.4105
 4059TIP3    H136372   5.939   0.186  18.797  1.1923  1.6497  0.6775
 4059TIP3    H236373   5.813   0.258  18.840 -0.7246 -0.2103 -1.5420
 4060TIP3   OH236374   7.648   0.524  19.497 -0.3790  1.1781  0.2634
 4060TIP3    H136375   7.723   0.542  19.555 -0.8196 -0.3898  1.3842
 4060TIP3    H236376   7.687   0.477  19.423 -0.4746 -1.8726  2.0064
 4061TIP3   OH236377   6.267   5.359  19.087  0.0782  0.1093  0.6741
 4061TIP3    H136378   6.356   5.367  19.121  0.5560 -1.1406 -0.2064
 4061TIP3    H236379   6.262   5.269  19.054 -1.4236  0.2492  0.4439
 4062TIP3   OH236380   2.446   0.392  16.963  0.0701 -0.0410 -0.0023
 4062TIP3    H136381   2.409   0.310  16.998  1.6897 -0.2612  1.3069
 4062TIP3    H236382   2.425   0.390  16.870 -1.6310 -0.9906  0.3548
 4063TIP3   OH236383   2.188   3.892  18.030 -0.2295  0.0368  0.6997
 4063TIP3    H136384   2.125   3.845  17.975  0.8852 -0.2122 -0.4096
 4063TIP3    H236385   2.141   3.970  18.059 -1.6873 -1.1033  1.5220
 4064TIP3   OH236386   6.786   0.385  17.485 -0.0039 -0.5469 -0.1419
 4064TIP3    H136387   6.828   0.322  17.427 -0.6319 -2.0202  0.9385
 4064TIP3    H236388   6.707   0.412  17.438  0.8726  0.3672 -1.1215
 4065TIP3   OH236389   1.355   3.114  16.857 -0.0574 -0.0091 -0.3558
 4065TIP3    H136390   1.428   3.064  16.821  1.0221 -0.0515  1.7222
 4065TIP3    H236391   1.364   3.201  16.820 -0.0564 -0.4754 -1.5071
 4066TIP3   OH236392   4.192   0.032  19.377 -0.3566  0.1609 -0.5362
 4066TIP3    H136393   4.258   0.035  19.445 -0.3744 -0.6879 -0.4646
 4066TIP3    H236394   4.119   0.083  19.411  0.2572  1.0991 -0.6193
 4067TIP3   OH236395   7.428   3.418  18.258 -0.2156  0.1752  0.1499
 4067TIP3    H136396   7.504   3.363  18.279  0.3564  0.1798 -1.7215
 4067TIP3    H236397   7.352   3.361  18.272  0.2938 -0.6662 -0.4775
 4068TIP3   OH236398   6.478   1.137  18.742  0.5229  1.0072  0.1335
 4068TIP3    H136399   6.388   1.111  18.727  1.0319 -1.1482  0.4544
 4068TIP3    H236400   6.478   1.175  18.830  0.4110 -1.9253  1.5038
 4069TIP3   OH236401   7.509   2.219  16.835 -0.5935 -0.3382  0.0579
 4069TIP3    H136402   7.528   2.306  16.869  2.4378 -1.2957  1.1917
 4069TIP3    H236403   7.464   2.174  16.906 -0.0753 -0.3676  0.3743
 4070TIP3   OH236404   5.533   6.108  18.707 -0.2876 -0.0905 -0.1244
 4070TIP3    H136405   5.515   6.035  18.647 -2.4291 -1.1744  1.6883
 4070TIP3    H236406   5.483   6.182  18.671 -0.8561 -0.4941 -0.1842
 4071TIP3   OH236407   6.935   7.352  19.393 -0.0885 -0.2199  0.2349
 4071TIP3    H136408   6.876   7.352  19.317  1.2025 -0.2177 -0.8109
 4071TIP3    H236409   7.003   7.288  19.369  0.1040 -0.5422  1.5957
 4072TIP3   OH236410   4.734   7.026  18.126 -0.0407 -0.0122 -0.1109
 4072TIP3    H136411   4.762   6.953  18.072  2.2916  0.1238  0.8341
 4072TIP3    H236412   4.739   6.994  18.216  2.1153  1.5607  0.4061
 4073TIP3   OH236413   6.199   1.776  18.724  0.4412  0.6124  0.3677
 4073TIP3    H136414   6.215   1.868  18.701 -0.0395  0.2237 -1.7272
 4073TIP3    H236415   6.104   1.766  18.718  0.4424  0.0793  1.0724
 4074TIP3   OH236416   4.816   2.150  18.161 -0.1338 -0.3354  0.0414
 4074TIP3    H136417   4.881   2.176  18.226 -0.2122 -0.7176  0.2716
 4074TIP3    H236418   4.817   2.055  18.162 -1.1289 -0.3494  0.4817
 4075TIP3   OH236419   5.706   7.595  17.590 -0.1687 -0.4092 -0.3575
 4075TIP3    H136420   5.673   7.560  17.673 -0.1316  0.3829  0.0032
 4075TIP3    H236421   5.703   7.690  17.602  1.2143 -0.3010 -0.7120
 4076TIP3   OH236422   6.234   4.681  17.757 -0.1144 -0.2381 -0.6114
 4076TIP3    H136423   6.284   4.671  17.676 -0.7166 -1.2278 -0.8813
 4076TIP3    H236424   6.158   4.624  17.745  0.4224 -1.4186  1.1525
 4077TIP3   OH236425   7.575   6.221  18.543  0.3562 -0.2471  0.5136
 4077TIP3    H136426   7.486   6.185  18.544  0.5144 -0.6499  1.1601
 4077TIP3    H236427   7.623   6.163  18.483  0.4060 -0.6094  0.8975
 4078TIP3   OH236428   3.048   1.493  18.530  0.0603 -0.2122 -0.2349
 4078TIP3    H136429   3.085   1.569  18.575  1.9551 -0.4371 -1.3042
 4078TIP3    H236430   2.992   1.531  18.462 -0.9540  0.1572  0.7749
 4079TIP3   OH236431   5.294   2.805  18.328 -0.0856 -0.6438 -0.0681
 4079TIP3    H136432   5.217   2.820  18.274  0.1278  0.9239  0.0110
 4079TIP3    H236433   5.366   2.847  18.279  0.4157 -0.7031  0.5974
 4080TIP3   OH236434   3.964   2.118  18.026 -0.0534  0.0934  0.9292
 4080TIP3    H136435   3.988   2.208  18.005  0.5353 -0.4722 -1.0292
 4080TIP3    H236436   3.917   2.124  18.109 -0.5372  2.2719  0.5499
 4081TIP3   OH236437   4.128   7.300  17.385 -0.4282 -0.2526  0.1396
 4081TIP3    H136438   4.103   7.266  17.299  0.3509  0.4582 -0.3817
 4081TIP3    H236439   4.055   7.275  17.443 -0.8961 -0.8549 -0.6902
 4082TIP3   OH236440   3.660   3.692  17.163 -0.5564  0.2308  0.2744
 4082TIP3    H136441   3.678   3.623  17.099  0.5246  1.1708 -0.4703
 4082TIP3    H236442   3.598   3.750  17.120 -0.8470  0.1631  0.5939
 4083TIP3   OH236443   5.775   2.651  17.999 -0.1756  0.7577 -0.4156
 4083TIP3    H136444   5.816   2.715  17.942 -0.1792  0.8121 -0.3573
 4083TIP3    H236445   5.767   2.572  17.945 -1.8050  1.3256 -1.0892
 4084TIP3   OH236446   2.113   3.309  16.663  0.1561 -0.0528 -0.6925
 4084TIP3    H136447   2.135   3.383  16.607  1.1647 -0.8406 -1.3825
 4084TIP3    H236448   2.192   3.294  16.714 -0.9407  1.0371  1.4531
 4085TIP3   OH236449   3.137   0.028  18.165  0.2153  0.0389 -0.0397
 4085TIP3    H136450   3.198  -0.038  18.132  1.9643  0.3337  2.3267
 4085TIP3    H236451   3.055  -0.018  18.175  0.5866 -0.9541 -1.2717
 4086TIP3   OH236452   0.539   3.220  16.405 -0.5099 -0.1629  0.2435
 4086TIP3    H136453   0.461   3.273  16.417 -0.5319 -0.3211  0.8221
 4086TIP3    H236454   0.514   3.133  16.437 -0.1823 -0.2820  0.1778
 4087TIP3   OH236455   0.832   0.855  18.564 -0.2494  0.5847  0.4676
 4087TIP3    H136456   0.857   0.946  18.552  0.4362  0.3309 -0.0720
 4087TIP3    H236457   0.892   0.805  18.509 -1.8808 -0.0627 -0.8377
 4088TIP3   OH236458   7.236   5.079  19.118 -0.5915  0.1824  0.2653
 4088TIP3    H136459   7.167   5.061  19.182  0.4804 -0.5889  1.2496
 4088TIP3    H236460   7.313   5.035  19.153  0.2780  0.5705 -1.0807
 4089TIP3   OH236461   6.741   3.051  17.435 -0.0399 -0.1655 -0.6969
 4089TIP3    H136462   6.830   3.066  17.469  0.3129  0.8294 -1.9635
 4089TIP3    H236463   6.732   3.116  17.365 -1.5969 -0.5908 -0.9084
 4090TIP3   OH236464   4.112   6.267  18.433 -0.2826  0.1444 -0.9869
 4090TIP3    H136465   4.088   6.222  18.514  1.6221 -0.9690 -0.9802
 4090TIP3    H236466   4.062   6.349  18.435 -0.4820  0.0299  1.1797
 4091TIP3   OH236467   1.493   6.756  18.446 -0.1861  0.5090  0.0248
 4091TIP3    H136468   1.514   6.831  18.389  0.8026 -0.6075 -1.1489
 4091TIP3    H236469   1.400   6.741  18.432  0.2477 -0.4972 -2.3495
 4092TIP3   OH236470   6.703   2.596  19.318 -0.1866 -0.2816 -0.3600
 4092TIP3    H136471   6.669   2.680  19.287  0.0130 -1.1841 -3.3347
 4092TIP3    H236472   6.794   2.593  19.287  0.3073 -0.9646  1.0622
 4093TIP3   OH236473   7.117   5.723  16.125 -0.5938 -0.2862  0.0716
 4093TIP3    H136474   7.111   5.681  16.210  0.1546  0.5786  0.5745
 4093TIP3    H236475   7.030   5.758  16.108 -1.3555 -2.3755 -0.5679
 4094TIP3   OH236476   7.564   2.928  19.068  0.5144 -0.3332 -0.6565
 4094TIP3    H136477   7.616   3.007  19.080 -0.3380  0.0205  0.8821
 4094TIP3    H236478   7.473   2.957  19.078  0.2266 -1.6444  0.9808
 4095TIP3   OH236479   0.747   6.642  17.556  0.6654  0.2635  0.1783
 4095TIP3    H136480   0.823   6.701  17.549  0.7891  0.1521  0.5730
 4095TIP3    H236481   0.709   6.662  17.641 -0.5265  1.2317 -0.5344
 4096TIP3   OH236482   6.664   3.571  18.480 -0.4894  0.3093 -0.0101
 4096TIP3    H136483   6.596   3.514  18.445  0.0102 -0.0824 -0.3542
 4096TIP3    H236484   6.741   3.514  18.490 -0.1353  0.7998  0.1387
 4097TIP3   OH236485   4.361   7.395  19.232 -0.4227 -0.7906  0.6155
 4097TIP3    H136486   4.289   7.365  19.286 -1.6928  0.3866 -0.3419
 4097TIP3    H236487   4.348   7.489  19.225 -0.5214 -0.9201 -1.9412
 4098TIP3   OH236488   6.453   5.053  17.509  0.1119 -0.2195 -0.0990
 4098TIP3    H136489   6.408   5.040  17.592  0.7858  0.3802  0.3822
 4098TIP3    H236490   6.391   5.025  17.442 -1.7230  2.3197  0.4105
 4099TIP3   OH236491   2.296   0.739  18.870  0.4886 -0.6712  0.0289
 4099TIP3    H136492   2.389   0.717  18.875  0.6373  0.1812  2.8161
 4099TIP3    H236493   2.293   0.819  18.818  1.1108 -1.5373 -1.3825
 4100TIP3   OH236494   1.833   2.232  17.315  0.5864 -0.3214 -0.3616
 4100TIP3    H136495   1.880   2.172  17.374 -0.4178  0.3443  1.1901
 4100TIP3    H236496   1.892   2.306  17.304  0.1789  0.2881  1.1835
 4101TIP3   OH236497   1.866   1.036  18.871 -0.1037  0.1158 -0.4314
 4101TIP3    H136498   1.856   1.112  18.813  2.3574 -0.3845 -1.6439
 4101TIP3    H236499   1.780   0.995  18.871 -1.8551  3.3716  1.0804
 4102TIP3   OH236500   7.554   1.156  19.028  0.1042  0.2590 -0.5154
 4102TIP3    H136501   7.544   1.154  19.124  1.5605 -1.9498 -0.3377
 4102TIP3    H236502   7.468   1.129  18.995  0.2220 -1.1966  0.2887
 4103TIP3   OH236503   4.979   2.188  18.429 -0.1701 -0.0471  0.1269
 4103TIP3    H136504   5.012   2.264  18.477  1.1365 -0.7523  0.3922
 4103TIP3    H236505   5.051   2.163  18.371 -0.2167 -1.6010  0.6893
 4104TIP3   OH236506   1.352   7.656  18.584  0.3774 -0.2701  0.0914
 4104TIP3    H136507   1.422   7.604  18.624 -0.8395 -1.0617  1.2871
 4104TIP3    H236508   1.281   7.593  18.569 -0.8754  0.8844  0.8953
 4105TIP3   OH236509   4.790   0.332  19.098 -0.4903 -0.4636 -0.8823
 4105TIP3    H136510   4.820   0.320  19.008  0.8446 -0.9935 -0.3882
 4105TIP3    H236511   4.772   0.244  19.130 -0.3949 -0.3343 -0.4563
 4106TIP3   OH236512   5.591   5.435  16.658  0.1343 -0.5145 -0.1276
 4106TIP3    H136513   5.619   5.525  16.639 -2.1912 -0.0214 -1.6389
 4106TIP3    H236514   5.580   5.433  16.753  1.9464  0.1973  0.1514
 4107TIP3   OH236515   6.735   6.075  16.919 -0.4053  0.5118  0.6465
 4107TIP3    H136516   6.792   5.999  16.905 -0.3170  0.2990  2.0798
 4107TIP3    H236517   6.755   6.133  16.845  1.7301  0.4697  1.1319
 4108TIP3   OH236518   2.845   4.781  17.593  0.0228 -0.7114 -0.4728
 4108TIP3    H136519   2.924   4.823  17.627  0.0668 -1.1013 -0.0904
 4108TIP3    H236520   2.854   4.788  17.498 -0.5813  1.2585 -0.4074
 4109TIP3   OH236521   7.173   4.650  16.109 -0.3819 -0.8912  0.4145
 4109TIP3    H136522   7.177   4.743  16.084 -1.9006 -1.1268 -0.8050
 4109TIP3    H236523   7.081   4.635  16.131 -0.2173 -2.1828  0.2819
 4110TIP3   OH236524   5.817   0.896  18.582  0.5723 -0.0651 -0.0383
 4110TIP3    H136525   5.827   0.972  18.639  0.2040 -0.5647  0.7116
 4110TIP3    H236526   5.892   0.900  18.523  0.5059  0.9277 -0.0675
 4111TIP3   OH236527   6.231   1.951  19.154  0.4551  0.3126 -0.2260
 4111TIP3    H136528   6.287   1.937  19.229  1.0763  3.1446 -0.0282
 4111TIP3    H236529   6.253   1.880  19.093  1.4525 -0.8106  1.3772
 4112TIP3   OH236530   1.364   0.764  18.724 -0.5840 -0.3966 -0.1943
 4112TIP3    H136531   1.283   0.762  18.775 -0.3109 -0.5254  0.2408
 4112TIP3    H236532   1.354   0.840  18.666 -1.6081 -1.2207 -1.1481
 4113TIP3   OH236533   1.952   6.622  17.441  0.1054 -0.1048  0.7016
 4113TIP3    H136534   1.921   6.620  17.351  1.0092  0.9710  0.3396
 4113TIP3    H236535   1.972   6.531  17.462 -0.1590 -0.3708 -0.1743
 4114TIP3   OH236536   5.866   4.980  17.752  0.2577 -0.4460 -0.3081
 4114TIP3    H136537   5.924   4.921  17.800  0.6008  0.6191  0.6298
 4114TIP3    H236538   5.904   5.066  17.764 -0.8207  0.1134 -0.7629
 4115TIP3   OH236539   3.595   4.821  16.824 -0.1573  0.1061 -0.0355
 4115TIP3    H136540   3.527   4.829  16.891 -1.2205  0.9329 -1.1786
 4115TIP3    H236541   3.650   4.899  16.835  0.2807 -0.2723  0.5151
 4116TIP3   OH236542   1.076   4.945  17.514 -0.0430  0.0365  0.0454
 4116TIP3    H136543   1.104   4.886  17.584  0.8387 -0.7308 -0.9239
 4116TIP3    H236544   1.156   4.961  17.463 -0.1671  2.3538  0.4625
 4117TIP3   OH236545   2.480   1.663  17.900  0.4301  0.0982  0.1048
 4117TIP3    H136546   2.395   1.622  17.885 -0.3624 -0.2193  4.1523
 4117TIP3    H236547   2.476   1.746  17.853 -0.9593 -1.0643 -2.0059
 4118TIP3   OH236548   1.359   0.757  19.637  0.2293  0.0467 -0.3169
 4118TIP3    H136549   1.384   0.816  19.566 -0.0809 -1.1819 -1.5034
 4118TIP3    H236550   1.266   0.775  19.652  0.3700  0.5185 -0.0087
 4119TIP3   OH236551   4.536   5.089  17.408 -0.4455 -0.5344  0.1521
 4119TIP3    H136552   4.594   5.145  17.357  0.4837 -1.6592 -0.0639
 4119TIP3    H236553   4.507   5.144  17.480  2.3825 -0.4486  1.3408
 4120TIP3   OH236554   0.004   3.172  19.105 -0.1947 -0.1345 -0.4739
 4120TIP3    H136555   0.086   3.218  19.088 -0.1641 -0.4654 -1.2851
 4120TIP3    H236556  -0.057   3.241  19.132  0.0515  0.2848 -0.9619
 4121TIP3   OH236557   6.799   7.052  17.459 -0.4481  0.5425  0.9996
 4121TIP3    H136558   6.883   7.007  17.471 -1.3127 -2.0131 -1.5096
 4121TIP3    H236559   6.733   6.984  17.467 -1.8898  1.3024 -2.4540
 4122TIP3   OH236560   6.931   1.867  17.876  0.6197  0.0731 -1.0339
 4122TIP3    H136561   6.950   1.784  17.833  1.0390  0.0749 -0.8486
 4122TIP3    H236562   6.887   1.842  17.957  1.2724  0.0083 -0.6977
 4123TIP3   OH236563   2.098   2.450  18.894 -0.1668 -0.4592 -0.1538
 4123TIP3    H136564   2.168   2.426  18.955  1.3957  0.5071 -1.4786
 4123TIP3    H236565   2.070   2.367  18.856  1.0848 -0.7926 -0.4216
 4124TIP3   OH236566   5.014   6.041  18.555 -0.1775  0.0079  0.2206
 4124TIP3    H136567   5.072   5.985  18.606 -1.9830 -0.6368  1.6273
 4124TIP3    H236568   5.042   6.027  18.464  0.2553 -2.1787  0.6363
 4125TIP3   OH236569   3.837   5.168  17.541  0.1313  0.2193  0.1996
 4125TIP3    H136570   3.869   5.088  17.500  0.1851  0.5810 -0.4867
 4125TIP3    H236571   3.855   5.237  17.476 -0.1141  0.7483  0.6848
 4126TIP3   OH236572   0.868   7.417  19.118 -0.1953 -0.2712 -0.4768
 4126TIP3    H136573   0.822   7.397  19.037  1.5893 -0.4186 -1.5040
 4126TIP3    H236574   0.825   7.496  19.151 -0.8472 -0.1196 -1.6419
 4127TIP3   OH236575   5.014   1.570  19.007 -0.1339 -0.0095  0.1937
 4127TIP3    H136576   5.036   1.645  18.953  0.9495  0.6847  1.5284
 4127TIP3    H236577   4.925   1.547  18.983 -0.0919  1.0160 -1.0026
 4128TIP3   OH236578   4.852   7.250  16.922 -0.0301 -0.6361 -0.2205
 4128TIP3    H136579   4.873   7.303  16.999 -1.1496  0.6010 -0.7287
 4128TIP3    H236580   4.935   7.207  16.899  0.2880 -1.1983  1.7642
 4129TIP3   OH236581   0.195   1.879  18.536 -0.0091 -0.9793 -0.2005
 4129TIP3    H136582   0.227   1.969  18.550  0.2077 -0.9390 -0.9497
 4129TIP3    H236583   0.234   1.852  18.453  2.4096 -2.8829  1.4041
 4130TIP3   OH236584   2.415   6.475  19.235 -0.2887 -0.2671 -0.0220
 4130TIP3    H136585   2.326   6.481  19.201  0.2694  2.2057 -1.3088
 4130TIP3    H236586   2.429   6.382  19.252 -2.0796 -1.1270 -2.6955
 4131TIP3   OH236587   3.264   7.102  18.748 -0.2343 -0.4618 -0.4887
 4131TIP3    H136588   3.247   7.174  18.809  3.8675  2.0322 -1.8554
 4131TIP3    H236589   3.323   7.043  18.795  1.6600  0.6393 -1.3612
 4132TIP3   OH236590   1.817   4.911  17.825 -0.3982 -0.1944  0.5822
 4132TIP3    H136591   1.768   4.925  17.906 -0.7665  1.6997  0.0976
 4132TIP3    H236592   1.750   4.911  17.756 -0.1248 -2.1072  0.2636
 4133TIP3   OH236593   4.646   4.151  17.117  0.4217  0.5077 -0.9157
 4133TIP3    H136594   4.633   4.128  17.025  0.3440  1.5266 -1.1711
 4133TIP3    H236595   4.568   4.201  17.140  1.3577  2.0132 -0.8994
 4134TIP3   OH236596   2.958   5.388  18.298 -0.1442 -0.0895 -0.9095
 4134TIP3    H136597   2.909   5.394  18.380  1.5649  2.8772  0.0732
 4134TIP3    H236598   2.893   5.365  18.232 -1.8418 -1.1646  1.0207
 4135TIP3   OH236599   2.643   4.773  19.231  0.3448 -0.4290  0.0359
 4135TIP3    H136600   2.715   4.725  19.271 -0.9242 -1.0575  1.7068
 4135TIP3    H236601   2.611   4.830  19.301 -1.3163 -0.8256 -0.3616
 4136TIP3   OH236602   7.569   7.618  18.291 -1.2963  0.4850  0.1459
 4136TIP3    H136603   7.501   7.588  18.351 -0.7456  0.9465  1.0261
 4136TIP3    H236604   7.622   7.540  18.273 -0.2729  0.7264  1.8835
 4137TIP3   OH236605   4.627   1.541  18.592  0.2197 -0.3817 -0.3850
 4137TIP3    H136606   4.610   1.562  18.500 -1.7688 -1.5203 -0.3350
 4137TIP3    H236607   4.693   1.472  18.589  1.0264  0.4060 -0.8991
 4138TIP3   OH236608   7.622   4.764  17.683 -0.1840 -0.1614  0.0908
 4138TIP3    H136609   7.626   4.725  17.595  2.6515 -0.3494  0.2141
 4138TIP3    H236610   7.697   4.727  17.729  0.4515  2.5479  1.4574
 4139TIP3   OH236611   1.509   3.699  18.161  0.1814  0.3656 -0.0071
 4139TIP3    H136612   1.578   3.753  18.201 -0.0692  1.1559 -0.6089
 4139TIP3    H236613   1.441   3.694  18.228  0.5303  0.1669  0.3335
 4140TIP3   OH236614   4.209   2.002  16.830  0.6493  0.2226 -0.2996
 4140TIP3    H136615   4.220   2.097  16.822  0.9235  0.0945 -1.6587
 4140TIP3    H236616   4.262   1.966  16.759 -0.2829 -0.9077 -0.4523
 4141TIP3   OH236617   7.597   2.253  19.456 -0.1868 -0.0386  0.2958
 4141TIP3    H136618   7.547   2.185  19.502 -0.5183  0.0305  0.0410
 4141TIP3    H236619   7.532   2.320  19.435 -0.2047 -0.4404 -0.9963
 4142TIP3   OH236620   7.370   4.278  19.292  0.5481  0.4928  0.0780
 4142TIP3    H136621   7.453   4.241  19.324  0.7764 -1.3260 -2.3990
 4142TIP3    H236622   7.302   4.228  19.337  0.8613 -2.1906 -2.2079
 4143TIP3   OH236623   2.515   4.807  17.007  0.2041 -0.0146 -0.0333
 4143TIP3    H136624   2.513   4.901  17.025  2.8866  0.0852  0.0692
 4143TIP3    H236625   2.424   4.785  16.986 -0.4522  2.6198 -0.2857
 4144TIP3   OH236626   1.796   0.581  16.795 -0.3167 -0.1507 -0.0345
 4144TIP3    H136627   1.883   0.564  16.759 -1.3635 -0.5568 -2.5801
 4144TIP3    H236628   1.803   0.669  16.833  1.2769 -0.3109  0.1124
 4145TIP3   OH236629   2.749   3.492  18.562 -0.5836  0.1329 -0.2290
 4145TIP3    H136630   2.679   3.437  18.598 -0.6184 -1.4475 -2.4840
 4145TIP3    H236631   2.787   3.439  18.492  1.3653  1.8752 -0.5857
 4146TIP3   OH236632   4.367   1.152  19.294 -0.5505 -0.1649  0.4177
 4146TIP3    H136633   4.291   1.116  19.340 -1.2242  0.6463 -0.0327
 4146TIP3    H236634   4.332   1.224  19.242  0.4477 -0.1053 -0.2037
 4147TIP3   OH236635   3.351   2.436  17.847 -0.0959 -0.1154 -0.1481
 4147TIP3    H136636   3.300   2.384  17.910  1.7327 -0.2959  1.2611
 4147TIP3    H236637   3.401   2.497  17.901  2.2412 -0.9010 -1.3158
 4148TIP3   OH236638   0.058   2.189  17.172 -1.0065  0.3338  0.2726
 4148TIP3    H136639   0.084   2.164  17.083  1.1953  1.5276  0.5064
 4148TIP3    H236640  -0.006   2.259  17.161 -1.7871 -0.4505 -0.3383
 4149TIP3   OH236641   5.263   5.441  18.591 -1.0249  0.0372 -0.4475
 4149TIP3    H136642   5.295   5.443  18.501  0.2245  1.7385 -0.0234
 4149TIP3    H236643   5.333   5.398  18.640 -0.8358  0.8068 -0.0219
 4150TIP3   OH236644   1.373   7.328  18.677  0.3161 -0.7702 -0.5541
 4150TIP3    H136645   1.337   7.240  18.671  1.7177 -1.4965  0.8883
 4150TIP3    H236646   1.468   7.316  18.673  0.5132  0.7919 -1.4436
 4151TIP3   OH236647   6.281   2.033  18.167  0.1173 -0.2617  0.5039
 4151TIP3    H136648   6.190   2.055  18.186  0.3923  1.3334  0.1133
 4151TIP3    H236649   6.332   2.104  18.204  0.9423  0.7656 -2.3097
 4152TIP3   OH236650   2.733   4.318  17.107  0.6717 -0.2946 -0.0974
 4152TIP3    H136651   2.695   4.404  17.121 -1.2086 -1.1286  0.2327
 4152TIP3    H236652   2.658   4.260  17.092  1.6166 -2.3867  2.4330
 4153TIP3   OH236653   0.475   0.477  18.561  0.7519 -0.0187  0.1758
 4153TIP3    H136654   0.379   0.478  18.567  0.8023 -0.2532  1.2865
 4153TIP3    H236655   0.503   0.423  18.635  1.7760  0.9799  0.5529
 4154TIP3   OH236656   0.028   4.342  17.018 -0.6839  0.8022 -0.7209
 4154TIP3    H136657  -0.013   4.263  16.980  0.0283  0.3729 -0.6148
 4154TIP3    H236658   0.065   4.312  17.101 -0.5416  1.2882 -0.6068
 4155TIP3   OH236659   0.590   2.408  17.258  1.0212 -0.3592 -0.2000
 4155TIP3    H136660   0.631   2.321  17.259  2.6841  0.3315  2.3905
 4155TIP3    H236661   0.634   2.454  17.187  2.0140 -0.8758  0.0516
 4156TIP3   OH236662   0.438   3.640  18.225  0.2577 -0.1662  0.0833
 4156TIP3    H136663   0.437   3.711  18.289 -1.5775 -1.4275  1.5425
 4156TIP3    H236664   0.413   3.562  18.274 -0.1767 -1.3868 -1.9404
 4157TIP3   OH236665   1.006   3.916  18.624 -0.3565  0.6606  0.2305
 4157TIP3    H136666   1.004   3.987  18.688 -1.6823 -0.1451  1.1306
 4157TIP3    H236667   0.933   3.859  18.649  0.5869 -0.9504 -0.5386
 4158TIP3   OH236668   5.079   3.298  19.063 -0.2481 -0.0960 -0.4440
 4158TIP3    H136669   5.134   3.368  19.100 -1.7738  1.1616 -0.4252
 4158TIP3    H236670   5.073   3.233  19.133  1.3368 -0.3424 -0.5145
 4159TIP3   OH236671   5.323   5.712  17.961 -0.1622 -0.7007 -0.4070
 4159TIP3    H136672   5.378   5.790  17.966 -0.6507 -0.3938  2.8757
 4159TIP3    H236673   5.270   5.725  17.883  1.9279  0.6785 -1.7144
 4160TIP3   OH236674   3.872   4.658  18.600 -0.1457 -0.0954 -0.1925
 4160TIP3    H136675   3.890   4.617  18.684  0.7133  0.0075 -0.3193
 4160TIP3    H236676   3.957   4.689  18.569 -0.4946  0.1350 -0.9570
 4161TIP3   OH236677   7.067   2.107  19.380  0.0227 -0.4491  0.0285
 4161TIP3    H136678   7.029   2.021  19.399  1.6798 -1.7812 -2.2259
 4161TIP3    H236679   7.161   2.095  19.389  0.2309  1.6643  1.4111
 4162TIP3   OH236680   6.301   3.617  17.933 -0.4570 -0.1826 -0.3090
 4162TIP3    H136681   6.328   3.686  17.993  2.0807 -1.0089 -0.3521
 4162TIP3    H236682   6.235   3.568  17.981  2.6633 -1.8695  2.7520
 4163TIP3   OH236683   1.867   2.644  16.960 -0.3931 -0.3123  0.1552
 4163TIP3    H136684   1.898   2.660  17.049  0.8156 -0.0616 -0.2893
 4163TIP3    H236685   1.835   2.729  16.930 -0.6210 -0.3518  0.2924
 4164TIP3   OH236686   6.658   0.606  18.691 -0.4860  0.2798 -0.3681
 4164TIP3    H136687   6.609   0.544  18.745 -0.9101  2.2758  1.6546
 4164TIP3    H236688   6.645   0.691  18.733  1.3469  1.5370 -2.1457
 4165TIP3   OH236689   3.018   5.964  18.651 -0.1494  0.3798  0.7422
 4165TIP3    H136690   2.970   6.011  18.719 -0.2253  0.4532  0.6384
 4165TIP3    H236691   3.052   5.887  18.695 -2.3165 -0.9165  0.3125
 4166TIP3   OH236692   3.515   6.385  18.547  0.5551 -0.1840 -0.2789
 4166TIP3    H136693   3.482   6.434  18.622  1.4335 -0.5369  0.3512
 4166TIP3    H236694   3.599   6.350  18.576  0.7046 -0.6939 -1.2805
 4167TIP3   OH236695   6.046   7.612  17.672  0.1758 -0.0336 -0.3346
 4167TIP3    H136696   6.006   7.535  17.632 -0.3441  0.6203 -1.1014
 4167TIP3    H236697   6.101   7.649  17.603 -0.1721  0.7019 -0.2309
 4168TIP3   OH236698   7.365   1.581  19.565  0.5378  1.0579  0.0916
 4168TIP3    H136699   7.327   1.623  19.488 -0.1664  0.2159 -0.0359
 4168TIP3    H236700   7.367   1.488  19.543  3.5068  1.1253 -0.2457
 4169TIP3   OH236701   6.622   4.030  19.001 -0.3110 -0.1415 -0.2980
 4169TIP3    H136702   6.704   4.062  18.962 -0.6323  0.1659 -0.7215
 4169TIP3    H236703   6.583   3.976  18.933 -0.4809 -0.2619 -0.1055
 4170TIP3   OH236704   4.021   3.405  17.150  0.0037 -0.6949 -0.5068
 4170TIP3    H136705   3.946   3.356  17.116 -1.0016  0.5142 -0.1216
 4170TIP3    H236706   4.049   3.460  17.076 -0.0290 -0.5458 -0.4100
 4171TIP3   OH236707   5.313   6.186  18.486  0.0545 -0.0235  0.1161
 4171TIP3    H136708   5.283   6.100  18.455  1.4882 -0.4511 -0.1803
 4171TIP3    H236709   5.270   6.249  18.427 -1.3387 -0.4949  0.6028
 4172TIP3   OH236710   6.696   0.127  19.178 -0.2900 -0.6967 -0.0949
 4172TIP3    H136711   6.667   0.091  19.094 -0.3493  0.6845 -0.6959
 4172TIP3    H236712   6.674   0.060  19.242 -0.4242 -1.6961 -1.1594
 4173TIP3   OH236713   1.186   1.043  18.029  0.4027 -0.1019 -0.3211
 4173TIP3    H136714   1.171   0.976  17.962  0.0244  0.7733 -1.1439
 4173TIP3    H236715   1.098   1.073  18.052  0.6083  0.8969 -0.7991
 4174TIP3   OH236716   6.342   1.355  16.861  0.3482 -0.1973 -0.1234
 4174TIP3    H136717   6.315   1.407  16.937  2.3416  0.5814  0.1335
 4174TIP3    H236718   6.364   1.420  16.794 -0.8352 -0.8679 -1.1946
 4175TIP3   OH236719   6.896   7.013  18.957  0.0616  0.4637 -0.1299
 4175TIP3    H136720   6.920   7.011  19.050  0.7364  1.9623 -0.2317
 4175TIP3    H236721   6.925   7.100  18.927 -2.6677  1.1429 -1.0798
 4176TIP3   OH236722   1.121   7.503  18.571 -0.2459  0.2527  0.3599
 4176TIP3    H136723   1.079   7.545  18.646 -2.5875 -0.1698 -0.6504
 4176TIP3    H236724   1.076   7.538  18.495  0.4937 -1.0539 -0.7294
 4177TIP3   OH236725   4.642   4.683  18.161 -0.0918  0.3917  0.7865
 4177TIP3    H136726   4.670   4.632  18.085 -3.8323 -1.2400  0.2536
 4177TIP3    H236727   4.680   4.637  18.236 -0.5029 -1.1335  0.1138
 4178TIP3   OH236728   7.344   2.327  19.381 -0.5041 -0.1919  0.8029
 4178TIP3    H136729   7.328   2.300  19.291  2.0499 -2.1005  0.7808
 4178TIP3    H236730   7.331   2.248  19.432 -0.0904  0.3968  1.8496
 4179TIP3   OH236731   1.891   6.126  16.342  0.5669 -0.1662  0.1833
 4179TIP3    H136732   1.981   6.099  16.362  0.1477 -0.0761  2.5876
 4179TIP3    H236733   1.902   6.208  16.293  1.7939 -0.4013  0.0169
 4180TIP3   OH236734   4.749   2.168  17.278  0.4185  0.0021  0.1191
 4180TIP3    H136735   4.804   2.099  17.316  0.5312  0.2235  0.3636
 4180TIP3    H236736   4.808   2.217  17.221  0.4052  0.0594  0.1533
 4181TIP3   OH236737   3.178   3.197  17.968 -0.0787  0.5492 -0.3311
 4181TIP3    H136738   3.179   3.101  17.971  1.8746  0.5400  0.5940
 4181TIP3    H236739   3.148   3.218  17.880  0.8103 -0.9627 -1.0417
 4182TIP3   OH236740   4.780   0.629  18.902  0.3499  0.0182 -0.0256
 4182TIP3    H136741   4.702   0.584  18.870  0.0025 -0.0629  0.8894
 4182TIP3    H236742   4.852   0.571  18.877 -0.0227 -0.6694  0.4278
 4183TIP3   OH236743   2.822   4.458  18.079  0.4699 -0.1317  0.2248
 4183TIP3    H136744   2.729   4.448  18.061 -0.2212  3.4327  1.2170
 4183TIP3    H236745   2.863   4.462  17.993 -0.5400  0.1963 -0.2471
 4184TIP3   OH236746   1.861   1.213  18.414  0.1325 -0.3004 -0.2758
 4184TIP3    H136747   1.857   1.127  18.372  0.4509  0.5900 -2.2275
 4184TIP3    H236748   1.953   1.239  18.406  0.0629  0.1768  0.4200
 4185TIP3   OH236749   1.274   4.618  18.801 -0.2626 -0.3294 -0.5600
 4185TIP3    H136750   1.204   4.552  18.804  2.1959 -3.2886 -2.5334
 4185TIP3    H236751   1.349   4.576  18.842  0.6408  2.5450  0.9906
 4186TIP3   OH236752   6.317   3.793  17.460  0.0686  0.0549  0.6435
 4186TIP3    H136753   6.252   3.745  17.512 -1.0958  0.9103  0.0220
 4186TIP3    H236754   6.350   3.728  17.397 -0.0794 -0.4256  1.0530
 4187TIP3   OH236755   1.631   4.586  17.347  0.0323  0.3470  0.5000
 4187TIP3    H136756   1.606   4.495  17.333  0.3832  0.0472  1.7209
 4187TIP3    H236757   1.554   4.627  17.386 -0.3417  0.7443 -0.6194
 4188TIP3   OH236758   4.437   5.992  18.205 -0.1060 -0.0526  0.2552
 4188TIP3    H136759   4.401   5.949  18.128  0.1797 -0.2399  0.2248
 4188TIP3    H236760   4.400   6.080  18.203 -2.1907 -0.8411  1.3333
 4189TIP3   OH236761   2.917   1.085  18.536  0.2191 -0.2543  0.2936
 4189TIP3    H136762   2.924   1.103  18.443 -1.4288 -0.0308  0.1900
 4189TIP3    H236763   2.985   1.139  18.576  0.5571  0.0899 -0.7181
 4190TIP3   OH236764   6.318   5.702  18.717 -0.1329 -0.3442 -0.2422
 4190TIP3    H136765   6.320   5.628  18.656  0.1397  0.4625 -1.2419
 4190TIP3    H236766   6.258   5.764  18.677  0.9301  0.6916 -0.2913
 4191TIP3   OH236767   6.863   6.238  18.686 -0.5875  0.2233 -0.3032
 4191TIP3    H136768   6.879   6.330  18.706 -0.6945  0.7878 -2.5225
 4191TIP3    H236769   6.822   6.203  18.765  2.6936  1.1125  2.0164
 4192TIP3   OH236770   2.997   4.964  17.021  0.4577 -0.1116 -0.0993
 4192TIP3    H136771   2.909   4.935  16.995 -0.0104  1.3922 -0.2646
 4192TIP3    H236772   2.983   5.049  17.061  1.9703  0.6739 -1.1715
 4193TIP3   OH236773   1.837   2.068  18.178 -0.1299 -0.2240  0.0070
 4193TIP3    H136774   1.773   2.003  18.208 -0.9521  1.3875  1.9278
 4193TIP3    H236775   1.785   2.142  18.148  0.7882 -0.4880 -2.4996
 4194TIP3   OH236776   6.754   1.933  18.479 -0.6338  0.3787 -0.3910
 4194TIP3    H136777   6.821   1.901  18.540 -0.1294 -0.2220 -1.2370
 4194TIP3    H236778   6.803   1.983  18.413 -1.2960  1.9970  0.2953
 4195TIP3   OH236779   0.143   3.362  18.654  0.0353  0.1815  0.4342
 4195TIP3    H136780   0.212   3.296  18.656 -0.4618 -0.3850 -0.4487
 4195TIP3    H236781   0.127   3.384  18.746 -0.6658 -1.8657  0.8475
 4196TIP3   OH236782   3.168   3.517  17.851  0.6165 -0.2315 -0.0753
 4196TIP3    H136783   3.246   3.481  17.810 -1.0591 -2.9553 -1.1770
 4196TIP3    H236784   3.193   3.532  17.942  2.3557 -1.1707 -0.3597
 4197TIP3   OH236785   3.432   0.065  17.838  0.4217  0.3877  0.0085
 4197TIP3    H136786   3.339   0.069  17.816  0.1805 -2.6728 -0.0011
 4197TIP3    H236787   3.475   0.121  17.773 -1.1502 -0.7935 -2.1948
 4198TIP3   OH236788   2.663   2.307  18.534  0.2814  0.6820  0.1089
 4198TIP3    H136789   2.717   2.342  18.463 -0.1599  1.6803  0.2476
 4198TIP3    H236790   2.714   2.322  18.613  0.8836 -0.6617 -0.0159
 4199TIP3   OH236791   2.107   3.850  17.371 -0.0046  0.6933 -0.2432
 4199TIP3    H136792   2.069   3.783  17.315 -1.0841  0.9263  0.1965
 4199TIP3    H236793   2.196   3.819  17.389  0.3926  0.6342 -2.1025
 4200TIP3   OH236794   4.031   4.960  18.418 -0.1024  0.0654  0.2299
 4200TIP3    H136795   4.108   4.953  18.360 -0.9290  2.7044 -1.3744
 4200TIP3    H236796   3.963   4.912  18.371  0.3281 -1.7225  1.3423
 4201TIP3   OH236797   0.073   2.777  19.400 -0.3227  0.2063  0.3412
 4201TIP3    H136798   0.090   2.757  19.492 -0.2796  0.2369  0.3408
 4201TIP3    H236799   0.124   2.713  19.351 -0.6364 -0.0475  0.3395
 4202TIP3   OH236800   2.740   6.754  18.785  0.0994  0.1711  0.5124
 4202TIP3    H136801   2.762   6.715  18.700  1.8909  0.1451  0.9435
 4202TIP3    H236802   2.795   6.832  18.791  0.3041 -0.0472  1.8206
 4203TIP3   OH236803   5.535   7.165  18.234  0.3305 -0.0640 -0.0943
 4203TIP3    H136804   5.446   7.194  18.251 -0.1608 -1.2564 -0.5535
 4203TIP3    H236805   5.577   7.161  18.320  0.0518  0.8102  0.0890
 4204TIP3   OH236806   7.393   4.132  18.135 -0.1866 -0.7097  0.3043
 4204TIP3    H136807   7.299   4.145  18.143 -0.2977 -0.9204 -0.5699
 4204TIP3    H236808   7.411   4.053  18.186 -0.5947 -1.0740 -0.1112
 4205TIP3   OH236809   4.229   4.962  18.237 -0.5101 -0.5573  0.4395
 4205TIP3    H136810   4.214   4.975  18.144 -0.2285 -2.3929  0.1088
 4205TIP3    H236811   4.317   4.997  18.253 -0.2677 -0.8964 -0.1342
 4206TIP3   OH236812   6.943   2.147  17.556  0.1829  0.1003  0.4469
 4206TIP3    H136813   7.002   2.073  17.543  1.1804  1.1521 -1.5978
 4206TIP3    H236814   6.877   2.137  17.488  0.0156  0.7812  0.5026
 4207TIP3   OH236815   3.623   5.718  17.458  0.0646 -0.1074  0.1083
 4207TIP3    H136816   3.697   5.764  17.420  1.3322 -2.0442  0.0598
 4207TIP3    H236817   3.592   5.660  17.388  0.9601 -2.0476  1.2398
 4208TIP3   OH236818   5.855   4.665  17.437  0.3197  0.4803 -0.2654
 4208TIP3    H136819   5.881   4.748  17.477  1.1810 -0.1315  0.4880
 4208TIP3    H236820   5.825   4.612  17.511  0.9929 -0.3204 -0.5606
 4209TIP3   OH236821   0.430   3.949  18.935  0.1742 -0.6853  0.0423
 4209TIP3    H136822   0.390   4.032  18.963  1.1884 -0.8112  2.0984
 4209TIP3    H236823   0.473   3.970  18.852  0.9302  1.0376  0.8143
 4210TIP3   OH236824   0.259   2.369  16.777  0.4965 -0.1497  0.0612
 4210TIP3    H136825   0.208   2.291  16.755  0.2219  0.4101 -1.4018
 4210TIP3    H236826   0.201   2.422  16.832  0.2547 -0.4470  0.0927
 4211TIP3   OH236827   5.242   2.014  17.908  0.3739  0.1873  0.2865
 4211TIP3    H136828   5.292   2.079  17.957  1.2619 -0.0212 -0.3164
 4211TIP3    H236829   5.269   2.027  17.817 -3.0949  2.2903 -0.6424
 4212TIP3   OH236830   4.617   4.429  19.217  0.3513 -0.2618  0.2940
 4212TIP3    H136831   4.556   4.361  19.247 -1.8071  1.8183  0.9521
 4212TIP3    H236832   4.604   4.501  19.278  0.4878  1.7843 -1.9708
 4213TIP3   OH236833   2.295   2.387  19.044  0.0828 -0.6087 -0.6597
 4213TIP3    H136834   2.341   2.305  19.063  0.0641 -0.5341 -0.2686
 4213TIP3    H236835   2.354   2.455  19.076 -0.0651 -0.4885 -0.6430
 4214TIP3   OH236836   6.440   3.023  18.256 -0.3791  0.1092 -0.1037
 4214TIP3    H136837   6.517   3.016  18.199 -0.7085  1.3447 -0.7251
 4214TIP3    H236838   6.393   2.941  18.242  0.6163 -0.5038 -0.0045
 4215TIP3   OH236839   7.341   1.504  16.854  0.0985  0.0821  0.6303
 4215TIP3    H136840   7.344   1.412  16.827  1.6633  0.4074 -0.4905
 4215TIP3    H236841   7.373   1.504  16.944  1.3999 -0.3678  0.1965
 4216TIP3   OH236842   2.593   5.844  19.093 -0.4664  0.4291 -0.1688
 4216TIP3    H136843   2.607   5.916  19.155 -0.1746  0.2578 -0.0316
 4216TIP3    H236844   2.624   5.878  19.009 -1.2418  0.8077 -0.3109
 4217TIP3   OH236845   2.919   5.166  17.856 -0.1154  0.0621  0.7781
 4217TIP3    H136846   2.828   5.148  17.833 -0.1583  2.3967 -1.3114
 4217TIP3    H236847   2.970   5.103  17.805 -0.4866  1.3066 -1.2530
 4218TIP3   OH236848   1.606   6.926  16.710 -0.3866  0.1291  0.3184
 4218TIP3    H136849   1.607   6.832  16.689 -2.0319  0.0814  0.3429
 4218TIP3    H236850   1.514   6.951  16.704 -0.1833  1.4017  1.8658
 4219TIP3   OH236851   2.331   2.801  19.416  0.5793 -0.0230 -0.0210
 4219TIP3    H136852   2.359   2.732  19.357 -0.7695 -0.4012 -0.2440
 4219TIP3    H236853   2.412   2.828  19.461  0.9800 -2.5619  0.9647
 4220TIP3   OH236854   3.731   2.955  17.197 -0.2433  0.1027 -0.1523
 4220TIP3    H136855   3.826   2.948  17.193 -0.3269 -1.7631  0.0593
 4220TIP3    H236856   3.712   2.997  17.281  0.3818 -0.6705  0.3881
 4221TIP3   OH236857   3.297   0.758  17.466 -0.3647 -0.3682 -0.1185
 4221TIP3    H136858   3.269   0.700  17.395 -0.2617 -1.0735  0.4124
 4221TIP3    H236859   3.224   0.820  17.476 -0.5889 -0.5669 -0.5115
 4222TIP3   OH236860   0.694   7.453  18.600  0.7411 -0.3005  0.5797
 4222TIP3    H136861   0.777   7.443  18.645  0.3527 -1.3267  1.1169
 4222TIP3    H236862   0.684   7.371  18.551  0.8960  0.5623 -0.9560
 4223TIP3   OH236863   4.639   4.939  16.676 -0.0272  0.2538  0.3162
 4223TIP3    H136864   4.691   4.900  16.606 -1.0065 -0.7066  0.1056
 4223TIP3    H236865   4.554   4.958  16.636 -0.4522  0.1048  1.1310
 4224TIP3   OH236866   4.071   2.416  17.032  0.4504  0.2545  0.3483
 4224TIP3    H136867   4.120   2.364  16.969  0.8152  0.3719  0.5348
 4224TIP3    H236868   3.991   2.441  16.986  0.8253  0.5375 -0.1428
 4225TIP3   OH236869   0.278   5.911  18.022  0.5567 -0.4055  0.1659
 4225TIP3    H136870   0.284   5.910  18.117 -1.7142  0.9121  0.3962
 4225TIP3    H236871   0.246   5.823  17.999 -0.4102 -0.2270  0.7835
 4226TIP3   OH236872   0.588   5.178  16.803  0.6032  0.0944 -0.3249
 4226TIP3    H136873   0.561   5.103  16.856 -1.3796  0.5332 -0.6332
 4226TIP3    H236874   0.683   5.178  16.807  0.9204 -4.0515 -2.4507
 4227TIP3   OH236875   0.407   6.559  17.757 -0.2665  0.3088  0.0699
 4227TIP3    H136876   0.419   6.486  17.817 -1.3556  2.7833  3.6102
 4227TIP3    H236877   0.493   6.599  17.750 -0.2863  0.4377  0.5729
 4228TIP3   OH236878   6.747   1.343  17.683  0.2117 -0.1148  0.8206
 4228TIP3    H136879   6.715   1.275  17.624  1.8143  0.1628 -0.4501
 4228TIP3    H236880   6.668   1.379  17.723 -0.9457 -0.4612 -1.0110
 4229TIP3   OH236881   3.033   2.125  18.164  0.1072  0.3325 -0.2685
 4229TIP3    H136882   2.998   2.089  18.245  0.4986 -2.5157 -1.2664
 4229TIP3    H236883   2.956   2.159  18.118 -0.4971 -0.4472  0.1461
 4230TIP3   OH236884   1.295   5.664  17.308 -0.5251 -0.5514  0.1380
 4230TIP3    H136885   1.379   5.708  17.296 -0.2539 -0.6918  1.4185
 4230TIP3    H236886   1.317   5.574  17.331 -1.0671 -1.0647 -1.2470
 4231TIP3   OH236887   3.308   3.635  18.334  0.1623 -0.2545  0.0847
 4231TIP3    H136888   3.364   3.624  18.411  0.5729  0.5772 -0.0936
 4231TIP3    H236889   3.222   3.659  18.371  0.2731 -0.1728  0.2939
 4232TIP3   OH236890   2.774   0.008  17.159  0.7812 -1.2278  0.2442
 4232TIP3    H136891   2.759   0.063  17.083 -0.3183  1.2114  2.1013
 4232TIP3    H236892   2.868  -0.009  17.159  1.2632  1.1754 -0.1156
 4233TIP3   OH236893   2.819   6.220  17.314 -0.1522  0.4817  0.6956
 4233TIP3    H136894   2.863   6.166  17.379 -1.6048  0.0267  1.3340
 4233TIP3    H236895   2.890   6.262  17.265  1.0508 -2.1862 -0.0004
 4234TIP3   OH236896   6.232   3.216  18.831  0.0116  0.2997  0.4665
 4234TIP3    H136897   6.323   3.212  18.803 -0.1360  0.1447 -0.0063
 4234TIP3    H236898   6.193   3.135  18.798 -0.3141  0.4037  0.5925
 4235TIP3   OH236899   5.406   3.964  18.490 -0.1101  0.1443  0.4936
 4235TIP3    H136900   5.442   3.910  18.420  1.2922  1.5282  0.1040
 4235TIP3    H236901   5.326   4.002  18.452 -1.3386 -1.8799  0.9047
 4236TIP3   OH236902   6.357   7.408  18.532 -0.1204  0.4615  0.5384
 4236TIP3    H136903   6.383   7.330  18.482 -0.5787  1.5780 -1.5301
 4236TIP3    H236904   6.436   7.462  18.535  0.1738 -0.0023  1.9057
 4237TIP3   OH236905   2.762   6.636  18.530 -0.4226 -0.3400 -0.1638
 4237TIP3    H136906   2.704   6.670  18.461  1.1772  0.9793 -0.9381
 4237TIP3    H236907   2.844   6.617  18.484  0.5335  0.1325  1.2924
 4238TIP3   OH236908   0.908   5.072  18.932  0.0729 -0.3117 -0.5992
 4238TIP3    H136909   0.913   5.010  19.004 -0.4521  2.6598  2.2492
 4238TIP3    H236910   0.999   5.094  18.913  0.1830  0.1949  0.4505
 4239TIP3   OH236911   5.918   5.117  18.173  0.2075  0.3940 -0.2678
 4239TIP3    H136912   5.900   5.070  18.092  0.3327 -1.5771  0.7759
 4239TIP3    H236913   5.875   5.065  18.241 -1.3244  2.8583  0.8138
 4240TIP3   OH236914   3.039   0.567  17.083  0.2283 -0.0753 -0.2045
 4240TIP3    H136915   2.977   0.515  17.134  0.1063  0.0912 -0.1830
 4240TIP3    H236916   2.997   0.580  16.999  0.3128 -0.1158 -0.2540
 4241TIP3   OH236917   0.051   4.358  18.760  0.4474  0.3799  0.1107
 4241TIP3    H136918   0.126   4.380  18.816  0.4043 -1.1376  0.8009
 4241TIP3    H236919   0.031   4.267  18.781 -2.2636  1.0272  0.7173
 4242TIP3   OH236920   5.542   3.774  18.366  0.0975  0.4649  0.0369
 4242TIP3    H136921   5.618   3.779  18.424  0.8411 -0.3093 -0.8345
 4242TIP3    H236922   5.516   3.682  18.370  0.0275  0.4498 -0.6932
 4243TIP3   OH236923   0.875   3.878  18.012  0.0071 -0.4632 -0.0061
 4243TIP3    H136924   0.861   3.787  17.988  0.7332 -0.7290  0.5166
 4243TIP3    H236925   0.952   3.875  18.070 -0.6291  0.3429  0.8994
 4244TIP3   OH236926   0.851   5.474  16.167  0.6454  0.4828  0.0541
 4244TIP3    H136927   0.877   5.383  16.156  1.1857  0.7445 -0.9444
 4244TIP3    H236928   0.930   5.517  16.199  0.7657  0.8350 -0.7015
 4245TIP3   OH236929   5.453   3.397  19.350 -0.6123  0.2317 -0.8288
 4245TIP3    H136930   5.509   3.428  19.420 -0.7025 -2.2393  0.4383
 4245TIP3    H236931   5.513   3.372  19.280 -0.3654  0.6025 -0.7507
 4246TIP3   OH236932   6.678   6.909  19.253  0.1425 -0.3064 -0.2553
 4246TIP3    H136933   6.710   6.838  19.197  1.5700 -0.8216  1.1304
 4246TIP3    H236934   6.589   6.882  19.277  0.9397 -2.0828  0.8979
 4247TIP3   OH236935   3.042   0.518  19.010  0.1433  0.7796 -0.3582
 4247TIP3    H136936   2.989   0.590  19.045  0.3039  0.1304  1.3511
 4247TIP3    H236937   2.988   0.478  18.943 -1.2960  0.5560  0.8821
 4248TIP3   OH236938   6.024   3.067  18.031 -0.1034  0.0458  0.7875
 4248TIP3    H136939   6.003   3.002  17.964 -1.0813 -0.2683  1.3815
 4248TIP3    H236940   5.963   3.139  18.013  0.7991  0.7046  0.2908
 4249TIP3   OH236941   7.387   2.164  17.664 -0.7303  0.1986  0.4821
 4249TIP3    H136942   7.376   2.075  17.629  0.4567  0.6644 -1.1674
 4249TIP3    H236943   7.376   2.221  17.589 -0.6494  1.4222  1.3749
 4250TIP3   OH236944   6.367   1.806  17.786 -0.4102 -0.5999  0.2857
 4250TIP3    H136945   6.366   1.803  17.882 -2.7248 -0.1198  0.3441
 4250TIP3    H236946   6.419   1.882  17.764  1.3888 -1.5435  1.0783
 4251TIP3   OH236947   4.558   0.509  18.621  0.1851  0.0657  0.3054
 4251TIP3    H136948   4.551   0.490  18.715  0.5059  0.1855  0.3537
 4251TIP3    H236949   4.648   0.538  18.609  0.0948  0.2135 -0.0119
 4252TIP3   OH236950   5.547   7.677  17.224 -0.1098  0.1332  0.0481
 4252TIP3    H136951   5.570   7.743  17.290 -1.2764  1.6817 -1.0264
 4252TIP3    H236952   5.497   7.611  17.273 -2.4418  2.0964  0.5470
 4253TIP3   OH236953   3.954   3.266  18.110  0.5247  0.7138  0.0454
 4253TIP3    H136954   3.861   3.286  18.110  0.9369  2.9754 -1.6875
 4253TIP3    H236955   3.960   3.179  18.068 -0.8805 -0.3916  2.0092
 4254TIP3   OH236956   2.001   0.170  17.867 -0.5320  0.1197 -0.1733
 4254TIP3    H136957   2.083   0.215  17.889 -0.2196 -0.2049 -0.6637
 4254TIP3    H236958   1.990   0.105  17.937 -1.2926  1.3275  0.8772
 4255TIP3   OH236959   3.111   5.637  18.344 -0.0855  0.1215 -0.8390
 4255TIP3    H136960   3.065   5.557  18.318  0.9523 -1.1004  0.8411
 4255TIP3    H236961   3.186   5.606  18.395  0.6507  2.1696 -0.5653
 4256TIP3   OH236962   3.912   2.275  18.571 -0.4064  0.2415 -0.7704
 4256TIP3    H136963   3.955   2.198  18.534 -1.1354 -0.1896 -0.7313
 4256TIP3    H236964   3.838   2.292  18.512 -0.3000  0.8616 -0.7311
 4257TIP3   OH236965   6.193   5.538  17.460 -0.5958 -0.1558  0.0209
 4257TIP3    H136966   6.170   5.591  17.383 -1.6785  0.4317  0.7306
 4257TIP3    H236967   6.226   5.456  17.423  1.8336  1.2519 -1.1077
 4258TIP3   OH236968   2.195   2.218  17.876 -0.0712  0.5095 -0.1156
 4258TIP3    H136969   2.282   2.253  17.897 -0.5715  0.9809  1.2796
 4258TIP3    H236970   2.164   2.179  17.958 -1.7155  1.5136 -0.2135
 4259TIP3   OH236971   0.953   5.697  18.973 -0.3880 -0.4405 -0.0142
 4259TIP3    H136972   0.963   5.671  19.064 -2.3070  0.1147  0.3943
 4259TIP3    H236973   1.041   5.689  18.936  0.0879 -2.4191  1.3864
 4260TIP3   OH236974   1.357   2.640  19.536  0.2897  0.1474 -0.7437
 4260TIP3    H136975   1.349   2.545  19.533  0.1352  0.1366 -3.9124
 4260TIP3    H236976   1.452   2.656  19.537  0.3257 -0.0582 -0.8418
 4261TIP3   OH236977   0.925   1.228  16.972  0.4681  0.0268  0.0590
 4261TIP3    H136978   0.909   1.320  16.994  2.8143  0.3750  0.6395
 4261TIP3    H236979   0.859   1.207  16.906 -0.8454  1.7735  0.7503
 4262TIP3   OH236980   0.933   1.387  18.248  0.1742  0.0984 -0.0937
 4262TIP3    H136981   0.859   1.434  18.209 -0.5914 -1.1732 -0.2373
 4262TIP3    H236982   0.957   1.321  18.183 -0.0733 -0.9967  0.8817
 4263TIP3   OH236983   4.838   7.439  18.857  0.1680  0.4847  0.0742
 4263TIP3    H136984   4.843   7.465  18.765 -0.5324 -1.1216 -0.4530
 4263TIP3    H236985   4.745   7.421  18.872  0.1205  1.6163  1.3886
 4264TIP3   OH236986   7.114   6.589  17.548  0.3875  0.1772  0.3410
 4264TIP3    H136987   7.146   6.499  17.556 -0.6311 -0.2727 -0.4001
 4264TIP3    H236988   7.036   6.582  17.493  0.3036  1.5213  0.2489
 4265TIP3   OH236989   5.689   2.695  17.580  0.6784  0.1091 -0.0487
 4265TIP3    H136990   5.655   2.767  17.633  2.8085  1.0579  0.1496
 4265TIP3    H236991   5.705   2.733  17.494  0.4027 -0.5293 -0.3914
 4266TIP3   OH236992   7.172   3.804  18.986 -0.8482  0.1810  0.5326
 4266TIP3    H136993   7.122   3.813  18.905 -1.2919 -2.0771  0.5111
 4266TIP3    H236994   7.140   3.876  19.041 -3.2363 -0.4386  0.0638
 4267TIP3   OH236995   5.812   4.163  17.194  0.6929  0.1630 -0.1545
 4267TIP3    H136996   5.902   4.195  17.186  0.7630  0.3156  0.9907
 4267TIP3    H236997   5.807   4.089  17.133  1.1604  1.0211 -1.2698
 4268TIP3   OH236998   4.402   5.400  18.461  0.0603 -0.3860 -0.3293
 4268TIP3    H136999   4.470   5.383  18.526  0.2131  1.0468 -0.0783
 4268TIP3    H237000   4.449   5.436  18.386 -0.1852 -1.4453 -1.0073
 4269TIP3   OH237001   1.215   3.116  17.775 -0.4481 -0.5258  0.4184
 4269TIP3    H137002   1.150   3.174  17.814 -0.0658 -0.3286  0.7631
 4269TIP3    H237003   1.272   3.091  17.847  2.1061  2.2458 -0.4774
 4270TIP3   OH237004   7.680   0.097  19.179  0.3995  0.1812 -0.4600
 4270TIP3    H137005   7.592   0.116  19.147  0.1755  3.1846  1.5026
 4270TIP3    H237006   7.665   0.050  19.262  0.5918  0.8220 -0.0526
 4271TIP3   OH237007   4.897   2.879  17.551  0.4650 -0.2582  0.0254
 4271TIP3    H137008   4.897   2.783  17.560 -0.8326 -0.4443 -1.5243
 4271TIP3    H237009   4.837   2.909  17.618  0.4131 -0.5770  0.1261
 4272TIP3   OH237010   1.948   2.303  18.459 -0.1561 -0.1791 -0.1921
 4272TIP3    H137011   1.883   2.234  18.472 -1.1757 -0.1531 -3.9002
 4272TIP3    H237012   1.900   2.384  18.474  0.1622 -0.1823  0.9496
 4273TIP3   OH237013   5.288   5.256  18.347 -0.1401 -0.1101  0.1012
 4273TIP3    H137014   5.287   5.349  18.326 -0.4642 -0.2586 -0.5562
 4273TIP3    H237015   5.322   5.213  18.269  0.5137 -0.5026  0.5931
 4274TIP3   OH237016   5.279   1.361  18.653  0.1093 -0.3661 -0.1158
 4274TIP3    H137017   5.242   1.380  18.740  2.8633  0.9882  0.8697
 4274TIP3    H237018   5.327   1.440  18.630  0.5240 -1.2009 -2.3359
 4275TIP3   OH237019   1.755   4.105  18.049  0.0523  0.5072 -0.4435
 4275TIP3    H137020   1.784   4.194  18.071 -2.0976  1.2717 -0.4671
 4275TIP3    H237021   1.797   4.086  17.965  0.9324  1.2893 -0.1987
 4276TIP3   OH237022   6.776   3.683  19.397 -0.1947  0.2245  0.0761
 4276TIP3    H137023   6.827   3.736  19.458  0.2662  0.6997 -0.7227
 4276TIP3    H237024   6.826   3.683  19.316  1.3125 -3.7370  0.7847
 4277TIP3   OH237025   3.623   6.274  17.769  0.8866 -0.8583 -0.1254
 4277TIP3    H137026   3.569   6.195  17.774  1.7056 -1.3836  0.8078
 4277TIP3    H237027   3.628   6.306  17.859  1.3417 -0.2756 -0.3469
 4278TIP3   OH237028   0.307   3.162  17.710  0.3263 -0.1008 -0.4848
 4278TIP3    H137029   0.379   3.105  17.684  0.3361 -0.8808  1.1025
 4278TIP3    H237030   0.244   3.104  17.752 -0.5230  0.7961 -0.4825
 4279TIP3   OH237031   2.493   6.431  18.512 -0.0508  0.0950 -0.8519
 4279TIP3    H137032   2.557   6.502  18.515 -0.8207  0.8444 -1.4702
 4279TIP3    H237033   2.411   6.474  18.486 -1.0690 -0.6415  0.9459
 4280TIP3   OH237034   3.235   0.838  16.579  0.1499  0.0039  0.7670
 4280TIP3    H137035   3.161   0.788  16.613 -0.9915  1.6666  0.8604
 4280TIP3    H237036   3.212   0.857  16.488  0.1126  1.0957  0.9865
 4281TIP3   OH237037   6.786   4.249  18.571 -0.0068 -0.5131 -0.1616
 4281TIP3    H137038   6.824   4.336  18.567 -0.2036 -0.4240 -0.0928
 4281TIP3    H237039   6.692   4.262  18.556 -0.1935 -0.5916  0.8371
 4282TIP3   OH237040   3.393   0.213  17.253  0.6686 -0.0584  0.2241
 4282TIP3    H137041   3.467   0.156  17.277  0.7168  0.7613  2.1333
 4282TIP3    H237042   3.396   0.215  17.157  2.0247 -1.4773  0.1874
 4283TIP3   OH237043   3.490   5.111  19.158 -0.1852  0.0678 -0.3426
 4283TIP3    H137044   3.568   5.103  19.213 -0.3232 -0.4980 -0.2197
 4283TIP3    H237045   3.422   5.143  19.218  0.1191  1.2619 -0.6084
 4284TIP3   OH237046   6.142   0.327  16.904 -0.1692  0.5958  0.2221
 4284TIP3    H137047   6.217   0.285  16.945 -0.4693  1.4844  1.7586
 4284TIP3    H237048   6.178   0.372  16.827  0.2715 -1.7508 -1.0398
 4285TIP3   OH237049   6.519   4.311  18.563 -0.3373 -0.1764 -0.0607
 4285TIP3    H137050   6.525   4.401  18.593  0.2639  0.1400 -1.0898
 4285TIP3    H237051   6.425   4.295  18.554 -0.4277  0.7339 -0.9548
 4286TIP3   OH237052   1.366   4.892  17.097 -0.2874  0.7611  0.4071
 4286TIP3    H137053   1.396   4.966  17.045  1.5371 -0.8499 -0.9850
 4286TIP3    H237054   1.294   4.854  17.046  0.4742  0.0985 -0.1971
 4287TIP3   OH237055   1.451   2.999  17.461  0.0577  0.0443  0.3278
 4287TIP3    H137056   1.426   2.951  17.541 -0.9074 -0.4896 -0.2757
 4287TIP3    H237057   1.500   2.935  17.409 -0.8851 -0.1824 -0.3016
 4288TIP3   OH237058   1.985   7.615  18.807  0.3078 -0.0534  0.2875
 4288TIP3    H137059   1.897   7.602  18.842 -0.1623 -0.0698 -0.8673
 4288TIP3    H237060   2.034   7.653  18.880 -0.6681  0.0261  0.9212
 4289TIP3   OH237061   2.451   6.463  18.190 -0.1972 -0.4187  0.0783
 4289TIP3    H137062   2.413   6.380  18.220 -1.8478 -0.3835 -1.7174
 4289TIP3    H237063   2.430   6.466  18.097 -0.4451  2.1605  0.1567
 4290TIP3   OH237064   7.228   7.374  18.960 -0.0785 -0.3355  0.3454
 4290TIP3    H137065   7.308   7.347  19.004  1.5739  0.5992 -1.9457
 4290TIP3    H237066   7.225   7.469  18.972 -0.8033 -0.3449  0.3087
 4291TIP3   OH237067   3.099   4.970  18.642 -0.2018  0.2745  0.1788
 4291TIP3    H137068   3.014   5.002  18.675 -0.6608  0.1534 -0.8526
 4291TIP3    H237069   3.127   5.037  18.580  1.0383  0.8867  1.3423
 4292TIP3   OH237070   7.502   3.531  18.992  0.1254 -0.0269 -0.0430
 4292TIP3    H137071   7.497   3.626  18.986 -0.1722 -0.0954 -0.9765
 4292TIP3    H237072   7.595   3.511  18.986  0.1458  0.1712 -0.3770
 4293TIP3   OH237073   3.890   1.877  18.770  0.2615  0.0326  0.1322
 4293TIP3    H137074   3.934   1.812  18.824 -1.2873 -1.4406 -0.3249
 4293TIP3    H237075   3.953   1.949  18.763  1.1756 -0.4890  2.4040
 4294TIP3   OH237076   2.997   4.260  19.095  0.3302  0.0179  0.1451
 4294TIP3    H137077   2.911   4.224  19.074  0.4960  1.4126 -3.6532
 4294TIP3    H237078   3.059   4.195  19.061  0.8096 -0.3289  1.6215
 4295TIP3   OH237079   0.321   2.886  18.402 -0.0015  0.3071  0.5658
 4295TIP3    H137080   0.413   2.915  18.408 -0.1658  1.1517 -0.5311
 4295TIP3    H237081   0.327   2.794  18.375  0.5201 -0.1266  2.0657
 4296TIP3   OH237082   1.631   2.536  19.232 -0.2441 -0.0824  0.5082
 4296TIP3    H137083   1.706   2.497  19.188 -1.1817 -0.9256 -0.3879
 4296TIP3    H237084   1.556   2.483  19.204 -1.3724  1.5398  0.3016
 4297TIP3   OH237085   0.847   4.174  18.073  0.4842  0.4030 -0.1333
 4297TIP3    H137086   0.810   4.223  18.000  0.2852 -0.5372 -0.6683
 4297TIP3    H237087   0.818   4.084  18.060 -0.9439  0.4845  2.0069
 4298TIP3   OH237088   1.262   4.296  19.261  0.0321 -0.3114  0.4207
 4298TIP3    H137089   1.184   4.240  19.253 -0.5023  0.3372  0.9728
 4298TIP3    H237090   1.230   4.384  19.245  1.3827 -0.3240 -3.5389
 4299TIP3   OH237091   5.743   5.842  18.813 -0.2847 -0.4921  1.1739
 4299TIP3    H137092   5.679   5.843  18.742  0.9269  0.4349  0.0436
 4299TIP3    H237093   5.798   5.766  18.794  0.6164  0.2967  0.5602
 4300TIP3   OH237094   2.676   5.532  18.793 -0.4668  0.0944  0.5815
 4300TIP3    H137095   2.702   5.488  18.874 -0.3446  0.2336  0.6174
 4300TIP3    H237096   2.626   5.466  18.744  2.2294 -1.1308 -0.7253
 4301TIP3   OH237097   0.706   2.564  17.040 -0.5282 -0.3543  0.2353
 4301TIP3    H137098   0.617   2.569  17.006 -0.0787  1.6548 -0.7586
 4301TIP3    H237099   0.762   2.561  16.963  0.3410  0.1980  0.8245
 4302TIP3   OH237100   5.528   2.373  19.192 -0.3315 -0.5154  0.0032
 4302TIP3    H137101   5.574   2.306  19.142 -1.9063 -0.5039 -1.5506
 4302TIP3    H237102   5.443   2.333  19.213 -0.7781  0.5154  0.2229
 4303TIP3   OH237103   0.392   6.497  18.207 -0.1636  0.1323 -1.1455
 4303TIP3    H137104   0.486   6.481  18.199  0.2842  1.7807  0.1543
 4303TIP3    H237105   0.352   6.440  18.141  1.6273 -1.5858 -0.8460
 4304TIP3   OH237106   2.192   2.432  17.645  0.4153 -0.7267  0.3691
 4304TIP3    H137107   2.215   2.489  17.719  2.8344  0.7803 -1.4004
 4304TIP3    H237108   2.161   2.492  17.577  2.0529 -1.5569 -1.1959
 4305TIP3   OH237109   2.637   6.599  18.988 -0.0362  0.2506  0.0170
 4305TIP3    H137110   2.565   6.549  18.949 -0.4972  0.1096  1.0093
 4305TIP3    H237111   2.686   6.633  18.913  1.5423 -3.3671 -0.7665
 4306TIP3   OH237112   7.011   0.829  19.226  0.3894  0.2847 -0.2860
 4306TIP3    H137113   6.980   0.881  19.300 -0.9279 -1.5493  0.5326
 4306TIP3    H237114   7.006   0.888  19.151 -2.6740  0.8985  0.2766
 4307TIP3   OH237115   5.561   3.357  17.919 -0.0661 -0.1172 -0.0815
 4307TIP3    H137116   5.557   3.434  17.976  2.2538 -0.1469  0.2181
 4307TIP3    H237117   5.633   3.305  17.955 -0.0217 -1.2455 -1.7087
 4308TIP3   OH237118   6.411   1.801  18.124 -0.0478 -0.5538 -0.0239
 4308TIP3    H137119   6.363   1.736  18.175 -0.6187 -0.1026  0.0216
 4308TIP3    H237120   6.356   1.879  18.126  0.5822 -0.0969 -0.1664
 4309TIP3   OH237121   2.068   5.665  16.739  0.1960 -0.2710 -0.1813
 4309TIP3    H137122   2.134   5.643  16.805  0.3260  0.7867  0.0493
 4309TIP3    H237123   1.995   5.606  16.759  0.9088 -1.2009 -0.2083
 4310TIP3   OH237124   5.607   4.345  17.731  0.7001 -0.1072  0.1485
 4310TIP3    H137125   5.614   4.295  17.649 -0.3798  1.6787 -1.1090
 4310TIP3    H237126   5.537   4.301  17.779  0.5345 -0.4991 -0.4312
 4311TIP3   OH237127   0.840   2.544  18.702  0.5588  0.0048 -0.0965
 4311TIP3    H137128   0.885   2.515  18.623  0.5536 -1.8937  0.5263
 4311TIP3    H237129   0.753   2.571  18.672  1.5891  2.4641 -1.1273
 4312TIP3   OH237130   2.851   5.115  18.601 -0.0719  0.1033 -0.1944
 4312TIP3    H137131   2.820   5.200  18.571 -3.2771 -0.8598 -0.0751
 4312TIP3    H237132   2.798   5.052  18.552  0.9597 -1.7728  0.9827
 4313TIP3   OH237133   0.652   3.426  18.278  0.2766  0.1581 -0.0255
 4313TIP3    H137134   0.636   3.453  18.368 -0.3109 -0.0829 -0.0512
 4313TIP3    H237135   0.565   3.425  18.238  0.7204  2.0233 -1.1007
 4314TIP3   OH237136   0.518   1.243  17.798  0.2473  0.2704  0.2588
 4314TIP3    H137137   0.562   1.203  17.873 -0.3145  0.0891  0.4981
 4314TIP3    H237138   0.574   1.222  17.723  0.2976 -0.3992  0.4822
 4315TIP3   OH237139   5.261   4.711  19.095  0.5109  0.1275 -0.2510
 4315TIP3    H137140   5.248   4.681  19.006 -0.8511  1.0910 -0.4034
 4315TIP3    H237141   5.275   4.631  19.146 -1.7807 -0.7228 -0.8329
 4316TIP3   OH237142   3.723   4.327  17.656  0.1556  0.1744 -0.2612
 4316TIP3    H137143   3.722   4.342  17.562  1.4886  1.8290 -0.0575
 4316TIP3    H237144   3.792   4.385  17.689 -0.0866 -0.5760  1.6979
 4317TIP3   OH237145   5.081   6.594  17.554  0.7287 -0.4470 -0.0197
 4317TIP3    H137146   5.006   6.641  17.590  0.4365 -0.5871 -0.4234
 4317TIP3    H237147   5.045   6.547  17.479  1.4944  0.5762 -1.0743
 4318TIP3   OH237148   1.989   5.680  19.020 -0.2624 -0.0433 -0.2582
 4318TIP3    H137149   2.011   5.588  19.008 -0.7565  0.0141 -1.8365
 4318TIP3    H237150   1.938   5.703  18.943 -1.0219  1.2972  0.5950
 4319TIP3   OH237151   6.506   5.008  17.070 -0.0055  0.2621  0.1573
 4319TIP3    H137152   6.478   5.079  17.128 -0.4102  0.2843 -0.0636
 4319TIP3    H237153   6.507   4.931  17.127 -1.4629  0.0756 -0.0490
 4320TIP3   OH237154   3.166   1.280  17.296 -0.2495 -0.1841  0.4044
 4320TIP3    H137155   3.154   1.337  17.220  1.3470 -0.1349  0.1684
 4320TIP3    H237156   3.101   1.311  17.359  0.2704  1.5844  0.1086
 4321TIP3   OH237157   0.959   6.104  19.007  0.3078 -0.0031 -0.1184
 4321TIP3    H137158   1.040   6.099  19.058 -0.1552 -0.1226  0.6216
 4321TIP3    H237159   0.903   6.036  19.045 -1.3409  2.1508  1.5755
 4322TIP3   OH237160   5.817   0.387  17.507  0.1117 -0.1852 -0.2115
 4322TIP3    H137161   5.772   0.465  17.539  0.3142 -0.4584  0.7583
 4322TIP3    H237162   5.902   0.418  17.478 -0.9036  0.4762 -2.7857
 4323TIP3   OH237163   0.584   3.952  17.914  0.0676  0.1747  0.4065
 4323TIP3    H137164   0.662   3.974  17.863  0.5632  0.3517  1.2263
 4323TIP3    H237165   0.610   3.877  17.967 -0.4552 -0.0380  0.3648
 4324TIP3   OH237166   4.544   1.613  17.943  0.0899 -0.3492 -0.2286
 4324TIP3    H137167   4.455   1.616  17.907  0.4300  1.1514 -1.0031
 4324TIP3    H237168   4.563   1.520  17.952 -1.9643 -0.7190  0.9944
 4325TIP3   OH237169   1.105   2.136  18.641 -0.1416 -0.1807  0.6039
 4325TIP3    H137170   1.024   2.105  18.682 -0.0323  1.0054  1.7862
 4325TIP3    H237171   1.084   2.139  18.547 -0.2334 -3.4132  0.4301
 4326TIP3   OH237172   7.618   7.036  19.211  0.5204 -0.6655  0.0701
 4326TIP3    H137173   7.681   7.078  19.152 -0.5173  1.3237  0.2921
 4326TIP3    H237174   7.632   7.079  19.295 -1.1042 -0.1862  0.1258
 4327TIP3   OH237175   0.891   1.436  18.649  0.0207  0.1926 -0.2184
 4327TIP3    H137176   0.896   1.532  18.644 -0.4427  0.3607  1.7708
 4327TIP3    H237177   0.818   1.414  18.591 -0.6288  1.1768  0.1847
 4328TIP3   OH237178   6.218   3.972  19.157  0.2383 -0.3308 -0.0803
 4328TIP3    H137179   6.178   4.001  19.075 -0.2976  0.0613  0.3116
 4328TIP3    H237180   6.284   3.908  19.130  0.9397  0.6912 -0.9183
 4329TIP3   OH237181   5.914   6.084  19.217 -0.1713  0.0956  0.6568
 4329TIP3    H137182   5.831   6.046  19.245 -0.0743  0.5714  1.6172
 4329TIP3    H237183   5.924   6.162  19.270  0.1807  0.8673 -0.4956
 4330TIP3   OH237184   1.884   4.691  19.220  0.0164  0.2283 -0.2270
 4330TIP3    H137185   1.845   4.718  19.304 -2.3483  0.0730 -1.1869
 4330TIP3    H237186   1.917   4.603  19.236  1.8328  1.0999  1.1568
 4331TIP3   OH237187   0.300   6.473  18.813  0.0615 -0.1454  0.2005
 4331TIP3    H137188   0.339   6.433  18.890  3.4626  1.7714 -0.3657
 4331TIP3    H237189   0.292   6.401  18.750 -0.9014 -1.3178  1.6158
 4332TIP3   OH237190   5.621   4.132  17.553 -0.6938  0.0346 -0.2945
 4332TIP3    H137191   5.708   4.102  17.581 -0.3300  1.5029  0.2239
 4332TIP3    H237192   5.561   4.067  17.590  0.0063  0.2974  1.4351
 4333TIP3   OH237193   5.155   0.392  18.039 -0.7996 -0.1532  0.2585
 4333TIP3    H137194   5.212   0.455  18.083 -0.5169 -0.7719  0.8013
 4333TIP3    H237195   5.113   0.344  18.111  0.4907 -1.9245 -0.1070
 4334TIP3   OH237196   2.229   0.296  17.977  0.1666 -0.1711  0.0386
 4334TIP3    H137197   2.303   0.350  18.007 -1.1906  1.5780  0.4334
 4334TIP3    H237198   2.222   0.227  18.043  0.7549  0.3064  0.6237
 4335TIP3   OH237199   0.604   4.982  17.949  0.2308 -0.0700  0.1584
 4335TIP3    H137200   0.588   4.996  18.043 -1.9875 -0.6879 -0.0755
 4335TIP3    H237201   0.532   5.028  17.906  1.4617  0.5556 -1.2886
 4336TIP3   OH237202   4.330   1.886  19.106 -0.0136 -0.3403  0.2665
 4336TIP3    H137203   4.405   1.933  19.144  1.2050 -1.5932 -0.4746
 4336TIP3    H237204   4.282   1.954  19.057  0.0457  0.6850  1.5771
 4337TIP3   OH237205   2.922   2.626  18.097  0.3865 -0.2024  0.1365
 4337TIP3    H137206   2.882   2.671  18.024 -0.7286 -0.2918  0.6658
 4337TIP3    H237207   2.848   2.602  18.154  0.8974 -2.6968 -0.1327
 4338TIP3   OH237208   1.425   4.441  18.932  0.1074 -0.2844  0.3760
 4338TIP3    H137209   1.452   4.357  18.969 -1.7923 -0.9092  0.4534
 4338TIP3    H237210   1.498   4.500  18.950 -0.1635 -0.8598  4.0555
 4339TIP3   OH237211   0.133   2.070  16.953  0.0298  0.1085 -0.0926
 4339TIP3    H137212   0.105   2.122  16.877  1.3939 -0.8774 -1.3296
 4339TIP3    H237213   0.210   2.022  16.922  1.6728  0.9219  2.4186
 4340TIP3   OH237214   2.405   2.514  17.222 -0.1883  0.0620 -0.3612
 4340TIP3    H137215   2.442   2.429  17.196  0.0651  0.5513 -1.7165
 4340TIP3    H237216   2.479   2.574  17.219 -0.2190  0.2274  1.2930
 4341TIP3   OH237217   7.500   3.608  17.696  0.3334 -0.4774  0.1712
 4341TIP3    H137218   7.539   3.690  17.726  1.0475 -0.2449 -1.3113
 4341TIP3    H237219   7.459   3.571  17.775  0.8689  0.7904  1.0861
 4342TIP3   OH237220   6.745   0.153  18.354  0.1510 -0.2904  0.3012
 4342TIP3    H137221   6.733   0.247  18.339 -1.3314 -0.5278 -0.2042
 4342TIP3    H237222   6.835   0.145  18.384  0.9536  1.0712 -1.5671
 4343TIP3   OH237223   3.972   6.034  18.611  0.5055 -0.2839 -0.1125
 4343TIP3    H137224   3.984   5.941  18.633  0.8772 -0.0233  0.8571
 4343TIP3    H237225   3.903   6.035  18.545  1.9311 -1.4173 -1.7009
 4344TIP3   OH237226   2.358   1.119  17.686  0.3472 -0.2020  0.0775
 4344TIP3    H137227   2.444   1.142  17.719  1.0038 -1.3258 -0.7605
 4344TIP3    H237228   2.334   1.190  17.627  0.8245 -0.0177  0.1078
 4345TIP3   OH237229   6.901   4.949  17.441 -0.5376  0.0498  0.1026
 4345TIP3    H137230   6.835   5.014  17.468 -0.1036  0.7231 -0.4133
 4345TIP3    H237231   6.913   4.894  17.518 -0.6816  0.7892  0.6686
 4346TIP3   OH237232   7.601   1.598  17.709  0.4266  0.0553  0.0135
 4346TIP3    H137233   7.659   1.673  17.699  1.1753 -0.6847 -1.3358
 4346TIP3    H237234   7.644   1.527  17.662 -0.6619 -1.0214  0.5826
 4347TIP3   OH237235   3.966   6.829  19.370  0.0888  0.2625 -0.0159
 4347TIP3    H137236   3.975   6.743  19.412  0.8836  0.5318  0.3741
 4347TIP3    H237237   3.872   6.846  19.373 -0.1065 -0.6828 -0.2862
 4348TIP3   OH237238   4.620   1.365  18.073 -0.1434 -0.2828 -0.5480
 4348TIP3    H137239   4.662   1.345  18.157 -0.4460 -2.2974 -0.8160
 4348TIP3    H237240   4.568   1.287  18.054  0.3185 -0.0769 -2.8451
 4349TIP3   OH237241   7.285   7.638  18.737 -0.0656  1.1608  0.5986
 4349TIP3    H137242   7.262   7.725  18.704  0.7359  1.2176  0.1607
 4349TIP3    H237243   7.201   7.596  18.756 -0.5300  1.4541 -0.6904
 4350TIP3   OH237244   7.528   1.505  17.193 -0.8276 -0.0118  0.0019
 4350TIP3    H137245   7.617   1.498  17.157  0.7249  1.7371  3.0502
 4350TIP3    H237246   7.510   1.599  17.194 -1.1743 -0.0313  2.6127
 4351TIP3   OH237247   4.170   7.457  18.471  0.0256 -0.2759 -0.5993
 4351TIP3    H137248   4.177   7.374  18.518 -1.5938 -0.6099 -0.8991
 4351TIP3    H237249   4.085   7.454  18.428  0.5063  0.9804 -1.7271
 4352TIP3   OH237250   5.610   0.020  18.264 -0.4661  0.5081  0.9185
 4352TIP3    H137251   5.588   0.067  18.183 -1.1859  0.0033  0.8070
 4352TIP3    H237252   5.673  -0.047  18.238 -0.8497  0.2159  0.7305
 4353TIP3   OH237253   0.005   6.820  18.983  0.1211  0.3907 -0.6474
 4353TIP3    H137254  -0.058   6.877  18.938 -0.9504 -1.7493 -1.9949
 4353TIP3    H237255   0.080   6.877  19.001 -0.2461  1.8802 -3.2937
 4354TIP3   OH237256   2.741   3.147  17.816 -0.3356  0.5630  0.0661
 4354TIP3    H137257   2.683   3.173  17.887 -1.5135  1.0918 -1.0598
 4354TIP3    H237258   2.700   3.069  17.778 -0.0403  0.6253 -0.3968
 4355TIP3   OH237259   0.462   4.534  16.404 -0.3236 -0.4994  0.1022
 4355TIP3    H137260   0.436   4.464  16.345 -0.5023 -1.3586  1.1626
 4355TIP3    H237261   0.529   4.582  16.357 -1.1777 -0.5334 -1.1973
 4356TIP3   OH237262   6.123   0.004  17.397 -0.0205 -0.4152  0.0060
 4356TIP3    H137263   6.154   0.094  17.414  0.6219 -0.9030  1.7022
 4356TIP3    H237264   6.044   0.015  17.345  0.8246  1.0745 -1.0393
 4357TIP3   OH237265   0.521   2.132  17.622 -0.2359 -0.0798  0.0094
 4357TIP3    H137266   0.431   2.103  17.632 -0.1508 -0.5753 -0.5995
 4357TIP3    H237267   0.558   2.127  17.710 -0.7495 -0.0498  0.2263
 4358TIP3   OH237268   4.358   0.573  18.451  0.0471 -0.2111  0.2747
 4358TIP3    H137269   4.440   0.557  18.499  1.3399 -1.6532 -2.2474
 4358TIP3    H237270   4.347   0.497  18.395 -1.0047  1.6303 -2.2092
 4359TIP3   OH237271   4.572   1.075  17.529 -0.1260 -0.1064  0.2562
 4359TIP3    H137272   4.488   1.120  17.521 -1.1759 -2.3171 -2.8146
 4359TIP3    H237273   4.558   1.011  17.599 -1.7524 -1.7143 -1.4283
 4360TIP3   OH237274   0.886   4.953  18.662  0.5613  0.0318  0.1609
 4360TIP3    H137275   0.879   5.046  18.683 -1.0692 -0.3320  1.3652
 4360TIP3    H237276   0.942   4.918  18.732  1.6215  0.1580 -0.5891
 4361TIP3   OH237277   6.866   5.347  17.496 -0.2576 -0.4478  0.2356
 4361TIP3    H137278   6.958   5.338  17.471 -0.0899 -0.8846  0.9890
 4361TIP3    H237279   6.860   5.433  17.536 -0.0265 -0.6850  0.7920
 4362TIP3   OH237280   3.351   6.953  17.329 -0.6850 -0.2025  0.2032
 4362TIP3    H137281   3.379   6.969  17.239 -0.2491  0.8858  0.5205
 4362TIP3    H237282   3.264   6.993  17.335 -0.2304  0.7553  0.5755
 4363TIP3   OH237283   1.367   0.470  16.646  0.0084 -0.1415  0.0615
 4363TIP3    H137284   1.301   0.400  16.643  2.3901 -2.5622 -0.1658
 4363TIP3    H237285   1.400   0.475  16.556  2.8107 -1.8904  0.8739
 4364TIP3   OH237286   6.482   6.100  18.596 -0.2378  0.3236 -0.0545
 4364TIP3    H137287   6.405   6.045  18.579  0.1539  0.2907 -1.9506
 4364TIP3    H237288   6.553   6.037  18.613 -0.2060  0.2903 -0.3041
 4365TIP3   OH237289   5.067   1.662  18.282 -0.4913  0.1777  0.1251
 4365TIP3    H137290   5.127   1.642  18.354  1.1050 -0.8247 -1.4234
 4365TIP3    H237291   5.117   1.720  18.224 -0.9925 -0.6703 -1.1954
 4366TIP3   OH237292   0.245   4.717  16.825  0.3033 -0.0982 -0.4628
 4366TIP3    H137293   0.332   4.724  16.785 -0.2718 -0.5113 -1.8621
 4366TIP3    H237294   0.228   4.804  16.862  1.1021  0.1357 -0.6409
 4367TIP3   OH237295   4.572   2.787  19.220  0.1292  0.1052 -0.4006
 4367TIP3    H137296   4.653   2.829  19.248 -0.1980  0.9821 -0.7274
 4367TIP3    H237297   4.518   2.782  19.300  1.1853 -2.2319  0.2745
 4368TIP3   OH237298   3.834   5.278  19.238  0.0250 -0.2998  0.5171
 4368TIP3    H137299   3.808   5.211  19.301  1.1593 -0.2601  1.0573
 4368TIP3    H237300   3.869   5.229  19.164 -1.6297 -0.3567 -0.2622
 4369TIP3   OH237301   7.346   5.125  19.479  0.2780  0.0494  0.6687
 4369TIP3    H137302   7.429   5.134  19.432  0.4808 -2.4310  0.4474
 4369TIP3    H237303   7.371   5.124  19.572  0.3786  0.2310  0.6447
 4370TIP3   OH237304   1.338   2.340  16.872  0.2472 -0.1359 -0.3478
 4370TIP3    H137305   1.270   2.309  16.811 -0.9352 -0.5113  1.0936
 4370TIP3    H237306   1.399   2.267  16.878  0.1875 -0.2279 -0.8352
 4371TIP3   OH237307   6.841   5.857  17.104  0.1450 -0.6465  0.3197
 4371TIP3    H137308   6.865   5.863  17.196 -0.2427 -4.3164  0.8220
 4371TIP3    H237309   6.920   5.825  17.060  0.3679  1.1849 -0.7338
 4372TIP3   OH237310   2.361   3.847  17.519  0.6886 -0.0871  0.1397
 4372TIP3    H137311   2.311   3.835  17.599  0.0319 -1.1152 -0.4165
 4372TIP3    H237312   2.452   3.856  17.549  0.3115  0.7920  1.0741
 4373TIP3   OH237313   5.527   0.971  18.589 -0.4404  0.0021  0.2192
 4373TIP3    H137314   5.620   0.962  18.570 -0.2663  1.9613 -0.1326
 4373TIP3    H237315   5.523   1.038  18.658 -1.5237 -1.2169  1.4069
 4374TIP3   OH237316   1.113   5.502  18.681  0.2643 -0.0218  0.5375
 4374TIP3    H137317   1.057   5.463  18.748  0.5407 -0.1660  0.6881
 4374TIP3    H237318   1.074   5.587  18.663 -0.6084 -0.5474 -0.1219
 4375TIP3   OH237319   6.084   6.285  16.989  0.0172 -0.0200  0.0645
 4375TIP3    H137320   6.011   6.338  16.955 -0.0557 -0.2367 -0.1235
 4375TIP3    H237321   6.081   6.205  16.936 -0.4500 -0.6126  0.9543
 4376TIP3   OH237322   3.295   1.006  18.433  0.0167 -0.2475  0.0383
 4376TIP3    H137323   3.243   0.972  18.505 -1.0511 -1.9832 -1.4463
 4376TIP3    H237324   3.264   0.957  18.356 -0.1808  2.7443 -1.9620
 4377TIP3   OH237325   3.307   2.241  18.150  0.4870  0.6260  0.2567
 4377TIP3    H137326   3.342   2.188  18.078 -0.8393  1.8440 -1.3689
 4377TIP3    H237327   3.220   2.204  18.166  0.6294  0.6030  0.9879
 4378TIP3   OH237328   5.575   0.421  17.953 -0.1470  0.0550 -0.5546
 4378TIP3    H137329   5.625   0.490  17.909 -1.6772  0.6653 -1.3850
 4378TIP3    H237330   5.511   0.468  18.007  0.7134 -0.7041  1.2103
 4379TIP3   OH237331   6.484   3.030  17.021  0.0938 -0.2417  0.3312
 4379TIP3    H137332   6.457   3.087  16.949  1.5989 -0.5210 -0.5042
 4379TIP3    H237333   6.533   3.088  17.080  1.1640 -0.5303 -0.2479
 4380TIP3   OH237334   0.076   0.404  17.097  0.7848 -0.0128  0.9485
 4380TIP3    H137335   0.022   0.439  17.026 -0.2771  0.2684  1.8581
 4380TIP3    H237336   0.075   0.309  17.084  2.5788  0.1486 -0.7660
 4381TIP3   OH237337   0.985   3.689  17.410 -0.0492 -0.1272  0.2512
 4381TIP3    H137338   0.922   3.736  17.464  0.2317  2.5309 -1.5110
 4381TIP3    H237339   1.069   3.703  17.453  0.0127  0.9726 -0.1885
 4382TIP3   OH237340   6.981   1.440  17.799 -0.3556  0.6207 -0.3706
 4382TIP3    H137341   6.906   1.428  17.741  0.7895 -0.1197 -1.7879
 4382TIP3    H237342   7.000   1.533  17.795 -2.2967  1.1769  1.5195
 4383TIP3   OH237343   6.595   0.888  18.768 -0.0161  0.0418 -0.2322
 4383TIP3    H137344   6.544   0.966  18.793  0.0341  0.2745 -0.8452
 4383TIP3    H237345   6.560   0.863  18.683 -0.1239 -0.6974  0.0278
 4384TIP3   OH237346   6.809   6.189  17.497 -0.2283 -0.2228  0.3119
 4384TIP3    H137347   6.789   6.104  17.536 -0.8947 -0.1534  0.1338
 4384TIP3    H237348   6.770   6.185  17.409 -2.0037  0.9705  0.9986
 4385TIP3   OH237349   4.952   0.903  17.685  0.1955 -0.4887 -0.9628
 4385TIP3    H137350   5.044   0.921  17.702 -0.2534  0.6239  0.4596
 4385TIP3    H237351   4.924   0.974  17.626 -0.1350  0.1278 -0.0796
 4386TIP3   OH237352   4.953   4.669  17.761 -0.4851 -0.2557  0.0985
 4386TIP3    H137353   4.980   4.613  17.835 -0.4931 -1.5619 -0.8420
 4386TIP3    H237354   4.922   4.749  17.802  1.9271  0.1108  1.4071
 4387TIP3   OH237355   3.409   2.441  18.583 -0.3036  0.3546 -0.1243
 4387TIP3    H137356   3.494   2.431  18.625 -0.9049  0.5276  1.1918
 4387TIP3    H237357   3.419   2.399  18.497  0.3453 -2.0025  1.0241
 4388TIP3   OH237358   2.379   0.125  17.686 -0.3127  0.5978 -0.0183
 4388TIP3    H137359   2.326   0.204  17.681  0.0182  0.7468 -1.7555
 4388TIP3    H237360   2.340   0.065  17.623 -0.0833 -0.3447  0.6984
 4389TIP3   OH237361   3.803   4.624  18.163 -0.3766  0.3091 -0.7217
 4389TIP3    H137362   3.882   4.678  18.159 -0.2980  0.2298 -0.2712
 4389TIP3    H237363   3.833   4.535  18.144 -0.0917  0.0212  0.9271
 4390TIP3   OH237364   5.435   1.525  17.856 -0.4484  0.0485  0.0579
 4390TIP3    H137365   5.462   1.609  17.892 -0.1588 -0.9829  2.4351
 4390TIP3    H237366   5.510   1.467  17.869 -0.2436 -0.3814 -2.5130
 4391TIP3   OH237367   3.141   2.964  18.424 -0.3405 -0.1353 -0.2050
 4391TIP3    H137368   3.210   2.953  18.491 -0.7909 -0.5927  0.1964
 4391TIP3    H237369   3.149   2.886  18.370 -0.0545  0.1794 -0.6229
 4392TIP3   OH237370   4.349   3.232  17.422  0.3392  0.0482  0.2709
 4392TIP3    H137371   4.257   3.206  17.431  0.1246  0.2025 -1.3249
 4392TIP3    H237372   4.346   3.327  17.410  0.9874  0.6905  3.9663
 4393TIP3   OH237373   1.775   7.356  17.174 -0.0587  0.2168  0.0961
 4393TIP3    H137374   1.850   7.352  17.114 -0.3088  1.1639 -0.3034
 4393TIP3    H237375   1.722   7.281  17.151 -0.6828  1.1295 -1.6221
 4394TIP3   OH237376   0.929   4.516  17.375  0.0270  0.1374  0.3157
 4394TIP3    H137377   0.871   4.486  17.305  1.9195 -0.2274 -1.1859
 4394TIP3    H237378   0.902   4.606  17.393 -0.5091  0.2268 -0.8932
 4395TIP3   OH237379   6.072   2.652  16.786 -0.6200 -0.0723  0.4287
 4395TIP3    H137380   6.035   2.568  16.812 -0.2114  0.5901  3.5638
 4395TIP3    H237381   5.996   2.710  16.776 -0.7763 -0.1895  0.9035
 4396TIP3   OH237382   6.542   7.568  19.107 -0.2611 -0.5018  0.0257
 4396TIP3    H137383   6.539   7.632  19.036 -1.0728  0.7876  1.1801
 4396TIP3    H237384   6.482   7.499  19.079  0.2649 -0.5557 -1.0211
 4397TIP3   OH237385   0.468   1.070  17.066  0.4105  0.1243 -0.1525
 4397TIP3    H137386   0.472   0.979  17.038 -1.6046 -0.1963  0.4084
 4397TIP3    H237387   0.429   1.116  16.991  1.2545  0.5014 -0.3658
 4398TIP3   OH237388   0.803   0.185  19.295 -0.5093  0.6774 -0.0594
 4398TIP3    H137389   0.788   0.252  19.228 -0.4385  0.6190 -0.1349
 4398TIP3    H237390   0.772   0.225  19.376 -1.1265  0.5315 -0.2235
 4399TIP3   OH237391   7.404   6.537  18.689  0.3248 -0.5056 -0.0277
 4399TIP3    H137392   7.378   6.485  18.614  0.7258  0.1344 -0.6190
 4399TIP3    H237393   7.498   6.521  18.698  0.3109 -0.4487  0.2298
 4400TIP3   OH237394   4.706   0.909  19.157  0.1373  0.2230 -0.0214
 4400TIP3    H137395   4.801   0.922  19.156  0.2382 -0.2625  1.3161
 4400TIP3    H237396   4.682   0.899  19.065  1.2021  1.5478 -0.4665
 4401TIP3   OH237397   2.409   5.665  19.171 -0.0889 -0.3783 -0.6869
 4401TIP3    H137398   2.342   5.730  19.193 -1.0791 -1.0581 -1.6112
 4401TIP3    H237399   2.481   5.716  19.134 -0.8811  0.2037 -1.4722
 4402TIP3   OH237400   1.028   2.644  18.192  0.7670  0.1431 -0.9956
 4402TIP3    H137401   1.065   2.714  18.138 -0.4760  1.9255  0.3804
 4402TIP3    H237402   0.996   2.688  18.270 -0.0769 -1.9850 -0.0765
 4403TIP3   OH237403   5.669   5.633  18.425 -0.3357  0.7183 -0.7988
 4403TIP3    H137404   5.753   5.655  18.386  0.4054  0.8656  0.8239
 4403TIP3    H237405   5.659   5.539  18.409  1.2879  0.1739  1.0292
 4404TIP3   OH237406   1.226   5.212  17.046  0.0603 -0.4375  0.1835
 4404TIP3    H137407   1.253   5.226  17.137  0.9822  1.8459 -0.3880
 4404TIP3    H237408   1.145   5.162  17.053 -0.3773  0.4464  2.3005
 4405TIP3   OH237409   3.977   6.927  17.633  0.0142 -0.8114 -0.3436
 4405TIP3    H137410   3.971   6.841  17.676  1.5946 -0.6816  0.1902
 4405TIP3    H237411   3.893   6.969  17.654 -0.5615 -2.0053 -0.1486
 4406TIP3   OH237412   7.094   4.598  17.962 -0.3941  0.0714  0.5603
 4406TIP3    H137413   7.078   4.648  18.042  0.6082  0.4636  0.5331
 4406TIP3    H237414   7.180   4.628  17.932 -0.6535 -0.2347 -0.5402
 4407TIP3   OH237415   1.245   2.240  18.844  0.1402  0.4034 -0.2672
 4407TIP3    H137416   1.311   2.171  18.834 -1.2594 -1.2516  1.1346
 4407TIP3    H237417   1.184   2.225  18.772 -1.0700 -0.9778  0.9801
 4408TIP3   OH237418   0.724   2.905  16.787  0.3420 -0.1443 -0.2760
 4408TIP3    H137419   0.794   2.935  16.730 -1.2892  0.9930 -1.8030
 4408TIP3    H237420   0.694   2.823  16.748  1.4771 -1.1843  0.9815
 4409TIP3   OH237421   5.630   1.162  18.366 -0.3225 -0.1226  0.1171
 4409TIP3    H137422   5.621   1.171  18.461 -0.6097  2.5475 -0.0932
 4409TIP3    H237423   5.566   1.223  18.330 -0.2689 -1.1288 -1.8384
 4410TIP3   OH237424   5.864   7.112  19.243  0.3270 -0.3919  1.3271
 4410TIP3    H137425   5.834   7.132  19.331  0.3020 -3.6178  2.1648
 4410TIP3    H237426   5.787   7.128  19.187 -0.2939 -0.3185  2.1915
 4411TIP3   OH237427   2.556   4.114  16.977  0.8555  0.0297 -0.1605
 4411TIP3    H137428   2.495   4.066  17.034 -0.9805  2.0484 -0.3100
 4411TIP3    H237429   2.608   4.046  16.935 -0.4820 -1.7260  0.8889
 4412TIP3   OH237430   7.428   2.225  17.950  0.0622  0.5316  0.3026
 4412TIP3    H137431   7.397   2.209  17.861 -0.2286  1.3253  0.2496
 4412TIP3    H237432   7.366   2.289  17.986  0.5138  0.6561  0.8753
 4413TIP3   OH237433   6.856   4.832  17.202  0.0988  0.4439  0.1586
 4413TIP3    H137434   6.945   4.830  17.167  0.5381  1.1628  1.1836
 4413TIP3    H237435   6.866   4.863  17.292 -1.2557  1.2705  0.0584
 4414TIP3   OH237436   4.850   6.480  18.856 -0.2861 -0.6733 -0.1952
 4414TIP3    H137437   4.758   6.482  18.883 -0.5135 -1.1100 -0.9204
 4414TIP3    H237438   4.852   6.423  18.779  0.4888 -0.1208 -0.6017
 4415TIP3   OH237439   3.955   6.656  18.942  0.1197  0.0426 -0.2310
 4415TIP3    H137440   4.026   6.652  18.878  0.6826 -0.8723  0.4245
 4415TIP3    H237441   3.962   6.744  18.979  0.2528  0.3236 -0.9076
 4416TIP3   OH237442   6.933   4.744  17.664 -0.0286  0.1798  0.0415
 4416TIP3    H137443   6.925   4.805  17.738 -3.3819  0.1409 -0.1496
 4416TIP3    H237444   6.899   4.661  17.697  2.3259 -1.0456 -0.4063
 4417TIP3   OH237445   7.008   6.412  19.375 -0.4822  0.0965 -0.2702
 4417TIP3    H137446   7.081   6.469  19.400 -0.3216 -0.2693  0.1094
 4417TIP3    H237447   6.936   6.439  19.432  0.6171 -2.5086  2.6623
 4418TIP3   OH237448   4.949   2.783  18.355 -0.1152 -0.2829  0.4244
 4418TIP3    H137449   5.006   2.801  18.280 -0.3769 -2.7181 -0.4388
 4418TIP3    H237450   4.890   2.715  18.325 -0.5489 -1.0054  2.7117
 4419TIP3   OH237451   7.062   4.492  16.503  0.1363 -0.2801  0.0471
 4419TIP3    H137452   7.054   4.530  16.416  0.0711  1.4259  0.7545
 4419TIP3    H237453   6.972   4.485  16.534  0.1638 -0.8160  0.0071
 4420TIP3   OH237454   5.691   6.968  17.721  0.2408 -0.2336  0.7193
 4420TIP3    H137455   5.617   6.954  17.780 -0.9586 -3.5334 -1.2717
 4420TIP3    H237456   5.751   6.895  17.741  1.0399  0.1086 -0.3510
 4421TIP3   OH237457   6.747   2.653  16.760 -0.2212 -0.2275 -0.5118
 4421TIP3    H137458   6.704   2.725  16.806  1.7475  1.2138 -0.7944
 4421TIP3    H237459   6.801   2.611  16.827 -0.8118 -1.0059 -0.5136
 4422TIP3   OH237460   1.316   1.403  18.163  0.0092 -0.0403 -0.0322
 4422TIP3    H137461   1.395   1.441  18.126  0.3880 -0.8468 -0.0874
 4422TIP3    H237462   1.326   1.412  18.258 -0.0583  0.2920 -0.0576
 4423TIP3   OH237463   4.691   1.131  18.787 -0.0629  0.5140 -0.6049
 4423TIP3    H137464   4.681   1.174  18.702 -1.1574 -0.7113 -1.1378
 4423TIP3    H237465   4.696   1.038  18.766  2.2900  0.3356  0.5106
 4424TIP3   OH237466   0.538   2.660  18.987 -0.1020 -0.2768 -0.1909
 4424TIP3    H137467   0.494   2.659  18.902 -0.4964 -0.8391  0.0166
 4424TIP3    H237468   0.538   2.752  19.012 -1.0950 -0.2539 -0.2279
 4425TIP3   OH237469   6.577   2.216  18.471  0.0093 -0.2821  0.6940
 4425TIP3    H137470   6.586   2.275  18.546 -0.1096 -0.0633  0.5330
 4425TIP3    H237471   6.653   2.157  18.479 -0.3512 -0.6803  1.3617
 4426TIP3   OH237472   1.507   1.038  17.449 -0.4192 -0.2410  0.4610
 4426TIP3    H137473   1.487   1.061  17.540 -0.3245 -1.7264  0.8834
 4426TIP3    H237474   1.424   1.013  17.411 -0.0587 -2.5949  1.0707
 4427TIP3   OH237475   3.592   1.468  18.379  0.5796  0.1117  0.5551
 4427TIP3    H137476   3.548   1.389  18.410  0.3014  0.6181  1.4822
 4427TIP3    H237477   3.628   1.508  18.457  1.0303  0.7190  0.0460
 4428TIP3   OH237478   4.309   0.307  19.109 -0.2742  0.0805 -0.7484
 4428TIP3    H137479   4.355   0.223  19.108 -1.1398 -0.4727  1.0839
 4428TIP3    H237480   4.360   0.362  19.169 -0.2541  0.5466 -1.1856
 4429TIP3   OH237481   7.439   1.432  18.918 -0.2621  0.0478  0.0753
 4429TIP3    H137482   7.515   1.472  18.877  0.9350 -0.9551  1.2123
 4429TIP3    H237483   7.438   1.342  18.885 -0.0036 -0.4076  1.2443
 4430TIP3   OH237484   4.182   1.864  18.368 -0.2008  0.0956 -0.2907
 4430TIP3    H137485   4.234   1.907  18.300 -1.0037  0.0490 -0.9509
 4430TIP3    H237486   4.226   1.780  18.383  0.5701  0.5383  0.0002
 4431TIP3   OH237487   0.863   4.859  16.819  0.0571 -0.2850  0.1839
 4431TIP3    H137488   0.864   4.786  16.758 -1.2118 -0.6435  0.5610
 4431TIP3    H237489   0.800   4.833  16.887 -1.1043  1.5205 -0.1462
 4432TIP3   OH237490   7.430   5.268  17.429 -0.2411 -0.1247 -0.1239
 4432TIP3    H137491   7.448   5.201  17.495 -2.1093  0.4614  1.0264
 4432TIP3    H237492   7.504   5.328  17.435 -0.5843  0.1558  1.7704
 4433TIP3   OH237493   2.877   3.640  19.326  0.0658  0.1466  0.8347
 4433TIP3    H137494   2.892   3.640  19.421 -0.1780 -1.8298  0.9201
 4433TIP3    H237495   2.803   3.580  19.314  1.2878 -1.1140 -0.7435
 4434TIP3   OH237496   5.538   1.948  18.422  0.2778  0.1728  0.2068
 4434TIP3    H137497   5.515   1.929  18.332 -2.0087  0.6632  0.6312
 4434TIP3    H237498   5.616   1.895  18.439  1.5570  1.0673 -2.4151
 4435TIP3   OH237499   3.793   3.146  17.727 -0.2363  0.1015 -0.1853
 4435TIP3    H137500   3.733   3.183  17.791  0.8505 -0.2649  1.0934
 4435TIP3    H237501   3.844   3.081  17.776  0.5457 -0.2857 -1.4498
 4436TIP3   OH237502   2.337   7.300  18.445 -0.3076  0.0780 -0.2934
 4436TIP3    H137503   2.252   7.305  18.490  0.4656  1.4672  1.1112
 4436TIP3    H237504   2.362   7.208  18.452 -1.3116 -0.1874  0.0358
 4437TIP3   OH237505   1.653   1.370  18.289  0.2556 -0.3377  0.1790
 4437TIP3    H137506   1.735   1.337  18.325 -0.4841 -1.1304  1.1949
 4437TIP3    H237507   1.600   1.292  18.272 -0.5462  0.1835  0.2017
 4438TIP3   OH237508   0.909   3.408  17.101  0.5728 -0.6672 -0.4286
 4438TIP3    H137509   0.901   3.323  17.058  0.9643 -0.5161 -0.7979
 4438TIP3    H237510   0.830   3.455  17.077 -0.9879 -1.8600  1.8995
 4439TIP3   OH237511   4.976   1.707  17.233 -0.0416 -0.4200 -0.0210
 4439TIP3    H137512   4.933   1.627  17.201 -0.2031  0.0009 -0.8907
 4439TIP3    H237513   5.032   1.735  17.160 -1.6389  1.4522 -0.6132
 4440TIP3   OH237514   3.080   1.910  17.959 -0.1979 -0.7021 -0.3873
 4440TIP3    H137515   3.021   1.878  18.027 -1.1843 -0.4174 -1.0776
 4440TIP3    H237516   3.027   1.973  17.909  1.5072  1.6496  0.6059
 4441TIP3   OH237517   0.084   1.410  17.598  0.5343 -0.4257  0.0524
 4441TIP3    H137518   0.143   1.376  17.665  0.6644  1.1524  0.7853
 4441TIP3    H237519   0.142   1.434  17.525  0.4414 -1.7162 -0.4670
 4442TIP3   OH237520   4.113   6.122  16.925 -0.7542  0.4178  0.3493
 4442TIP3    H137521   4.191   6.066  16.929  0.1002  1.5963  0.6841
 4442TIP3    H237522   4.049   6.071  16.875  1.0855  0.4402 -2.2141
 4443TIP3   OH237523   3.655   6.322  18.949  0.0390  0.6641  0.0688
 4443TIP3    H137524   3.646   6.292  18.858 -0.2463  1.0544 -0.0343
 4443TIP3    H237525   3.709   6.255  18.991 -0.8563 -0.1696 -0.0721
 4444TIP3   OH237526   4.626   1.860  19.341 -0.3410  0.4452  0.4151
 4444TIP3    H137527   4.695   1.900  19.289 -1.2145  1.4018 -0.0526
 4444TIP3    H237528   4.577   1.934  19.377 -1.7738 -0.1813 -0.1598
 4445TIP3   OH237529   1.009   6.808  17.880 -0.7460  0.2528 -0.3789
 4445TIP3    H137530   1.085   6.831  17.825 -1.1270 -0.7370 -1.3525
 4445TIP3    H237531   1.004   6.879  17.943  1.3366  0.0812  0.0666
 4446TIP3   OH237532   7.213   2.773  18.043 -0.3525  0.1168 -0.5040
 4446TIP3    H137533   7.135   2.828  18.040  0.6995  1.6135 -1.8444
 4446TIP3    H237534   7.201   2.720  18.122 -3.7159 -1.2899 -1.7522
 4447TIP3   OH237535   6.989   4.728  16.848 -0.5316 -0.8437  0.1192
 4447TIP3    H137536   7.070   4.762  16.809  0.2665 -0.2068  2.2244
 4447TIP3    H237537   7.004   4.634  16.857 -0.4698 -0.8955 -0.4752
 4448TIP3   OH237538   6.638   1.994  18.118 -0.1599 -0.2950  0.4615
 4448TIP3    H137539   6.722   1.958  18.146 -0.3458 -0.1084  1.2732
 4448TIP3    H237540   6.573   1.929  18.145 -0.2999 -0.3499  0.0081
 4449TIP3   OH237541   6.677   4.036  17.597  0.4379 -0.0571 -0.2544
 4449TIP3    H137542   6.616   3.966  17.619 -0.1553  0.8434  1.0856
 4449TIP3    H237543   6.752   4.022  17.655  0.8712 -0.3042 -0.8681
 4450TIP3   OH237544   3.762   0.743  17.847 -0.4325  0.0290 -0.6265
 4450TIP3    H137545   3.853   0.760  17.819 -0.1247 -3.2435 -2.0630
 4450TIP3    H237546   3.720   0.829  17.843  2.0195  1.2923 -2.2235
 4451TIP3   OH237547   6.228   4.668  16.937 -0.1204  0.1523 -0.5954
 4451TIP3    H137548   6.301   4.638  16.883  0.0579  0.5459 -0.5745
 4451TIP3    H237549   6.237   4.764  16.940  0.2165  0.0955  0.6251
 4452TIP3   OH237550   4.789   4.930  17.480 -0.5342  0.2171 -0.4388
 4452TIP3    H137551   4.738   4.975  17.547  1.0971  0.2848  0.8288
 4452TIP3    H237552   4.770   4.837  17.493  1.3211  0.0333  1.5941
 4453TIP3   OH237553   0.672   4.567  18.686  0.1343  0.0524  0.1629
 4453TIP3    H137554   0.735   4.634  18.661 -0.7603  0.6769 -0.4547
 4453TIP3    H237555   0.694   4.546  18.777 -0.3474  2.0963  0.8039
 4454TIP3   OH237556   6.925   4.309  17.701  0.0357  0.0139  0.6141
 4454TIP3    H137557   6.851   4.310  17.762  1.1600  0.3042  2.0470
 4454TIP3    H237558   6.896   4.360  17.626 -1.6163 -0.8593  0.6341
 4455TIP3   OH237559   4.332   1.013  17.228  0.1233  0.0835  0.2069
 4455TIP3    H137560   4.302   0.931  17.267  0.0724 -0.5304 -1.0910
 4455TIP3    H237561   4.252   1.057  17.199  0.1089  0.8336  1.3143
 4456TIP3   OH237562   7.431   4.393  17.455  1.5427 -0.3495 -0.1260
 4456TIP3    H137563   7.386   4.339  17.520 -2.4460  1.7770 -0.7743
 4456TIP3    H237564   7.443   4.336  17.379  0.6980 -1.2493  0.3968
 4457TIP3   OH237565   3.702   1.618  18.601  0.3004  0.0380  0.2624
 4457TIP3    H137566   3.709   1.644  18.693 -1.3680  0.7224  0.2293
 4457TIP3    H237567   3.789   1.637  18.564  0.7556  0.4817  1.5092
 4458TIP3   OH237568   4.437   7.139  16.712 -0.3020  0.0764  0.1058
 4458TIP3    H137569   4.350   7.120  16.747  0.2992 -2.1275  0.5784
 4458TIP3    H237570   4.431   7.116  16.619 -0.3572  0.4656  0.0099
 4459TIP3   OH237571   7.112   4.790  17.172 -1.0961  0.2908  0.3820
 4459TIP3    H137572   7.091   4.727  17.241 -1.7180  0.9830  0.8447
 4459TIP3    H237573   7.200   4.767  17.143 -1.0577 -0.3652  1.0058
 4460TIP3   OH237574   7.352   4.848  17.721 -0.2328 -0.0433  0.6102
 4460TIP3    H137575   7.331   4.850  17.628  1.1357  1.3371  0.2953
 4460TIP3    H237576   7.447   4.831  17.724 -0.4555 -1.2421  1.8002
 4461TIP3   OH237577   7.598   6.700  17.964  0.3697  0.0540 -0.2091
 4461TIP3    H137578   7.642   6.618  17.943  1.0839 -0.0818  1.6428
 4461TIP3    H237579   7.505   6.682  17.949  0.4915 -1.1832  0.3854
 4462TIP3   OH237580   3.461   3.519  18.542 -0.2137  0.1055 -0.4238
 4462TIP3    H137581   3.450   3.446  18.603  3.8337 -2.0545 -1.8717
 4462TIP3    H237582   3.537   3.567  18.576  0.0470  0.8301 -1.9624
 4463TIP3   OH237583   5.916   7.042  17.097 -0.1963  0.5668 -0.3284
 4463TIP3    H137584   5.862   6.973  17.059  0.4777  1.3319 -2.8431
 4463TIP3    H237585   5.972   7.072  17.025  2.0076  1.3548  1.5629
 4464TIP3   OH237586   6.617   2.998  18.455  0.0947  0.1852  0.0856
 4464TIP3    H137587   6.564   2.955  18.522  1.0684  1.7964  1.9944
 4464TIP3    H237588   6.554   3.023  18.387 -1.3685  0.6760  1.5513
 4465TIP3   OH237589   1.067   3.176  16.763  0.3619 -0.0379  0.4678
 4465TIP3    H137590   1.083   3.104  16.701  0.8939 -0.1344  0.7113
 4465TIP3    H237591   1.150   3.186  16.810  0.8069  1.7224 -0.5818
 4466TIP3   OH237592   0.277   3.179  16.644 -0.2631  0.4126  0.0902
 4466TIP3    H137593   0.298   3.251  16.584  0.6751  0.7245  0.7536
 4466TIP3    H237594   0.362   3.154  16.682 -0.8611  0.5295  1.5993
 4467TIP3   OH237595   1.273   1.382  19.036  0.0435  0.3868 -0.0562
 4467TIP3    H137596   1.187   1.421  19.025 -0.2102  0.1519  1.0233
 4467TIP3    H237597   1.263   1.292  19.005  0.2309  0.6932 -1.0689
 4468TIP3   OH237598   3.649   5.217  18.657  0.2564  0.1789 -0.6628
 4468TIP3    H137599   3.605   5.155  18.600  0.1099 -0.6033  0.2740
 4468TIP3    H237600   3.737   5.183  18.668 -0.6376 -1.6086  2.2220
 4469TIP3   OH237601   6.049   7.422  17.471  0.5618 -0.2123  0.1105
 4469TIP3    H137602   6.102   7.490  17.429 -0.4131  0.2068 -0.4692
 4469TIP3    H237603   6.014   7.371  17.397 -0.6463  0.1307  0.4304
 4470TIP3   OH237604   1.844   1.211  16.524 -0.0424 -0.0654  1.1375
 4470TIP3    H137605   1.825   1.211  16.618  1.0785  1.2833  1.3847
 4470TIP3    H237606   1.769   1.256  16.484 -1.8863 -2.9501  1.0037
 4471TIP3   OH237607   2.141   4.473  18.192  0.1991  0.6237  0.0077
 4471TIP3    H137608   2.123   4.380  18.206  1.1559  0.6912  2.0231
 4471TIP3    H237609   2.210   4.475  18.126 -0.0826 -0.0649 -0.3173
 4472TIP3   OH237610   5.918   1.696  17.121  0.1840 -0.1205  0.3091
 4472TIP3    H137611   5.927   1.604  17.097 -0.6271 -0.2634  0.4951
 4472TIP3    H237612   5.882   1.737  17.042  2.4254  0.4588 -0.4741
 4473TIP3   OH237613   1.621   5.624  16.659  0.1466 -0.8310 -0.1494
 4473TIP3    H137614   1.633   5.562  16.586 -0.3919 -0.7183 -0.3398
 4473TIP3    H237615   1.559   5.688  16.625 -1.9476 -2.0424  1.1662
 4474TIP3   OH237616   6.684   4.268  17.871  0.3570 -0.7979 -0.1779
 4474TIP3    H137617   6.676   4.173  17.870 -0.4564 -0.7293 -0.9421
 4474TIP3    H237618   6.669   4.292  17.963  0.7724 -1.4148  0.0566
 4475TIP3   OH237619   4.340   2.017  18.219 -0.6609  0.3398 -0.3265
 4475TIP3    H137620   4.407   1.980  18.162  0.0926  1.2991 -0.0735
 4475TIP3    H237621   4.314   2.098  18.177 -2.2390 -0.3725 -0.8188
 4476TIP3   OH237622   3.698   6.449  17.233  0.0921  0.0213 -0.2303
 4476TIP3    H137623   3.732   6.435  17.145  0.6277 -0.1375 -0.0001
 4476TIP3    H237624   3.604   6.463  17.220 -0.0988 -1.5052 -0.6943
 4477TIP3   OH237625   7.665   7.141  18.720  0.9238 -0.2702  0.2202
 4477TIP3    H137626   7.711   7.170  18.799 -0.9835  0.2702  1.1932
 4477TIP3    H237627   7.636   7.052  18.741 -1.1345  0.5140  0.8956
 4478TIP3   OH237628   6.509   0.937  17.661 -0.0591  0.6030  0.2908
 4478TIP3    H137629   6.581   0.982  17.616  0.8576 -0.5415  0.5832
 4478TIP3    H237630   6.550   0.864  17.705 -1.6927 -1.4478 -1.3771
 4479TIP3   OH237631   7.453   7.655  19.354 -0.4286  0.1044  0.7382
 4479TIP3    H137632   7.367   7.620  19.331 -0.3105  0.9691 -1.2842
 4479TIP3    H237633   7.437   7.746  19.379 -0.1448  0.2374  0.4600
 4480TIP3   OH237634   1.107   4.905  19.407 -0.0474  0.2488  0.0579
 4480TIP3    H137635   1.051   4.981  19.392 -1.5357 -0.5483  1.2658
 4480TIP3    H237636   1.192   4.941  19.428 -0.9933  1.6546  1.7254
 4481TIP3   OH237637   4.946   0.318  18.856  0.8528 -0.3333 -1.1121
 4481TIP3    H137638   5.024   0.286  18.902  0.4826  0.5679  0.1898
 4481TIP3    H237639   4.972   0.404  18.822 -0.1322  0.8853  1.0491
 4482TIP3   OH237640   0.411   2.571  18.376  0.2853 -0.6548  0.2452
 4482TIP3    H137641   0.483   2.631  18.398 -1.3954  0.8528  2.0513
 4482TIP3    H237642   0.420   2.498  18.438  0.7922 -0.9476 -0.1686
 4483TIP3   OH237643   0.988   4.192  19.203 -0.4812  0.0915 -0.4627
 4483TIP3    H137644   0.929   4.250  19.250  2.0569  0.7750  2.2344
 4483TIP3    H237645   0.942   4.108  19.199 -2.1218  0.9190  0.2809
 4484TIP3   OH237646   4.948   6.619  16.490 -0.3753  0.1718  0.3246
 4484TIP3    H137647   4.873   6.578  16.447 -0.3234  0.2318  0.1768
 4484TIP3    H237648   4.916   6.705  16.517  0.3056  1.1404 -1.7995
 4485TIP3   OH237649   5.086   4.061  17.875  0.2829  0.0732 -0.2666
 4485TIP3    H137650   5.163   4.023  17.917  0.4657 -0.8310 -1.3646
 4485TIP3    H237651   5.030   3.986  17.856 -0.7027  0.6814  0.1659
 4486TIP3   OH237652   7.574   5.777  17.920 -0.2488 -0.7568 -0.1601
 4486TIP3    H137653   7.604   5.849  17.864  0.2248 -2.7458 -2.6935
 4486TIP3    H237654   7.648   5.758  17.977 -0.4846  0.8887  0.7459
 4487TIP3   OH237655   4.430   7.378  18.378 -0.1280  0.2480 -0.1633
 4487TIP3    H137656   4.362   7.349  18.316  1.4023  0.3999 -2.0019
 4487TIP3    H237657   4.415   7.325  18.456 -0.3048 -2.1686 -1.7244
 4488TIP3   OH237658   2.472   3.370  18.270  0.4987  0.3169  0.6799
 4488TIP3    H137659   2.385   3.330  18.267  0.5131  0.3049  0.2329
 4488TIP3    H237660   2.489   3.387  18.362 -0.1974  0.8006  0.7199
 4489TIP3   OH237661   4.998   0.960  18.925  0.3492  0.2986 -0.1970
 4489TIP3    H137662   4.978   0.976  19.017  0.8627  0.2458 -0.0715
 4489TIP3    H237663   4.938   0.890  18.899  0.3057  0.2065  0.1392
 4490TIP3   OH237664   7.680   2.756  18.335 -0.3073 -0.2651 -0.7261
 4490TIP3    H137665   7.661   2.807  18.257  3.7924 -1.6372 -2.9092
 4490TIP3    H237666   7.722   2.818  18.395 -1.2627  0.2634 -0.5907
 4491TIP3   OH237667   0.327   4.145  18.574  0.3419  0.0855  0.3771
 4491TIP3    H137668   0.317   4.236  18.602  0.2749 -0.0627  0.8434
 4491TIP3    H237669   0.381   4.150  18.495 -0.2213  0.5836  0.0206
 4492TIP3   OH237670   5.996   2.286  18.335 -0.0542  0.1875  0.7313
 4492TIP3    H137671   6.007   2.207  18.283  3.5700  1.1614 -0.2675
 4492TIP3    H237672   5.980   2.254  18.424 -2.6890 -1.5147 -0.2384
 4493TIP3   OH237673   3.114   2.224  16.686  0.3732  0.4352  0.2318
 4493TIP3    H137674   3.177   2.295  16.700  0.5984  0.2457  0.1809
 4493TIP3    H237675   3.039   2.267  16.645  0.7574  0.5380 -0.3788
 4494TIP3   OH237676   0.019   0.760  16.650  0.0796 -0.5755  0.6482
 4494TIP3    H137677   0.061   0.676  16.632 -0.4118 -1.0970  1.7956
 4494TIP3    H237678   0.078   0.804  16.712 -0.0958 -0.4686  0.7429
 4495TIP3   OH237679   7.294   1.956  19.286 -0.4116 -0.2960 -0.0817
 4495TIP3    H137680   7.365   1.900  19.317 -0.9975  0.9718  4.2134
 4495TIP3    H237681   7.223   1.896  19.264  0.4894 -1.3913 -0.0682
 4496TIP3   OH237682   0.333   2.458  18.787 -0.1037 -0.3100 -0.6614
 4496TIP3    H137683   0.278   2.533  18.810  0.7886  0.2523 -0.2854
 4496TIP3    H237684   0.317   2.395  18.858  2.9039  1.5616  1.9631
 4497TIP3   OH237685   5.832   1.931  17.625  0.1945  0.2508 -0.3668
 4497TIP3    H137686   5.781   1.852  17.609  1.4579 -0.8013  0.6063
 4497TIP3    H237687   5.772   1.989  17.673  0.1043 -1.2633  1.4455
 4498TIP3   OH237688   3.297   6.562  18.642 -0.5841  0.4979  0.1847
 4498TIP3    H137689   3.267   6.480  18.681  0.8508  0.2654  0.8714
 4498TIP3    H237690   3.257   6.630  18.696  0.0549  0.2009  1.0577
 4499TIP3   OH237691   0.724   5.820  17.596 -0.7143  0.4000  0.4228
 4499TIP3    H137692   0.720   5.739  17.648 -0.3468 -1.1549 -1.8424
 4499TIP3    H237693   0.753   5.886  17.659  0.5664 -1.5355  2.0326
 4500TIP3   OH237694   0.451   4.933  18.659 -0.1449  0.0635  0.2480
 4500TIP3    H137695   0.499   4.962  18.737 -0.3357  0.2019  0.3162
 4500TIP3    H237696   0.414   4.849  18.684  0.6323 -0.3680 -0.0426
 4501TIP3   OH237697   4.483   0.882  18.051 -0.1092 -0.0492 -0.6448
 4501TIP3    H137698   4.504   0.865  18.143  0.7387 -0.1642 -0.8585
 4501TIP3    H237699   4.474   0.796  18.011  3.8064 -0.1644 -1.6353
 4502TIP3   OH237700   0.398   3.279  17.453  0.5231  0.0653  0.1330
 4502TIP3    H137701   0.493   3.284  17.465  1.1431 -0.3680 -3.3774
 4502TIP3    H237702   0.387   3.219  17.379 -2.5061  0.1419  0.4204
 4503TIP3   OH237703   5.640   0.654  19.219 -0.2111  0.4881 -0.1670
 4503TIP3    H137704   5.650   0.571  19.265 -1.0300 -0.3619 -1.4831
 4503TIP3    H237705   5.625   0.718  19.289 -0.2889 -0.5714  0.8144
 4504TIP3   OH237706   0.890   4.230  17.120 -0.1679 -0.5428  0.1780
 4504TIP3    H137707   0.799   4.219  17.092 -0.0987 -0.9307  0.0980
 4504TIP3    H237708   0.897   4.175  17.198  0.3471 -1.5793 -0.5721
 4505TIP3   OH237709   7.209   5.396  17.931 -0.2581 -0.5598  0.2033
 4505TIP3    H137710   7.209   5.489  17.911 -2.8331 -0.4570  0.3826
 4505TIP3    H237711   7.180   5.354  17.850  1.5530 -1.3311 -0.1039
 4506TIP3   OH237712   5.593   2.291  17.664  0.3282 -0.0138 -0.6237
 4506TIP3    H137713   5.635   2.323  17.584  0.2122  0.8716 -0.3424
 4506TIP3    H237714   5.507   2.332  17.665  1.3339  2.3986  1.3572
 4507TIP3   OH237715   5.790   5.091  16.842 -0.4833 -0.4250 -0.1562
 4507TIP3    H137716   5.831   5.165  16.885 -0.7829 -0.5090  0.2826
 4507TIP3    H237717   5.817   5.015  16.894 -0.1205 -0.6353 -0.6418
 4508TIP3   OH237718   2.724   4.316  19.283  0.0164 -0.1675 -0.4696
 4508TIP3    H137719   2.803   4.346  19.328 -0.6114  0.7126  0.0782
 4508TIP3    H237720   2.756   4.263  19.210  1.1588  1.2024 -1.0041
 4509TIP3   OH237721   1.857   3.004  17.334  0.4552 -0.7176  0.0215
 4509TIP3    H137722   1.855   3.018  17.239 -2.9784 -0.2864  0.0462
 4509TIP3    H237723   1.875   3.090  17.371  1.4210 -0.8158 -0.1820
 4510TIP3   OH237724   6.960   2.596  17.748 -1.1164  0.1529 -0.3592
 4510TIP3    H137725   6.871   2.626  17.765 -1.8629 -0.0639 -3.3220
 4510TIP3    H237726   7.000   2.665  17.695 -0.7185 -1.2183 -1.9371
 4511TIP3   OH237727   6.730   2.640  17.905  0.9911 -0.2541 -0.2731
 4511TIP3    H137728   6.672   2.592  17.846  0.5035  0.7294 -0.6137
 4511TIP3    H237729   6.719   2.595  17.990  0.1488 -0.4276 -0.4592
 4512TIP3   OH237730   6.287   4.547  18.560 -0.0637 -0.2089 -0.1705
 4512TIP3    H137731   6.335   4.544  18.478  0.0893  0.4280 -0.1053
 4512TIP3    H237732   6.273   4.455  18.583  3.7658 -0.6027  1.3607
 4513TIP3   OH237733   6.475   3.175  17.339 -0.1934  0.0034 -0.3190
 4513TIP3    H137734   6.551   3.180  17.282  0.0422  0.6047  0.0336
 4513TIP3    H237735   6.414   3.239  17.303  0.0033  0.4717  0.1523
 4514TIP3   OH237736   7.659   0.997  18.837 -0.5655 -0.0072  0.2921
 4514TIP3    H137737   7.654   1.069  18.900  0.8244 -0.1241  0.5723
 4514TIP3    H237738   7.570   0.963  18.833 -0.6271 -0.3059  2.5696
 4515TIP3   OH237739   2.459   5.312  17.564  0.0378  0.2975 -0.4100
 4515TIP3    H137740   2.506   5.346  17.488 -0.2880 -0.3595 -0.9158
 4515TIP3    H237741   2.491   5.222  17.573 -1.5443 -0.3839 -1.1539
 4516TIP3   OH237742   1.894   4.023  17.826  0.0131  0.2220 -0.1201
 4516TIP3    H137743   1.965   4.001  17.765 -0.9300 -0.7328 -0.9243
 4516TIP3    H237744   1.843   3.942  17.832 -0.8372  0.8053  0.6801
 4517TIP3   OH237745   4.028   0.511  17.228  0.0681  0.3919 -0.4518
 4517TIP3    H137746   4.011   0.498  17.321 -0.0020  1.4986 -0.2909
 4517TIP3    H237747   4.123   0.523  17.222  0.4610 -2.3669 -0.9030
 4518TIP3   OH237748   6.385   4.668  16.590 -0.6274 -0.1752  0.2065
 4518TIP3    H137749   6.421   4.632  16.671  0.1834  1.5139  0.6461
 4518TIP3    H237750   6.314   4.608  16.566  1.0352 -2.3843  0.5075
 4519TIP3   OH237751   7.534   4.625  18.221 -0.6110  0.5057  0.4936
 4519TIP3    H137752   7.546   4.538  18.259  1.2686 -0.1005 -1.2856
 4519TIP3    H237753   7.511   4.681  18.295 -0.7066 -1.2758  1.8739
 4520TIP3   OH237754   4.011   0.340  18.053  0.4947  0.0245  0.3812
 4520TIP3    H137755   4.067   0.268  18.024 -0.5454 -0.3284 -0.8916
 4520TIP3    H237756   4.062   0.418  18.034  1.1485 -0.3339  0.6236
 4521TIP3   OH237757   2.093   0.006  19.124 -0.0772  0.0155  0.3895
 4521TIP3    H137758   2.017  -0.006  19.181 -0.9830  0.3723 -0.7197
 4521TIP3    H237759   2.114   0.099  19.131  0.3721 -0.1042  0.7932
 4522TIP3   OH237760   2.222   3.587  18.537  0.2809 -0.2832 -0.2018
 4522TIP3    H137761   2.193   3.673  18.568  0.5288 -0.3267  0.1611
 4522TIP3    H237762   2.243   3.601  18.444  1.9129  0.4678  0.2398
 4523TIP3   OH237763   2.055   0.322  16.889 -0.2197  0.4087  0.3396
 4523TIP3    H137764   2.056   0.246  16.831 -0.1089  0.1166  0.7267
 4523TIP3    H237765   2.037   0.396  16.830  0.8926  0.2458 -0.2237
 4524TIP3   OH237766   5.537   0.151  18.651 -0.3224  0.4056 -0.6030
 4524TIP3    H137767   5.630   0.148  18.630 -0.4354 -0.1071 -1.0721
 4524TIP3    H237768   5.516   0.060  18.674 -0.7152  0.5108 -0.5494
 4525TIP3   OH237769   5.348   5.674  18.754 -0.2197  0.4632  0.2253
 4525TIP3    H137770   5.408   5.633  18.817  0.8387  1.2195 -0.2516
 4525TIP3    H237771   5.299   5.601  18.716 -0.6090 -0.0513  1.6181
 4526TIP3   OH237772   2.227   0.230  18.808 -0.7817 -0.3400 -0.0620
 4526TIP3    H137773   2.264   0.316  18.826 -1.1532  0.1564 -1.5888
 4526TIP3    H237774   2.132   0.243  18.809 -0.8415 -0.7321 -0.3536
 4527TIP3   OH237775   3.573   3.848  18.079 -0.5554  0.3715  0.6473
 4527TIP3    H137776   3.666   3.832  18.093 -0.8095 -1.3234  0.5856
 4527TIP3    H237777   3.568   3.939  18.050  1.2302  0.0550 -0.8033
 4528TIP3   OH237778   1.014   3.213  17.929  0.5759 -0.0952  0.1501
 4528TIP3    H137779   0.921   3.192  17.923 -0.0987  1.6068  2.8995
 4528TIP3    H237780   1.019   3.307  17.912  1.7867 -0.1444  0.1261
 4529TIP3   OH237781   2.993   4.237  18.143  0.1223 -0.7046  0.0208
 4529TIP3    H137782   3.004   4.223  18.237 -0.2869  0.2937  0.2188
 4529TIP3    H237783   2.929   4.307  18.136  0.8881 -0.0763 -0.9864
 4530TIP3   OH237784   0.366   0.235  17.715  0.6311  0.3240 -0.3404
 4530TIP3    H137785   0.289   0.235  17.659  0.7145 -0.1101 -0.4572
 4530TIP3    H237786   0.377   0.327  17.742 -0.2236  0.3084  0.0871
 4531TIP3   OH237787   6.684   5.791  18.036 -0.0994 -0.0249 -0.0338
 4531TIP3    H137788   6.712   5.726  18.100  2.2541 -0.3178 -1.2529
 4531TIP3    H237789   6.599   5.759  18.005  0.6708 -2.2010 -0.1022
 4532TIP3   OH237790   5.547   1.514  18.566  0.2538 -0.2422  0.4237
 4532TIP3    H137791   5.532   1.607  18.548  1.5374 -0.5459 -3.0291
 4532TIP3    H237792   5.638   1.509  18.596  1.0544 -0.5373 -1.8925
 4533TIP3   OH237793   1.397   0.544  19.301  0.3774  0.4446 -0.5255
 4533TIP3    H137794   1.443   0.595  19.234 -0.9676 -0.6216 -2.3950
 4533TIP3    H237795   1.320   0.597  19.323  0.7618  0.7444  0.1214
 4534TIP3   OH237796   4.533   5.386  17.480  0.5325 -0.0542 -0.4886
 4534TIP3    H137797   4.485   5.347  17.553  1.0648 -0.5784 -0.4118
 4534TIP3    H237798   4.624   5.363  17.497  0.6884  0.0406 -1.1841
 4535TIP3   OH237799   6.293   1.002  17.229 -0.0529 -0.1822 -0.1933
 4535TIP3    H137800   6.373   0.995  17.178 -2.2374  0.9272 -4.2785
 4535TIP3    H237801   6.240   0.928  17.202 -1.7169  1.0125 -0.3929
 4536TIP3   OH237802   5.541   1.822  18.099  0.3255  0.1123  0.2456
 4536TIP3    H137803   5.453   1.828  18.137  0.4433 -1.3918  0.7983
 4536TIP3    H237804   5.526   1.822  18.005 -0.7713 -4.7257  0.1851
 4537TIP3   OH237805   6.803   4.347  19.233 -0.4645 -0.4367  0.2313
 4537TIP3    H137806   6.767   4.428  19.268 -0.0092 -0.0020 -0.2750
 4537TIP3    H237807   6.740   4.319  19.167 -0.5822 -0.4456  0.3492
 4538TIP3   OH237808   2.188   4.084  17.225  0.1774  0.3995 -0.1929
 4538TIP3    H137809   2.256   4.056  17.164  0.3943  1.5154 -0.4901
 4538TIP3    H237810   2.155   4.003  17.264  2.1235 -0.1386  0.4378
 4539TIP3   OH237811   6.515   3.251  17.598  0.4179  0.3365 -0.1579
 4539TIP3    H137812   6.508   3.229  17.505  0.1137  1.1416 -0.3290
 4539TIP3    H237813   6.600   3.294  17.605  0.6950 -0.2382  0.0467
 4540TIP3   OH237814   1.035   2.134  18.375 -0.0344 -0.6592  0.5355
 4540TIP3    H137815   0.956   2.104  18.329  0.8884 -1.8763 -0.2870
 4540TIP3    H237816   1.072   2.201  18.317 -0.6954  0.2755  1.1543
 4541TIP3   OH237817   0.289   4.874  17.842 -0.4228 -0.2289 -0.4493
 4541TIP3    H137818   0.252   4.831  17.919  0.9720  0.6461  0.7723
 4541TIP3    H237819   0.306   4.964  17.871 -0.6637  0.3671 -2.0635
 4542TIP3   OH237820   4.029   6.843  18.701  0.3569  0.0154 -0.2579
 4542TIP3    H137821   4.088   6.903  18.747 -0.8679  0.6791  0.5243
 4542TIP3    H237822   3.946   6.851  18.748  0.3559 -2.9558  0.4170
 4543TIP3   OH237823   6.111   1.417  17.493 -0.3924  0.2074  0.8880
 4543TIP3    H137824   6.155   1.384  17.415 -1.5308  0.7658 -0.0253
 4543TIP3    H237825   6.170   1.483  17.529  0.2474 -0.2263  0.6427
 4544TIP3   OH237826   5.962   7.329  19.021  0.4073  0.5599  0.4863
 4544TIP3    H137827   6.016   7.328  19.099  1.1740  1.7378 -0.0019
 4544TIP3    H237828   5.880   7.288  19.048  0.9980  0.1001  1.6387
 4545TIP3   OH237829   2.772   2.589  18.624  0.8143 -0.0738  0.0771
 4545TIP3    H137830   2.853   2.619  18.582  0.6517  1.0927  0.5445
 4545TIP3    H237831   2.703   2.638  18.580  0.3752 -0.8685 -0.1366
 4546TIP3   OH237832   7.336   5.488  16.646 -0.4856  0.1573  0.6313
 4546TIP3    H137833   7.342   5.414  16.707 -0.8197  1.0603  1.8079
 4546TIP3    H237834   7.272   5.461  16.581  2.0026 -2.0144 -1.0994
 4547TIP3   OH237835   2.039   2.980  19.187  0.5163  0.4120  0.5162
 4547TIP3    H137836   1.968   3.042  19.203  1.0370  1.0577  0.3721
 4547TIP3    H237837   2.046   2.930  19.269  0.4026  0.8713  0.8115
 4548TIP3   OH237838   4.006   5.465  18.313  0.5217  0.0660  0.4041
 4548TIP3    H137839   3.993   5.410  18.390 -2.4593 -0.7093 -0.5120
 4548TIP3    H237840   4.047   5.545  18.347  0.6871 -0.8582  2.5361
 4549TIP3   OH237841   3.329   3.286  17.536 -0.8023 -0.4929  0.6654
 4549TIP3    H137842   3.352   3.199  17.501 -1.9848 -0.7666  0.5391
 4549TIP3    H237843   3.414   3.328  17.552 -0.2186 -1.2672 -0.2779
 4550TIP3   OH237844   6.516   0.746  19.230  0.5889 -0.2193 -0.1251
 4550TIP3    H137845   6.421   0.746  19.234  0.5631  0.6803 -0.4296
 4550TIP3    H237846   6.543   0.684  19.298 -0.1950  0.3138  0.7018
 4551TIP3   OH237847   2.469   6.878  18.869 -0.1283  0.0676  0.3842
 4551TIP3    H137848   2.461   6.846  18.779 -1.8405  3.1962 -0.7454
 4551TIP3    H237849   2.394   6.840  18.915 -1.3764  1.2560 -0.5698
 4552TIP3   OH237850   1.773   2.909  19.389 -0.3823 -0.3605 -0.4080
 4552TIP3    H137851   1.858   2.866  19.377  0.4968  1.2902 -0.2963
 4552TIP3    H237852   1.711   2.836  19.400  1.0199 -1.5933 -0.3518
 4553TIP3   OH237853   3.443   7.490  19.434  0.0561 -0.7361  0.1477
 4553TIP3    H137854   3.438   7.575  19.477 -0.6338 -0.5729 -0.2393
 4553TIP3    H237855   3.390   7.500  19.355 -0.4836 -1.6955  0.3775
 4554TIP3   OH237856   0.109   3.633  16.459 -0.0491  0.0985 -0.0066
 4554TIP3    H137857   0.110   3.727  16.438 -0.1148 -0.2911 -1.9830
 4554TIP3    H237858   0.035   3.623  16.519  0.5364  1.4294  0.9902
 4555TIP3   OH237859   5.408   2.170  18.069  0.3969 -0.0347  0.3503
 4555TIP3    H137860   5.412   2.257  18.031 -1.0514  0.3420  1.0051
 4555TIP3    H237861   5.499   2.143  18.079  0.8410  0.4841 -1.9050
 4556TIP3   OH237862   5.908   1.788  17.885 -0.0564 -0.1758 -0.0355
 4556TIP3    H137863   6.003   1.780  17.885 -0.0907 -0.6907  0.7172
 4556TIP3    H237864   5.887   1.824  17.799  0.7197 -1.2145 -0.6851
 4557TIP3   OH237865   1.371   2.842  17.944 -0.2119  0.1568 -0.5228
 4557TIP3    H137866   1.441   2.907  17.948 -1.4889  1.6491 -1.2523
 4557TIP3    H237867   1.302   2.877  18.000 -0.7159 -0.8712 -0.4796
 4558TIP3   OH237868   6.413   3.419  18.945 -0.1353  0.0788 -0.3846
 4558TIP3    H137869   6.370   3.504  18.932 -0.5593 -0.1674 -0.5836
 4558TIP3    H237870   6.415   3.407  19.040 -1.2491 -0.2879 -0.3963
 4559TIP3   OH237871   7.473   1.143  18.053  0.0846 -0.0878 -0.3143
 4559TIP3    H137872   7.530   1.166  18.127  0.2025  0.3287 -0.5341
 4559TIP3    H237873   7.468   1.223  18.001 -2.0054  0.4121  0.5326
 4560TIP3   OH237874   1.639   6.910  19.194 -0.2140 -0.0453 -0.5350
 4560TIP3    H137875   1.563   6.880  19.144 -0.5590  0.6802 -0.4565
 4560TIP3    H237876   1.608   6.987  19.241  0.6620  0.4580 -0.7557
 4561TIP3   OH237877   4.849   2.512  18.263 -0.5382 -0.1152 -0.0734
 4561TIP3    H137878   4.886   2.454  18.330  0.2319 -0.3035 -0.6559
 4561TIP3    H237879   4.868   2.470  18.180  1.7602  1.8474 -0.6568
 4562TIP3   OH237880   1.410   4.223  17.394  0.3470 -0.6249  0.1821
 4562TIP3    H137881   1.340   4.286  17.377  0.9211 -0.0856 -0.2267
 4562TIP3    H237882   1.410   4.166  17.316 -0.7487 -1.7084  0.9290
 4563TIP3   OH237883   6.845   2.046  18.912 -0.0868 -0.6042  0.7156
 4563TIP3    H137884   6.895   2.127  18.924 -1.7902  0.7888 -0.8503
 4563TIP3    H237885   6.788   2.041  18.988  0.3506 -0.5879  1.0465
 4564TIP3   OH237886   3.437   0.550  18.344  0.0090  0.5632  0.4488
 4564TIP3    H137887   3.342   0.549  18.354  0.1006  0.5343  1.3424
 4564TIP3    H237888   3.457   0.640  18.316 -0.3355  0.3819 -0.4099
 4565TIP3   OH237889   5.741   0.678  18.333 -0.8034  0.1179  0.2861
 4565TIP3    H137890   5.825   0.689  18.377 -1.4065  1.0199  1.2867
 4565TIP3    H237891   5.759   0.693  18.240  0.2760 -0.5098  0.3880
 4566TIP3   OH237892   2.640   0.577  16.429  0.0720  0.6885 -0.5781
 4566TIP3    H137893   2.646   0.598  16.336 -0.8446 -1.0388 -1.0735
 4566TIP3    H237894   2.708   0.511  16.444 -0.1437  0.5501 -0.1700
 4567TIP3   OH237895   0.205   0.464  18.545  0.4208 -0.4903  0.5168
 4567TIP3    H137896   0.175   0.378  18.514  2.3563 -1.5000  1.2599
 4567TIP3    H237897   0.125   0.512  18.564 -0.8725 -0.6958 -3.4606
 4568TIP3   OH237898   6.058   6.560  18.965  0.1705  0.4792 -0.0361
 4568TIP3    H137899   6.018   6.476  18.942  2.1415  0.2416 -3.1779
 4568TIP3    H237900   6.090   6.547  19.054 -1.0466 -1.4969  0.1675
 4569TIP3   OH237901   6.899   2.576  19.048 -0.1119  0.1981 -0.8998
 4569TIP3    H137902   6.891   2.660  19.003 -0.1727  0.6135 -0.1260
 4569TIP3    H237903   6.948   2.595  19.127 -0.4554 -0.4253 -0.5210
 4570TIP3   OH237904   2.419   2.756  18.119 -0.1446  0.1150  0.4828
 4570TIP3    H137905   2.383   2.791  18.038 -2.5044 -1.5784  0.6921
 4570TIP3    H237906   2.369   2.799  18.188 -1.0165 -1.3710  0.8354
 4571TIP3   OH237907   2.320   0.086  18.283  0.3692  0.2885  0.7103
 4571TIP3    H137908   2.251   0.039  18.235  0.9814 -1.2867  1.2941
 4571TIP3    H237909   2.275   0.129  18.355 -0.4267  1.9104 -0.6687
 4572TIP3   OH237910   3.167   6.743  18.329 -0.2918 -0.6042 -0.0327
 4572TIP3    H137911   3.075   6.768  18.320 -0.2316  0.0010  0.8502
 4572TIP3    H237912   3.215   6.813  18.285 -0.2381 -0.6530 -0.0503
 4573TIP3   OH237913   0.210   3.545  17.993 -0.1397 -0.0581 -0.5122
 4573TIP3    H137914   0.243   3.627  18.031 -0.6803 -0.1983  0.2912
 4573TIP3    H237915   0.172   3.571  17.909  0.4957  0.3711 -0.6703
 4574TIP3   OH237916   5.225   7.210  17.313 -0.3917 -0.2657  0.7026
 4574TIP3    H137917   5.186   7.275  17.255  1.5723 -0.6322 -1.1575
 4574TIP3    H237918   5.320   7.219  17.300  0.1134 -0.9380  3.2715
 4575TIP3   OH237919   1.753   6.653  18.460  0.3667 -0.3133  0.2599
 4575TIP3    H137920   1.745   6.637  18.366 -0.7312 -2.8433  0.7127
 4575TIP3    H237921   1.663   6.663  18.490  0.7317  0.9807  0.9990
 4576TIP3   OH237922   4.553   3.866  18.187  0.7318  0.2700 -0.1752
 4576TIP3    H137923   4.559   3.772  18.205  0.9225  0.2692 -0.2497
 4576TIP3    H237924   4.631   3.904  18.227  0.9591  0.3197 -0.6660
 4577TIP3   OH237925   6.102   2.725  18.049  0.5869 -0.6323  0.1984
 4577TIP3    H137926   6.051   2.652  18.083 -2.0608  2.0785  2.6139
 4577TIP3    H237927   6.050   2.761  17.977  0.0001  0.8828  1.3125
 4578TIP3   OH237928   3.821   0.491  17.433  0.2076  0.4981 -0.4964
 4578TIP3    H137929   3.752   0.552  17.458  0.4702 -0.0027  1.6333
 4578TIP3    H237930   3.902   0.536  17.457  0.5750  0.4805 -1.6397
 4579TIP3   OH237931   0.069   1.138  17.891  0.8215 -0.1187  0.1111
 4579TIP3    H137932   0.022   1.141  17.807  0.0100  1.8103  0.5834
 4579TIP3    H237933   0.017   1.078  17.944  0.5702 -0.2889 -0.3152
 4580TIP3   OH237934   0.390   5.178  17.872 -0.5858  0.1999 -0.0028
 4580TIP3    H137935   0.328   5.245  17.900 -0.7502  0.2440 -0.4714
 4580TIP3    H237936   0.412   5.201  17.782  0.5434  0.5080  0.3335
 4581TIP3   OH237937   4.024   6.577  16.649  0.0540  0.1264  0.1153
 4581TIP3    H137938   4.091   6.605  16.588 -0.4493 -0.7041 -0.8529
 4581TIP3    H237939   3.957   6.645  16.646  1.4179  1.6562  2.1114
 4582TIP3   OH237940   5.277   6.432  19.247 -0.6013  0.1383 -0.2680
 4582TIP3    H137941   5.288   6.430  19.152 -0.1875  0.4536 -0.2341
 4582TIP3    H237942   5.220   6.507  19.263 -0.2328  0.4160 -0.2352
 4583TIP3   OH237943   3.124   3.661  18.863 -0.0783  0.5895 -0.2510
 4583TIP3    H137944   3.181   3.688  18.935 -1.2173  0.4591  0.7355
 4583TIP3    H237945   3.073   3.589  18.899  1.2210 -1.3575 -2.0742
 4584TIP3   OH237946   5.652   2.048  17.793 -0.3709  0.0962  0.0798
 4584TIP3    H137947   5.680   2.080  17.878 -0.7171 -0.1522  0.2895
 4584TIP3    H237948   5.593   2.115  17.759  1.4483  1.2622 -0.9417
 4585TIP3   OH237949   7.301   3.715  18.008 -0.1985 -0.8394 -0.1399
 4585TIP3    H137950   7.285   3.717  18.103 -1.7623  2.6315 -0.2937
 4585TIP3    H237951   7.394   3.694  18.000  0.1210 -0.6588  2.2247
 4586TIP3   OH237952   1.192   0.308  17.918  0.1581 -0.6196 -0.2430
 4586TIP3    H137953   1.258   0.288  17.853  2.1425 -1.9376  2.0106
 4586TIP3    H237954   1.165   0.222  17.952 -1.6706 -0.0339 -0.0818
 4587TIP3   OH237955   5.650   5.864  17.590 -0.2634 -0.6754 -0.5789
 4587TIP3    H137956   5.660   5.801  17.661  0.2733 -0.4305 -0.4380
 4587TIP3    H237957   5.587   5.823  17.531 -0.5712 -0.9635 -0.0594
 4588TIP3   OH237958   1.659   5.879  18.024  0.0740 -0.0862  0.4267
 4588TIP3    H137959   1.584   5.885  18.084 -0.4996 -0.1305 -0.2700
 4588TIP3    H237960   1.689   5.969  18.013  0.9639 -0.2059  1.7386
 4589TIP3   OH237961   4.026   2.384  17.377 -0.4534  0.1606 -0.1221
 4589TIP3    H137962   4.025   2.435  17.296  1.4575 -0.6433 -0.7168
 4589TIP3    H237963   3.982   2.302  17.354 -2.1405  0.8999  0.3919
 4590TIP3   OH237964   3.013   4.158  18.429  0.9382 -0.0317  0.1088
 4590TIP3    H137965   3.101   4.131  18.402 -0.2898 -3.2455 -1.2670
 4590TIP3    H237966   2.996   4.105  18.508  1.0772  2.4596  1.9158
 4591TIP3   OH237967   3.997   6.375  18.903  0.4288  0.6588  0.1157
 4591TIP3    H137968   4.077   6.428  18.901  1.4527 -0.8176  0.7329
 4591TIP3    H237969   3.942   6.419  18.969  1.0107  1.2859  0.2046
 4592TIP3   OH237970   5.892   7.227  18.615 -0.1268 -0.0189 -0.0747
 4592TIP3    H137971   5.958   7.204  18.681 -0.4637 -0.1287  0.2299
 4592TIP3    H237972   5.936   7.289  18.557  0.4426 -0.5631 -0.2411
 4593TIP3   OH237973   5.727   1.763  18.479  0.2112 -0.2879 -0.1985
 4593TIP3    H137974   5.788   1.755  18.406  0.5490 -0.1174  0.0666
 4593TIP3    H237975   5.756   1.697  18.542  0.3666  0.0617  0.1013
 4594TIP3   OH237976   5.081   3.244  17.138  0.1913 -0.1954 -0.1503
 4594TIP3    H137977   5.175   3.259  17.144  0.2180 -0.2775 -0.3477
 4594TIP3    H237978   5.073   3.150  17.118  0.1098  0.0454 -1.3183
 4595TIP3   OH237979   6.097   4.769  17.359  0.1009 -0.0782  0.0821
 4595TIP3    H137980   6.062   4.852  17.326 -1.0451 -0.4517  0.2868
 4595TIP3    H237981   6.020   4.711  17.363  0.5767 -0.6570  1.4456
 4596TIP3   OH237982   5.962   3.626  19.511  0.1361  0.2155 -0.0329
 4596TIP3    H137983   5.993   3.687  19.445  0.6268 -1.6547 -1.6511
 4596TIP3    H237984   6.042   3.596  19.555 -0.0108  0.1444  0.1850
 4597TIP3   OH237985   2.382   7.041  18.486  0.4086 -0.0807 -0.3225
 4597TIP3    H137986   2.474   7.039  18.513  0.1160 -2.7183  0.7722
 4597TIP3    H237987   2.334   7.000  18.558 -1.1568 -1.9839 -2.2913
 4598TIP3   OH237988   5.635   2.182  17.284 -0.3308 -0.4533  0.1318
 4598TIP3    H137989   5.710   2.123  17.293 -0.0808 -0.2940 -0.8508
 4598TIP3    H237990   5.669   2.267  17.315 -0.7671 -0.8505  1.7975
 4599TIP3   OH237991   7.480   4.572  18.976 -0.2275  0.1590  0.4658
 4599TIP3    H137992   7.489   4.522  18.895  1.3139  0.4673  0.4183
 4599TIP3    H237993   7.445   4.657  18.948 -0.5548 -0.0517  0.2377
 4600TIP3   OH237994   0.642   2.384  19.586  0.0772  0.3237  0.6353
 4600TIP3    H137995   0.719   2.423  19.546 -1.4780  1.7404 -1.1634
 4600TIP3    H237996   0.581   2.371  19.513 -1.0280 -1.7369  1.8181
 4601TIP3   OH237997   0.919   1.055  19.572 -0.1290  0.0765  0.5183
 4601TIP3    H137998   0.925   1.125  19.507  1.8437 -1.5258 -1.1423
 4601TIP3    H237999   0.844   1.079  19.626 -1.9935  1.3927 -2.4278
 4602TIP3   OH238000   4.868   2.798  19.240  0.3497  0.4708  0.0611
 4602TIP3    H138001   4.881   2.708  19.271 -0.8048  0.3754  0.3330
 4602TIP3    H238002   4.939   2.847  19.279  0.5169 -0.1768  0.5944
 4603TIP3   OH238003   6.878   4.400  18.902 -0.0142  0.2877 -0.1914
 4603TIP3    H138004   6.810   4.466  18.914  0.7316  0.9015  0.7203
 4603TIP3    H238005   6.957   4.438  18.940  0.7645 -0.5732 -0.8806
 4604TIP3   OH238006   4.035   7.373  19.074  0.1359  0.3875  0.2799
 4604TIP3    H138007   3.951   7.399  19.035  0.0335 -0.1452  0.1451
 4604TIP3    H238008   4.094   7.447  19.053 -0.6068  1.3533  1.4773
 4605TIP3   OH238009   1.205   5.962  16.988 -0.3329 -0.1576  0.1931
 4605TIP3    H138010   1.199   5.877  16.944 -1.8062  0.8608 -1.7285
 4605TIP3    H238011   1.293   5.994  16.965 -0.9323  0.1772 -1.7795
 4606TIP3   OH238012   4.727   0.856  18.773 -0.3910 -0.4277 -0.2833
 4606TIP3    H138013   4.762   0.774  18.806  2.5710  0.9819  0.3982
 4606TIP3    H238014   4.779   0.875  18.695  0.9587  2.0625  1.1049
 4607TIP3   OH238015   0.633   3.342  18.733  0.8477 -0.3038  0.5794
 4607TIP3    H138016   0.608   3.355  18.824  0.4718 -0.3103  0.4795
 4607TIP3    H238017   0.718   3.299  18.737  0.3496 -1.2805  0.9339
 4608TIP3   OH238018   0.434   5.624  17.754  0.5545  0.0531  0.1511
 4608TIP3    H138019   0.526   5.617  17.731  0.9414  0.7403  1.4145
 4608TIP3    H238020   0.407   5.710  17.720  0.4159 -0.0871 -0.0945
 4609TIP3   OH238021   6.676   3.725  18.888 -0.1994  0.5633  0.5001
 4609TIP3    H138022   6.661   3.718  18.983 -2.0000 -0.2614  0.1964
 4609TIP3    H238023   6.641   3.644  18.852 -1.7731  1.8716 -1.1028
 4610TIP3   OH238024   4.930   3.966  17.481 -0.0469  0.5648  0.0726
 4610TIP3    H138025   4.954   3.887  17.530 -1.4539 -0.3342 -0.5998
 4610TIP3    H238026   5.012   4.014  17.469  0.9074 -0.9743  0.2078
 4611TIP3   OH238027   5.854   3.433  19.288  0.1716  0.1516  0.2720
 4611TIP3    H138028   5.919   3.450  19.219  0.9952 -0.5822  0.8508
 4611TIP3    H238029   5.887   3.482  19.364 -0.4279  0.4896  0.3177
 4612TIP3   OH238030   3.675   0.255  18.645  0.7062  0.5853 -0.2413
 4612TIP3    H138031   3.646   0.286  18.559  1.6294 -0.6735 -1.0359
 4612TIP3    H238032   3.644   0.322  18.706 -1.8388  0.4801 -1.2813
 4613TIP3   OH238033   0.637   5.957  17.219 -0.0284 -0.3062  0.6064
 4613TIP3    H138034   0.706   5.949  17.284  0.9988 -2.3311 -0.6104
 4613TIP3    H238035   0.662   5.896  17.150 -1.7401  0.7679 -1.0849
 4614TIP3   OH238036   3.113   2.223  17.848  0.0726 -0.2652  0.2324
 4614TIP3    H138037   3.044   2.234  17.913 -0.4507 -2.1920  0.0627
 4614TIP3    H238038   3.088   2.145  17.799  3.0938 -1.9694  1.1455
 4615TIP3   OH238039   3.195   5.910  16.677 -0.2325 -0.0586 -0.5919
 4615TIP3    H138040   3.108   5.943  16.655  0.4760  0.8353 -2.1912
 4615TIP3    H238041   3.254   5.981  16.655  1.0253 -1.0998 -0.7067
 4616TIP3   OH238042   4.331   7.121  17.407 -0.2472 -0.0765 -0.2344
 4616TIP3    H138043   4.256   7.178  17.420 -0.6915 -0.4440 -1.0384
 4616TIP3    H238044   4.293   7.033  17.402  0.3851 -0.4044  0.6564
 4617TIP3   OH238045   6.132   5.573  17.137  0.5362  0.3627  0.0099
 4617TIP3    H138046   6.213   5.607  17.100  0.1362  0.6757 -0.5969
 4617TIP3    H238047   6.130   5.481  17.111  0.4235  0.4959 -0.4445
 4618TIP3   OH238048   1.817   7.239  18.456 -0.0642 -0.4717 -0.1128
 4618TIP3    H138049   1.789   7.317  18.503 -0.0209  0.8083 -2.0746
 4618TIP3    H238050   1.888   7.202  18.509 -0.8760  0.1345  1.4332
 4619TIP3   OH238051   3.068   4.527  19.086 -0.2136  0.7945  0.1444
 4619TIP3    H138052   3.030   4.441  19.105  0.6839  0.5890  1.1482
 4619TIP3    H238053   3.098   4.521  18.996 -1.8862  0.7294 -0.4395
 4620TIP3   OH238054   6.331   0.788  17.941  0.6147 -0.1445  0.3186
 4620TIP3    H138055   6.306   0.739  18.019 -1.7781  1.2087  0.5068
 4620TIP3    H238056   6.326   0.724  17.870 -0.3310 -0.6741  0.8463
 4621TIP3   OH238057   1.282   2.582  19.093  0.3125  0.1175  0.3043
 4621TIP3    H138058   1.200   2.615  19.130 -0.9299 -1.0909 -1.2056
 4621TIP3    H238059   1.313   2.653  19.036 -0.6815 -0.0841 -0.5160
 4622TIP3   OH238060   2.527   5.727  18.236 -0.0985  0.3344  0.2473
 4622TIP3    H138061   2.615   5.716  18.199 -0.4150 -1.1448 -0.1402
 4622TIP3    H238062   2.530   5.811  18.282  0.7675  1.4999 -1.8444
 4623TIP3   OH238063   4.136   5.256  17.185  0.3419 -0.1558  0.0225
 4623TIP3    H138064   4.203   5.237  17.119 -0.2418 -2.7921  0.0490
 4623TIP3    H238065   4.184   5.274  17.265  1.0290  1.5532 -0.7208
 4624TIP3   OH238066   3.299   1.723  17.960  0.1676 -0.3114  0.3239
 4624TIP3    H138067   3.234   1.785  17.926  1.2553  0.7014  0.0334
 4624TIP3    H238068   3.372   1.778  17.988  0.2606 -1.2868  2.1824
 4625TIP3   OH238069   0.689   5.047  19.278 -0.1532 -0.4927 -0.1431
 4625TIP3    H138070   0.666   5.124  19.226  1.7985 -0.0682 -0.4635
 4625TIP3    H238071   0.612   5.032  19.333 -0.0598  2.6045  1.0276
 4626TIP3   OH238072   0.947   7.041  18.988  0.5279 -0.1365  0.3348
 4626TIP3    H138073   1.006   7.065  18.916  0.5804 -0.4552  0.2703
 4626TIP3    H238074   0.973   7.099  19.060 -0.3735  1.0896 -0.2871
 4627TIP3   OH238075   6.676   7.196  19.219  0.0057  0.0202 -0.7982
 4627TIP3    H138076   6.701   7.109  19.251  1.0189  0.9572  1.1710
 4627TIP3    H238077   6.581   7.194  19.216  0.0167 -1.2097 -0.9527
 4628TIP3   OH238078   3.962   4.864  18.039  0.2162  0.1180  1.0641
 4628TIP3    H138079   3.902   4.934  18.063  1.9702  1.9684  0.3389
 4628TIP3    H238080   4.028   4.906  17.984  0.1143 -2.5795 -1.3574
 4629TIP3   OH238081   2.476   7.294  18.812 -0.4130 -0.1037 -0.6372
 4629TIP3    H138082   2.392   7.251  18.799 -0.2158 -1.0804  1.0244
 4629TIP3    H238083   2.539   7.222  18.820  0.1927  0.5218  0.5084
 4630TIP3   OH238084   3.583   1.947  19.486  0.4087  0.4390  0.0182
 4630TIP3    H138085   3.563   2.026  19.436 -0.3338  1.3839  1.7228
 4630TIP3    H238086   3.656   1.972  19.543  2.1906 -1.0382 -1.4955
 4631TIP3   OH238087   5.953   4.471  19.089  0.0986 -0.0867  0.0150
 4631TIP3    H138088   5.928   4.541  19.029 -1.1894  0.0962  0.7289
 4631TIP3    H238089   6.015   4.512  19.149  0.9744 -0.1315 -0.8261
 4632TIP3   OH238090   6.793   4.600  18.006 -0.3663 -0.0223  0.3855
 4632TIP3    H138091   6.876   4.598  17.957  0.2592  2.3045  1.2188
 4632TIP3    H238092   6.726   4.612  17.939  0.2325  0.5749 -0.1203
 4633TIP3   OH238093   0.583   6.321  18.101  0.2642 -0.1859  0.8152
 4633TIP3    H138094   0.501   6.274  18.084 -0.1762  0.5921  0.7567
 4633TIP3    H238095   0.623   6.273  18.174  0.0640 -0.9375  0.4395
 4634TIP3   OH238096   1.433   3.053  18.478 -0.5440  0.3674  0.4129
 4634TIP3    H138097   1.368   2.984  18.476 -0.9550  0.7514  0.3539
 4634TIP3    H238098   1.426   3.090  18.565 -0.6059  0.5976  0.3111
 4635TIP3   OH238099   0.655   4.295  17.919  0.1638 -0.5234 -0.7933
 4635TIP3    H138100   0.621   4.256  17.840  0.1433  0.1933 -1.1458
 4635TIP3    H238101   0.602   4.373  17.933  1.1239  0.1730 -0.9128
 4636TIP3   OH238102   7.303   3.003  18.346  0.1362 -0.2943  0.4297
 4636TIP3    H138103   7.262   2.969  18.425  0.8981  0.3707  1.1159
 4636TIP3    H238104   7.396   3.005  18.365  0.3890 -0.5730 -0.6597
 4637TIP3   OH238105   0.411   3.182  18.386  0.3228 -0.7262  0.0353
 4637TIP3    H138106   0.444   3.116  18.446  1.1892 -1.3677 -1.1152
 4637TIP3    H238107   0.478   3.190  18.319  0.3051  1.4216  0.1806
 4638TIP3   OH238108   2.604   0.205  16.589 -0.0077  0.1166  0.2862
 4638TIP3    H138109   2.550   0.202  16.510  0.0150  0.3855  0.2615
 4638TIP3    H238110   2.544   0.235  16.658 -0.4108 -1.5315  0.6899
 4639TIP3   OH238111   2.050   3.265  17.831  0.2779  0.8730 -0.0046
 4639TIP3    H138112   2.017   3.278  17.919 -0.8749  0.6549 -0.3936
 4639TIP3    H238113   2.087   3.176  17.832  0.5286  0.9767  0.3226
 4640TIP3   OH238114   3.475   4.591  17.794 -0.0869 -0.1521 -0.0445
 4640TIP3    H138115   3.526   4.624  17.868  1.0600  1.7624 -1.5979
 4640TIP3    H238116   3.385   4.586  17.828  0.3636  0.8947  1.4119
 4641TIP3   OH238117   4.261   4.160  18.108  0.5755  0.0687  0.0801
 4641TIP3    H138118   4.314   4.211  18.046  1.4644  0.0440  0.7942
 4641TIP3    H238119   4.225   4.226  18.168 -1.3954  0.2489 -1.2175
 4642TIP3   OH238120   1.327   5.777  16.825 -0.2914  0.4297 -0.1470
 4642TIP3    H138121   1.395   5.832  16.863  0.3144 -1.4149  1.6379
 4642TIP3    H238122   1.315   5.811  16.736  2.5282  1.2038 -0.3240
 4643TIP3   OH238123   6.409   0.714  18.290  0.2050  0.4005 -0.2475
 4643TIP3    H138124   6.353   0.653  18.240  0.6558  0.5052 -0.8901
 4643TIP3    H238125   6.370   0.800  18.274  0.0241  0.3711  0.0340
 4644TIP3   OH238126   6.225   6.829  17.469 -0.1734  0.5160  0.0451
 4644TIP3    H138127   6.178   6.889  17.412  0.6466  2.0502  0.9247
 4644TIP3    H238128   6.192   6.848  17.557  0.2257 -0.2108  0.3662
 4645TIP3   OH238129   5.078   5.361  17.500  0.0635 -0.0221 -0.5511
 4645TIP3    H138130   5.119   5.274  17.505 -0.1507 -0.0799  0.2723
 4645TIP3    H238131   5.152   5.421  17.491  0.2728 -0.2090 -0.1258
 4646TIP3   OH238132   3.057   3.716  18.059 -0.0767  0.5826  0.1892
 4646TIP3    H138133   3.040   3.810  18.071  1.5976  0.9675 -0.1707
 4646TIP3    H238134   2.971   3.674  18.070 -1.3228  2.3508 -1.8641
 4647TIP3   OH238135   0.558   2.512  18.647 -0.8516  0.6090 -0.4289
 4647TIP3    H138136   0.532   2.603  18.661 -0.5894  0.5067  0.8022
 4647TIP3    H238137   0.501   2.461  18.705 -0.0700  0.1119 -0.0738
 4648TIP3   OH238138   4.923   4.210  18.402 -0.1509 -0.0277  0.2649
 4648TIP3    H138139   4.991   4.258  18.450  2.1482 -0.5287 -2.2131
 4648TIP3    H238140   4.884   4.276  18.345  1.9012 -0.6149 -1.9801
 4649TIP3   OH238141   6.120   7.392  18.818  0.0035 -0.0700 -0.2080
 4649TIP3    H138142   6.055   7.369  18.885  0.4765 -0.7201  0.0423
 4649TIP3    H238143   6.076   7.457  18.764 -0.6360 -0.0398  0.3260
 4650TIP3   OH238144   5.583   5.198  17.003  0.1105  0.4581 -0.2082
 4650TIP3    H138145   5.655   5.199  16.940 -0.5038 -0.4409 -0.9534
 4650TIP3    H238146   5.522   5.133  16.969  0.6200 -1.4896  2.2727
 4651TIP3   OH238147   7.275   7.431  17.977 -0.0744 -0.2779 -0.0498
 4651TIP3    H138148   7.275   7.519  18.015 -0.2020 -1.2262  2.3234
 4651TIP3    H238149   7.358   7.393  18.005 -0.1329 -1.0215 -0.8341
 4652TIP3   OH238150   2.606   6.846  19.174  0.2283 -0.0291 -0.5239
 4652TIP3    H138151   2.590   6.759  19.139 -1.4830 -0.1499  0.4303
 4652TIP3    H238152   2.557   6.905  19.117 -0.5482  0.0261  0.1682
 4653TIP3   OH238153   5.812   4.902  18.346 -0.4571  0.6790 -0.0761
 4653TIP3    H138154   5.719   4.881  18.354 -0.2126 -0.2203  0.6927
 4653TIP3    H238155   5.835   4.937  18.433  0.2022 -0.3474  0.1745
 4654TIP3   OH238156   1.136   4.829  16.918 -0.0913 -0.4903 -0.0204
 4654TIP3    H138157   1.044   4.845  16.893 -0.3416 -0.9987  0.5519
 4654TIP3    H238158   1.136   4.738  16.947  0.1983  0.0780  1.8364
 4655TIP3   OH238159   3.759   5.480  18.596  1.0932  0.0970  0.2302
 4655TIP3    H138160   3.848   5.444  18.590  0.3177 -1.7267 -2.5617
 4655TIP3    H238161   3.708   5.409  18.635  0.4786  0.2070 -0.3517
 4656TIP3   OH238162   1.009   4.127  18.789 -0.1798  0.3223 -0.2111
 4656TIP3    H138163   1.050   4.174  18.861  0.4680 -1.3310  0.5680
 4656TIP3    H238164   0.915   4.144  18.799 -0.0500  0.5369  0.7192
 4657TIP3   OH238165   0.225   2.968  18.640  0.0820 -0.2770  0.3595
 4657TIP3    H138166   0.240   2.970  18.545 -1.5731  2.5044  0.0598
 4657TIP3    H238167   0.133   2.943  18.649 -0.4775  1.8393  1.0382
 4658TIP3   OH238168   3.296   0.592  17.699 -0.3432  0.0869  0.1187
 4658TIP3    H138169   3.206   0.558  17.705 -0.1945 -0.1836  1.0144
 4658TIP3    H238170   3.295   0.649  17.623 -0.9527 -0.9079 -0.6573
 4659TIP3   OH238171   5.072   0.478  16.752 -0.7799 -0.1519 -0.0821
 4659TIP3    H138172   5.003   0.512  16.696  0.0619  0.1517 -0.9434
 4659TIP3    H238173   5.070   0.383  16.738 -1.4811 -0.2198  0.4375
 4660TIP3   OH238174   1.731   2.485  19.642  0.6500  0.3064  0.1662
 4660TIP3    H138175   1.826   2.474  19.651  0.5161 -0.9975  0.1753
 4660TIP3    H238176   1.694   2.413  19.692 -0.3483  0.6049 -0.1226
 4661TIP3   OH238177   4.171   4.030  17.862 -0.0365  0.0889 -0.2589
 4661TIP3    H138178   4.195   4.077  17.782  0.9429 -0.0745 -0.0704
 4661TIP3    H238179   4.160   4.099  17.928  1.6424  0.0619  0.0796
 4662TIP3   OH238180   5.115   2.399  18.556 -0.7325 -0.0949 -0.0177
 4662TIP3    H138181   5.197   2.400  18.507 -0.7869 -1.4450 -0.1622
 4662TIP3    H238182   5.096   2.492  18.573  1.0070  0.2241  0.3540
 4663TIP3   OH238183   2.399   4.393  18.502  0.0122 -0.2634  0.1081
 4663TIP3    H138184   2.330   4.382  18.568  0.1039  0.3963  0.3164
 4663TIP3    H238185   2.421   4.486  18.505 -0.5762 -0.0283 -1.4524
 4664TIP3   OH238186   4.226   6.248  17.284 -0.4300  0.0079 -0.0394
 4664TIP3    H138187   4.312   6.290  17.273 -0.1898 -0.5212 -0.2177
 4664TIP3    H238188   4.236   6.194  17.362 -0.7660  0.3412  0.2372
 4665TIP3   OH238189   6.943   7.278  18.921 -0.3182 -0.3044  0.4058
 4665TIP3    H138190   7.026   7.310  18.956 -0.8213  0.3999  0.9692
 4665TIP3    H238191   6.876   7.324  18.971 -1.0557  0.1762 -0.9786
 4666TIP3   OH238192   7.313   2.575  17.589  0.3578  0.5143  0.0105
 4666TIP3    H138193   7.319   2.566  17.684  0.6080 -0.4428 -0.0868
 4666TIP3    H238194   7.231   2.533  17.566  0.1669  0.9792 -0.1771
 4667TIP3   OH238195   6.538   6.666  17.976  0.6785 -0.1238  0.1184
 4667TIP3    H138196   6.586   6.600  17.927 -0.2377 -0.6990 -0.0300
 4667TIP3    H238197   6.499   6.619  18.049 -2.0348 -0.3439 -1.3267
 4668TIP3   OH238198   1.478   2.416  17.538  0.0481  0.0576  0.0408
 4668TIP3    H138199   1.435   2.334  17.563 -1.0416  0.9687  1.3573
 4668TIP3    H238200   1.563   2.413  17.581  0.1023 -0.4825 -0.1032
 4669TIP3   OH238201   0.390   5.897  19.001 -0.1492  0.5522  0.9212
 4669TIP3    H138202   0.456   5.967  18.998  0.2965  0.1331  0.9033
 4669TIP3    H238203   0.306   5.944  19.000  0.1207  1.0605 -0.3729
 4670TIP3   OH238204   3.822   3.416  18.487 -0.0472 -0.1340 -0.0080
 4670TIP3    H138205   3.854   3.391  18.574 -1.2231  0.5873  0.6635
 4670TIP3    H238206   3.767   3.493  18.503  1.9533  1.7729 -1.7644
 4671TIP3   OH238207   4.895   1.394  17.420  0.1049  0.1067  0.0453
 4671TIP3    H138208   4.806   1.397  17.455  0.3501  0.5565  0.6554
 4671TIP3    H238209   4.888   1.430  17.331 -0.7362 -2.1560 -0.8633
 4672TIP3   OH238210   3.943   5.439  18.030  0.4752 -0.0454  0.2975
 4672TIP3    H138211   3.957   5.440  18.125 -0.9771 -0.1371  0.5486
 4672TIP3    H238212   3.909   5.526  18.010  1.2793  0.1529 -0.2445
 4673TIP3   OH238213   5.336   1.746  17.597 -0.0898 -0.1713  0.6860
 4673TIP3    H138214   5.332   1.651  17.592  0.5082 -0.2480  1.5062
 4673TIP3    H238215   5.250   1.775  17.566 -0.7098 -1.0255  1.5651
 4674TIP3   OH238216   4.953   7.139  17.868  0.2843  0.0461  0.2419
 4674TIP3    H138217   4.971   7.056  17.823  0.5315  0.7119 -0.9372
 4674TIP3    H238218   5.006   7.135  17.948  2.1844  0.0386 -0.9411
 4675TIP3   OH238219   5.451   5.966  17.791 -0.3466 -0.4727 -0.3945
 4675TIP3    H138220   5.524   5.926  17.745 -0.2543  0.6410 -1.2522
 4675TIP3    H238221   5.383   5.976  17.724 -0.5315  0.3625 -0.0913
 4676TIP3   OH238222   4.545   2.416  18.566 -0.1889 -0.0113 -0.0533
 4676TIP3    H138223   4.554   2.415  18.661 -2.3462 -0.5921  0.1838
 4676TIP3    H238224   4.612   2.479  18.537 -1.4490  2.5182  2.0921
 4677TIP3   OH238225   4.848   5.883  18.854  0.1554  0.7409 -0.2210
 4677TIP3    H138226   4.918   5.942  18.826  1.0308 -0.6823 -1.1792
 4677TIP3    H238227   4.858   5.806  18.798 -1.7919  0.2241  0.0669
 4678TIP3   OH238228   5.194   6.560  16.633  0.3057  0.1156 -0.0034
 4678TIP3    H138229   5.113   6.600  16.601 -0.0624 -2.1070 -2.1302
 4678TIP3    H238230   5.168   6.510  16.710 -1.3356 -3.6368 -2.7188
 4679TIP3   OH238231   7.371   1.986  18.523 -0.1595  0.2423 -0.0588
 4679TIP3    H138232   7.465   2.001  18.537 -0.1657  0.3224 -0.1051
 4679TIP3    H238233   7.359   1.892  18.541 -0.2977  0.4792  1.1804
 4680TIP3   OH238234   1.826   5.502  18.788  0.1911 -0.6861 -0.1241
 4680TIP3    H138235   1.807   5.409  18.776  1.9700 -1.2040  0.6681
 4680TIP3    H238236   1.915   5.513  18.756 -0.1937  0.9071 -0.7841
 4681TIP3   OH238237   6.381   4.735  17.988 -0.1252  0.5892 -0.0184
 4681TIP3    H138238   6.315   4.730  17.920  0.2131 -1.7586 -0.2621
 4681TIP3    H238239   6.459   4.695  17.950  1.0001  1.8966  0.7800
 4682TIP3   OH238240   6.428   2.489  17.641  1.3298  0.1812  0.6380
 4682TIP3    H138241   6.370   2.536  17.581  0.4678  0.3954  1.6089
 4682TIP3    H238242   6.457   2.412  17.592  1.5804  0.9503 -0.4552
 4683TIP3   OH238243   0.839   3.471  17.353 -0.3705  0.5193  0.1545
 4683TIP3    H138244   0.854   3.430  17.267  0.1714 -0.3870  0.6541
 4683TIP3    H238245   0.887   3.554  17.349  0.5487 -0.0006 -0.0721
 4684TIP3   OH238246   1.799   4.541  17.575  0.0630 -0.0441  0.2564
 4684TIP3    H138247   1.731   4.527  17.510  0.7326 -0.8245 -0.2902
 4684TIP3    H238248   1.813   4.455  17.615  2.2209 -0.4254 -1.1547
 4685TIP3   OH238249   2.530   3.440  18.995 -0.0285  0.0121 -0.2290
 4685TIP3    H138250   2.533   3.501  18.922 -0.3477  1.1155  0.6590
 4685TIP3    H238251   2.492   3.360  18.958 -0.8829  0.8022 -1.0924
 4686TIP3   OH238252   4.271   6.578  19.414 -0.1554  0.3284  0.3104
 4686TIP3    H138253   4.263   6.672  19.396 -1.4877  0.4584  1.3989
 4686TIP3    H238254   4.181   6.546  19.411  0.4719 -1.6281 -3.3268
 4687TIP3   OH238255   7.175   1.189  19.585  0.1108  0.5755 -0.0315
 4687TIP3    H138256   7.089   1.152  19.570 -0.1051  0.7383  0.7637
 4687TIP3    H238257   7.219   1.126  19.642  0.3352  0.7349 -0.0254
 4688TIP3   OH238258   2.022   1.272  19.303  0.0447 -0.0988 -0.5774
 4688TIP3    H138259   2.077   1.257  19.379  0.5685 -0.3839 -1.0051
 4688TIP3    H238260   1.953   1.206  19.309  0.1820 -0.2283 -0.4399
 4689TIP3   OH238261   0.594   6.280  18.529  0.1501 -0.1130 -0.2240
 4689TIP3    H138262   0.604   6.307  18.438 -0.3438 -0.0650 -0.2694
 4689TIP3    H238263   0.671   6.315  18.574  1.7826 -2.3499 -1.0944
 4690TIP3   OH238264   2.478   4.860  17.314 -0.2064  0.4111 -0.1456
 4690TIP3    H138265   2.383   4.860  17.302 -0.3345  0.0280  0.7554
 4690TIP3    H238266   2.506   4.946  17.283 -0.9919  0.9362  0.5414
 4691TIP3   OH238267   1.437   3.002  18.970  0.4135  0.8259  0.5078
 4691TIP3    H138268   1.453   2.910  18.991  0.4146  0.7711  0.2699
 4691TIP3    H238269   1.380   3.033  19.041 -0.8679  0.2184 -0.2195
 4692TIP3   OH238270   2.383   3.666  19.207 -0.2043  0.3781  0.3250
 4692TIP3    H138271   2.476   3.670  19.232 -0.4076  0.1725  1.1652
 4692TIP3    H238272   2.364   3.752  19.172  0.9769 -0.3750 -2.4345
 4693TIP3   OH238273   3.273   5.494  18.936  0.4857 -0.8344  0.3987
 4693TIP3    H138274   3.346   5.488  18.998  1.7750  0.5200 -0.8992
 4693TIP3    H238275   3.306   5.451  18.857 -0.1869 -0.3739 -0.1428
 4694TIP3   OH238276   5.382   1.719  17.281 -0.2402  0.0182  0.2761
 4694TIP3    H138277   5.435   1.642  17.262 -2.1801 -0.9045 -1.8410
 4694TIP3    H238278   5.364   1.713  17.375  2.7541  0.0549  0.9598
 4695TIP3   OH238279   4.224   4.576  17.501 -0.4638  0.0193 -0.0899
 4695TIP3    H138280   4.249   4.589  17.409 -1.2635  0.8278 -0.2102
 4695TIP3    H238281   4.139   4.531  17.496 -1.0694  1.0829  0.2044
 4696TIP3   OH238282   7.633   3.607  17.232 -0.4906  0.3357  0.2686
 4696TIP3    H138283   7.544   3.634  17.255 -0.5362  0.0431  0.4467
 4696TIP3    H238284   7.626   3.576  17.142 -0.6386  0.0138  0.3877
 4697TIP3   OH238285   4.125   7.405  17.804 -0.0063  0.4532  0.1565
 4697TIP3    H138286   4.200   7.460  17.826  0.0269  0.0687  1.0367
 4697TIP3    H238287   4.163   7.317  17.795 -0.0098  0.5795 -1.5075
 4698TIP3   OH238288   2.522   3.622  18.070 -0.9883  0.2465 -0.0219
 4698TIP3    H138289   2.602   3.580  18.101 -0.3987  0.6796 -0.8962
 4698TIP3    H238290   2.484   3.560  18.008 -0.3171  0.7852 -1.0243
 4699TIP3   OH238291   4.200   2.610  17.946  0.4935 -0.1879 -0.2697
 4699TIP3    H138292   4.272   2.582  18.003 -0.2755 -0.1675  0.7411
 4699TIP3    H238293   4.228   2.694  17.911  0.7391  0.0772  0.5408
 4700TIP3   OH238294   7.448   1.202  19.709  0.0729  0.1625 -0.0369
 4700TIP3    H138295   7.366   1.170  19.747  0.0093  0.6447  0.2523
 4700TIP3    H238296   7.420   1.261  19.639  0.1871 -0.4217 -0.5807
 4701TIP3   OH238297   1.042   2.279  19.509 -1.0477  0.2484  0.2283
 4701TIP3    H138298   1.043   2.254  19.601  0.6925  2.7620  1.0086
 4701TIP3    H238299   0.959   2.246  19.475 -0.6575 -2.9697  1.9715
 4702TIP3   OH238300   7.279   4.014  17.749  0.2915  0.1221 -0.1761
 4702TIP3    H138301   7.229   3.958  17.809  0.2144 -0.8416 -1.1075
 4702TIP3    H238302   7.329   4.071  17.807  0.2011 -0.7589  0.8164
 4703TIP3   OH238303   3.669   2.852  19.353 -0.5726 -0.0754 -0.3118
 4703TIP3    H138304   3.624   2.885  19.431 -2.0211  1.4934 -1.7167
 4703TIP3    H238305   3.611   2.786  19.317 -1.8809  1.8987 -2.0906
 4704TIP3   OH238306   7.387   5.693  17.522  0.1177  0.0713 -0.2244
 4704TIP3    H138307   7.436   5.747  17.461  0.8887 -0.7956 -0.3810
 4704TIP3    H238308   7.343   5.628  17.468 -0.5657  0.3353 -0.0054
 4705TIP3   OH238309   5.054   0.927  19.486 -0.3351  0.2086  0.0154
 4705TIP3    H138310   5.015   0.848  19.450 -3.2401  1.6750 -0.3468
 4705TIP3    H238311   5.002   0.946  19.565  0.2366  1.7753  0.0551
 4706TIP3   OH238312   3.568   7.256  19.401  0.0680  0.1060 -0.3528
 4706TIP3    H138313   3.646   7.305  19.375 -0.4934  0.9096 -0.5774
 4706TIP3    H238314   3.517   7.318  19.453 -0.4955 -0.3617 -0.3378
 4707TIP3   OH238315   5.865   7.574  17.273  0.5401 -0.5993 -0.3651
 4707TIP3    H138316   5.806   7.526  17.331 -0.9023 -1.0491 -2.0884
 4707TIP3    H238317   5.881   7.514  17.200  0.7245  0.6080 -1.3641
 4708TIP3   OH238318   2.908   6.350  19.243  0.0232 -0.5588 -0.9861
 4708TIP3    H138319   2.882   6.442  19.246 -1.5109 -0.9519 -1.2799
 4708TIP3    H238320   2.862   6.314  19.168  0.5675 -1.5921 -0.8497
 4709TIP3   OH238321   4.714   1.787  18.655  0.2238 -0.0856 -0.1897
 4709TIP3    H138322   4.780   1.788  18.585 -0.2870 -0.7690 -0.6927
 4709TIP3    H238323   4.670   1.703  18.646 -0.1865  0.0290  0.6479
 4710TIP3   OH238324   4.710   7.398  17.786  0.2667  0.2279  0.0973
 4710TIP3    H138325   4.753   7.356  17.712  0.6016  0.8649 -0.0681
 4710TIP3    H238326   4.620   7.365  17.783  0.8917 -1.6742  0.8650
 4711TIP3   OH238327   5.827   4.495  17.648  0.6190  0.2997  0.2108
 4711TIP3    H138328   5.898   4.487  17.711 -1.1077  1.1971  2.4546
 4711TIP3    H238329   5.750   4.462  17.695 -0.6557  0.3850 -1.6975
 4712TIP3   OH238330   3.261   1.737  18.944 -0.1760 -0.2182  0.1149
 4712TIP3    H138331   3.320   1.697  19.008 -1.2065 -0.9720  0.6117
 4712TIP3    H238332   3.188   1.770  18.996 -1.5396 -1.7419 -0.7378
 4713TIP3   OH238333   1.358   5.473  18.578 -0.5620 -0.0085  0.8451
 4713TIP3    H138334   1.375   5.386  18.616 -3.0227 -2.3386 -2.7632
 4713TIP3    H238335   1.269   5.494  18.606  0.3115  1.9125  2.4066
 4714TIP3   OH238336   2.887   1.415  16.571 -0.2742 -0.0217  0.0181
 4714TIP3    H138337   2.979   1.394  16.555 -0.0432  1.4511 -0.7033
 4714TIP3    H238338   2.889   1.496  16.621 -1.1870  0.2333 -0.3366
 4715TIP3   OH238339   5.757   6.916  16.668 -0.5450  0.2039  0.0043
 4715TIP3    H138340   5.829   6.853  16.668 -1.1950 -0.5553  0.4568
 4715TIP3    H238341   5.683   6.869  16.707 -1.0196  1.2776  0.4460
 4716TIP3   OH238342   5.136   7.563  18.507  0.5566 -0.2208 -0.3022
 4716TIP3    H138343   5.215   7.565  18.453  1.8201  1.7756  1.4571
 4716TIP3    H238344   5.095   7.648  18.494 -1.3016 -1.1880 -1.0984
 4717TIP3   OH238345   2.537   3.203  18.052 -0.4756 -0.5269 -0.1124
 4717TIP3    H138346   2.465   3.179  18.111 -0.4253 -1.1098 -0.2838
 4717TIP3    H238347   2.561   3.292  18.079  0.2491 -1.1627  1.4492
 4718TIP3   OH238348   1.481   5.803  16.524  0.1167  0.3415 -0.4372
 4718TIP3    H138349   1.391   5.831  16.540  0.2860  0.6407 -0.0003
 4718TIP3    H238350   1.515   5.866  16.461  0.0328  0.2505 -0.5736
 4719TIP3   OH238351   0.932   0.226  16.330  0.5972 -0.0670  0.0011
 4719TIP3    H138352   0.869   0.173  16.379 -0.2637 -0.3996 -1.3873
 4719TIP3    H238353   0.936   0.308  16.378 -0.7191 -0.1332  0.2730
 4720TIP3   OH238354   7.175   3.399  16.733 -0.1510 -0.3900  0.4104
 4720TIP3    H138355   7.121   3.446  16.670 -1.6585 -1.9209  0.4895
 4720TIP3    H238356   7.123   3.398  16.813  1.1377  0.3188  1.3045
 4721TIP3   OH238357   0.174   3.656  17.679 -0.0900 -0.1285 -0.5275
 4721TIP3    H138358   0.261   3.693  17.695  0.5655 -1.2195 -1.4181
 4721TIP3    H238359   0.113   3.727  17.699  1.0018  0.6519  0.1131
 4722TIP3   OH238360   4.043   3.790  17.983  0.4984 -0.1187 -0.1333
 4722TIP3    H138361   4.104   3.861  17.965  0.9330 -0.3615  0.3381
 4722TIP3    H238362   4.096   3.711  17.974 -0.3976 -0.5137 -2.4305
 4723TIP3   OH238363   5.117   6.677  19.264  0.1910 -0.4704  0.1395
 4723TIP3    H138364   5.047   6.714  19.319  0.4812 -0.7860  0.7360
 4723TIP3    H238365   5.072   6.614  19.208 -0.1473  0.0308 -0.1598
 4724TIP3   OH238366   4.178   1.255  17.994  0.5306 -0.3027 -0.4867
 4724TIP3    H138367   4.119   1.327  18.016 -1.4765 -1.4605 -1.7763
 4724TIP3    H238368   4.234   1.291  17.925 -1.3833 -0.3155 -2.1291
 4725TIP3   OH238369   7.615   1.268  19.263  0.5760 -0.4476  0.7089
 4725TIP3    H138370   7.701   1.302  19.237  1.1967 -2.0284  0.5775
 4725TIP3    H238371   7.631   1.219  19.344 -0.1107 -1.0795  0.4822
 4726TIP3   OH238372   7.082   2.797  17.614 -0.4150  0.3691  0.2333
 4726TIP3    H138373   7.164   2.789  17.663 -1.3782 -2.0663  1.6431
 4726TIP3    H238374   7.057   2.889  17.623  0.4172  0.4061  2.7663
 4727TIP3   OH238375   4.123   7.645  17.158 -0.1744  0.1235 -0.5770
 4727TIP3    H138376   4.058   7.607  17.099 -1.2903  1.1141 -0.0261
 4727TIP3    H238377   4.206   7.638  17.111 -1.3207  2.9974 -3.3735
 4728TIP3   OH238378   5.658   0.379  18.324  0.1733 -0.6588 -0.3286
 4728TIP3    H138379   5.678   0.468  18.353  0.0178 -1.1188  1.3027
 4728TIP3    H238380   5.632   0.388  18.233  0.4522  0.9295 -0.2691
 4729TIP3   OH238381   3.863   1.986  19.209  0.2825  0.5256 -0.4301
 4729TIP3    H138382   3.926   2.058  19.203  2.7384 -1.4047  0.6764
 4729TIP3    H238383   3.873   1.939  19.126  0.4612  0.0857 -0.1583
 4730TIP3   OH238384   0.360   6.265  17.546  0.5259  0.5151 -0.2236
 4730TIP3    H138385   0.426   6.333  17.534 -0.6014  1.4694 -1.3424
 4730TIP3    H238386   0.400   6.186  17.509  1.1709  1.0086 -0.5938
 4731TIP3   OH238387   5.304   1.011  18.948  0.0734 -0.7740 -0.0561
 4731TIP3    H138388   5.279   0.942  19.010  0.0965 -0.8179 -0.0949
 4731TIP3    H238389   5.245   0.998  18.874 -0.1110 -0.5767  0.0546
 4732TIP3   OH238390   5.604   7.443  18.531  0.5088 -0.0218  0.7631
 4732TIP3    H138391   5.624   7.461  18.439  0.0153 -1.4324  0.3587
 4732TIP3    H238392   5.597   7.530  18.571  2.9579  0.6096 -0.0049
 4733TIP3   OH238393   0.488   5.773  16.558 -0.2966 -0.6032  0.1912
 4733TIP3    H138394   0.529   5.767  16.472 -0.9245  1.0069 -0.2618
 4733TIP3    H238395   0.398   5.744  16.545 -0.0299 -1.6683  0.6250
 4734TIP3   OH238396   4.296   7.516  17.987 -0.4650 -0.0407  0.0460
 4734TIP3    H138397   4.311   7.449  18.054 -0.6087 -0.7036 -0.5680
 4734TIP3    H238398   4.383   7.548  17.964 -0.3515 -0.4103 -0.0409
 4735TIP3   OH238399   1.374   7.079  16.723  0.2680 -0.3608 -0.1779
 4735TIP3    H138400   1.390   7.173  16.727 -0.4500 -0.1879 -1.0651
 4735TIP3    H238401   1.343   7.064  16.633 -0.3281 -1.3277  0.1794
 4736TIP3   OH238402   2.360   3.865  17.127 -0.5966  0.1316 -0.1191
 4736TIP3    H138403   2.333   3.801  17.192 -1.6095  1.6433  1.0329
 4736TIP3    H238404   2.392   3.813  17.053 -1.6649 -1.6755  0.6264
 4737TIP3   OH238405   3.700   1.472  17.924  0.4348  0.1854 -0.3366
 4737TIP3    H138406   3.770   1.474  17.988 -0.4617  1.3974  0.6652
 4737TIP3    H238407   3.639   1.405  17.956  0.8864 -0.5218 -0.9415
 4738TIP3   OH238408   7.302   1.919  17.235 -1.0886  0.0453 -0.1746
 4738TIP3    H138409   7.212   1.953  17.231 -1.4424 -0.9433 -0.9715
 4738TIP3    H238410   7.293   1.825  17.222  0.3260  0.2677 -4.2179
 4739TIP3   OH238411   7.221   2.371  18.041 -0.2093  0.2410 -0.3987
 4739TIP3    H138412   7.231   2.396  18.133 -0.8595 -0.1573 -0.2136
 4739TIP3    H238413   7.128   2.348  18.032 -0.2738  0.8287 -1.2952
 4740TIP3   OH238414   2.230   6.233  18.805  0.0751  0.1585  0.0060
 4740TIP3    H138415   2.282   6.314  18.806  1.5317 -0.6879 -1.7461
 4740TIP3    H238416   2.229   6.205  18.896  0.6099  1.4898  0.4578
 4741TIP3   OH238417   6.620   5.796  19.080  0.0477  1.2856  0.2603
 4741TIP3    H138418   6.588   5.848  19.006 -1.8837  1.0963  0.9021
 4741TIP3    H238419   6.650   5.861  19.144 -0.1312  1.5171  0.1098
 4742TIP3   OH238420   3.892   1.236  18.322 -0.3056  0.1848  0.2136
 4742TIP3    H138421   3.872   1.297  18.252 -1.5103  0.1731  0.5207
 4742TIP3    H238422   3.811   1.186  18.334  0.0127 -0.0898  1.3237
 4743TIP3   OH238423   0.044   3.267  16.765 -0.2486 -0.3265 -0.4301
 4743TIP3    H138424   0.007   3.259  16.677  0.5211  2.2707 -1.0812
 4743TIP3    H238425   0.136   3.244  16.755  0.3642  2.0454 -0.8624
 4744TIP3   OH238426   2.729   6.325  18.014  0.3519 -0.5899  0.6501
 4744TIP3    H138427   2.727   6.416  17.983 -0.9764 -0.4489  1.0909
 4744TIP3    H238428   2.792   6.327  18.086 -0.9991  0.4188  1.8640
 4745TIP3   OH238429   1.575   0.779  17.337  0.0840  0.3069 -0.3848
 4745TIP3    H138430   1.545   0.803  17.249  0.2842  0.4961 -0.4043
 4745TIP3    H238431   1.604   0.688  17.329 -0.1407  0.2408 -0.4529
 4746TIP3   OH238432   6.085   3.970  17.681  0.2793 -0.1304 -0.1351
 4746TIP3    H138433   6.147   3.956  17.752  1.5592  2.2101 -0.6862
 4746TIP3    H238434   6.115   3.912  17.611  1.3536  0.3128 -0.0695
 4747TIP3   OH238435   3.896   7.204  17.510 -0.1672  0.1429 -0.4806
 4747TIP3    H138436   3.804   7.177  17.520 -0.5170  0.1821 -2.8677
 4747TIP3    H238437   3.903   7.286  17.559 -1.0499 -0.5117  0.7869
 4748TIP3   OH238438   4.586   0.447  19.543 -0.1004  0.0001  0.0253
 4748TIP3    H138439   4.538   0.400  19.611  0.9822 -1.3067 -0.0677
 4748TIP3    H238440   4.594   0.537  19.577 -0.2855 -0.4224  1.2373
 4749TIP3   OH238441   5.681   2.164  18.043  0.1134  0.5561 -0.4491
 4749TIP3    H138442   5.742   2.091  18.057  0.7635  1.3174  0.8609
 4749TIP3    H238443   5.712   2.233  18.102 -1.8167  1.0872  0.0095
 4750TIP3   OH238444   7.537   4.342  18.226 -0.0627 -0.5215  0.0364
 4750TIP3    H138445   7.499   4.333  18.314  0.8163  0.6970  0.5729
 4750TIP3    H238446   7.500   4.269  18.177 -3.4805  0.7737  0.3751
 4751TIP3   OH238447   1.027   1.343  18.873  0.4220  0.2108 -1.4736
 4751TIP3    H138448   0.975   1.378  18.801  2.1168  1.5355 -2.1345
 4751TIP3    H238449   1.109   1.314  18.832  0.1320 -2.1468 -0.5330
 4752TIP3   OH238450   6.549   4.539  18.961  0.1598  0.0456  0.0317
 4752TIP3    H138451   6.473   4.594  18.939  0.3529  0.4964  0.4613
 4752TIP3    H238452   6.523   4.451  18.936 -0.3000  0.2785 -0.3317
 4753TIP3   OH238453   0.563   2.830  19.391 -0.0758  0.1208 -0.1545
 4753TIP3    H138454   0.594   2.881  19.466 -2.5848  0.9740  0.4314
 4753TIP3    H238455   0.641   2.788  19.356  1.7381  2.4075  0.8551
 4754TIP3   OH238456   7.318   4.556  16.638 -0.2296  0.3173  0.2244
 4754TIP3    H138457   7.364   4.640  16.639  0.8358 -0.2047 -1.0022
 4754TIP3    H238458   7.382   4.493  16.670 -0.7278 -0.1500  0.3206
 4755TIP3   OH238459   3.825   4.989  18.862 -0.5577  0.4036 -0.1001
 4755TIP3    H138460   3.799   4.901  18.887 -0.7836  0.2253 -0.9366
 4755TIP3    H238461   3.743   5.034  18.841 -0.2711 -0.5769 -4.0971
 4756TIP3   OH238462   1.663   0.307  19.583  0.4342 -0.3066  0.8821
 4756TIP3    H138463   1.572   0.334  19.568  0.5403 -0.3538  0.0746
 4756TIP3    H238464   1.672   0.304  19.678 -0.0569  0.8978  0.9872
 4757TIP3   OH238465   3.261   3.830  17.940 -0.1930 -0.1888  0.5428
 4757TIP3    H138466   3.222   3.908  17.899 -0.6313  0.0800  1.4376
 4757TIP3    H238467   3.194   3.800  18.002  0.6415 -0.2899  1.4136
 4758TIP3   OH238468   5.056   5.072  17.499 -0.1905 -1.3501 -0.4669
 4758TIP3    H138469   5.121   5.080  17.568 -1.5864  0.1196  0.7400
 4758TIP3    H238470   4.980   5.032  17.541 -1.8125  1.4350 -0.5168
 4759TIP3   OH238471   6.743   7.383  18.299 -0.4416 -0.3088 -0.6271
 4759TIP3    H138472   6.794   7.433  18.236  0.8005 -0.5332  0.1513
 4759TIP3    H238473   6.726   7.299  18.256  0.4410 -0.4783 -0.6706
 4760TIP3   OH238474   1.470   6.022  16.913  0.2262  0.3304 -0.1522
 4760TIP3    H138475   1.550   6.012  16.964  0.5842  0.2550 -0.7306
 4760TIP3    H238476   1.479   6.106  16.868  0.9648 -0.6427 -1.9281
 4761TIP3   OH238477   4.801   0.020  18.279  0.1195  0.4896  0.2982
 4761TIP3    H138478   4.743  -0.015  18.346 -0.2965 -2.6531 -1.5105
 4761TIP3    H238479   4.862  -0.051  18.259  1.5797  2.0483 -1.1758
 4762TIP3   OH238480   5.082   5.506  17.838 -0.4867  0.4249 -0.0625
 4762TIP3    H138481   5.123   5.588  17.811 -2.8980  1.6927 -0.1670
 4762TIP3    H238482   5.003   5.533  17.884 -1.3245 -1.8601 -0.0443
 4763TIP3   OH238483   5.288   6.953  18.499 -0.1165  0.5602  0.2731
 4763TIP3    H138484   5.347   7.027  18.484 -1.6275  1.8053  0.3067
 4763TIP3    H238485   5.203   6.983  18.469 -1.4733  0.0167  3.2395
 4764TIP3   OH238486   7.134   5.060  17.367  0.1641 -0.2277 -0.0848
 4764TIP3    H138487   7.213   5.006  17.366 -0.2376 -0.8525  0.8025
 4764TIP3    H238488   7.062   4.998  17.376 -0.4374  0.3361 -0.8801
 4765TIP3   OH238489   3.219   0.331  19.077 -0.1280  0.2007  0.4939
 4765TIP3    H138490   3.275   0.404  19.103  0.2220  0.5770 -1.1558
 4765TIP3    H238491   3.140   0.373  19.043  0.0853 -0.1476 -0.4917
 4766TIP3   OH238492   4.518   5.188  17.926  0.2477  0.2859  0.7412
 4766TIP3    H138493   4.488   5.229  18.008 -2.6728  0.1919 -0.1631
 4766TIP3    H238494   4.542   5.099  17.952  1.5370  0.9146  1.8300
 4767TIP3   OH238495   2.445   6.423  17.895 -0.2343  0.1257 -0.4785
 4767TIP3    H138496   2.495   6.353  17.938  0.7277  0.2584 -1.3366
 4767TIP3    H238497   2.507   6.460  17.832 -0.0626  3.0232  1.2160
 4768TIP3   OH238498   4.804   5.883  18.406  0.0484  0.2740  0.2940
 4768TIP3    H138499   4.781   5.934  18.328  0.1678 -0.9765 -0.5898
 4768TIP3    H238500   4.857   5.943  18.459  2.0867  0.4420 -1.7514
 4769TIP3   OH238501   7.371   0.655  18.227 -0.0759  0.7867  0.3650
 4769TIP3    H138502   7.428   0.732  18.217  1.3487 -0.4263 -1.3838
 4769TIP3    H238503   7.427   0.588  18.264 -0.1571 -0.5773 -1.8237
 4770TIP3   OH238504   4.396   0.356  17.431  0.4179  0.5456  0.1092
 4770TIP3    H138505   4.419   0.402  17.350  2.7199  1.7247  1.3419
 4770TIP3    H238506   4.476   0.312  17.458 -1.1864 -2.7587  0.0292
 4771TIP3   OH238507   7.008   3.155  18.154 -0.5017  0.1499  0.2206
 4771TIP3    H138508   7.010   3.074  18.205  1.2084  0.8491  1.3497
 4771TIP3    H238509   7.011   3.125  18.063  0.1963 -1.0702  0.6121
 4772TIP3   OH238510   5.396   5.886  19.194 -0.0221 -0.2270 -0.4563
 4772TIP3    H138511   5.347   5.966  19.214  0.6118 -0.4110  2.1960
 4772TIP3    H238512   5.461   5.913  19.129 -0.2764  1.2259 -0.1405
 4773TIP3   OH238513   1.922   0.592  19.435  0.0874  0.3731  0.3450
 4773TIP3    H138514   2.004   0.573  19.389  0.5408 -0.1986  1.3428
 4773TIP3    H238515   1.927   0.539  19.515 -0.7654  1.1685  0.9488
 4774TIP3   OH238516   7.157   6.879  18.438 -1.0864  0.3988 -0.0713
 4774TIP3    H138517   7.119   6.945  18.380  0.3672  0.3157 -1.1722
 4774TIP3    H238518   7.250   6.879  18.417 -0.8991 -1.3602  0.5656
 4775TIP3   OH238519   5.502   2.003  17.448  0.2567  0.5676  0.3937
 4775TIP3    H138520   5.426   1.990  17.392 -0.0510  0.5201  0.8171
 4775TIP3    H238521   5.538   2.088  17.421 -1.0316  1.4775  1.4256
 4776TIP3   OH238522   6.529   5.372  19.254  0.3810  0.2994  0.2981
 4776TIP3    H138523   6.594   5.323  19.203 -1.1284  1.6432 -3.1499
 4776TIP3    H238524   6.564   5.461  19.259 -0.0062  0.4334  0.7263
 4777TIP3   OH238525   5.419   5.125  18.573  0.2667  0.2031  0.3139
 4777TIP3    H138526   5.402   5.167  18.489  1.2184 -0.3952 -0.2009
 4777TIP3    H238527   5.356   5.053  18.578  1.4883 -1.0008 -0.8309
 4778TIP3   OH238528   3.768   3.484  16.980 -0.3868  0.5201  0.1010
 4778TIP3    H138529   3.824   3.409  16.962 -0.1116  0.8167 -0.2929
 4778TIP3    H238530   3.721   3.498  16.898  0.8616  1.8771 -0.4211
 4779TIP3   OH238531   0.418   6.078  17.351  0.4449  0.1431  0.2513
 4779TIP3    H138532   0.479   6.039  17.288  0.8087  0.6769  0.2623
 4779TIP3    H238533   0.335   6.085  17.304  0.5988  0.1276 -0.0244
 4780TIP3   OH238534   5.270   3.807  17.825 -0.2873 -0.4732  0.3572
 4780TIP3    H138535   5.261   3.877  17.890  1.1878 -0.1872  0.2927
 4780TIP3    H238536   5.283   3.727  17.877 -1.1863 -0.5862  0.4221
 4781TIP3   OH238537   7.278   2.912  17.830  0.3603  0.3936  0.2759
 4781TIP3    H138538   7.248   3.002  17.843 -0.6374  0.2856 -1.0118
 4781TIP3    H238539   7.253   2.866  17.910 -0.6241  0.9010  0.2743
 4782TIP3   OH238540   0.436   0.437  19.381 -0.5621  0.2541 -0.3062
 4782TIP3    H138541   0.445   0.420  19.287 -2.1973 -1.7133 -0.1817
 4782TIP3    H238542   0.440   0.350  19.421 -1.7653  0.8892  1.2676
 4783TIP3   OH238543   4.623   4.639  19.384  0.5168  0.5891 -0.3657
 4783TIP3    H138544   4.577   4.657  19.465 -2.1309 -1.5125 -1.2865
 4783TIP3    H238545   4.609   4.718  19.330 -0.5777  0.6493 -0.0023
 4784TIP3   OH238546   6.553   0.370  18.868  0.4177  0.6755 -0.0077
 4784TIP3    H138547   6.470   0.327  18.891 -1.0150  2.6269 -1.2020
 4784TIP3    H238548   6.554   0.449  18.922  0.9724  1.1900 -0.7585
 4785TIP3   OH238549   5.574   7.006  16.969 -0.0653  0.5690 -0.4967
 4785TIP3    H138550   5.542   6.960  16.891  2.3331 -0.6368 -0.8552
 4785TIP3    H238551   5.645   6.952  17.002  0.5182  2.2391  1.1920
 4786TIP3   OH238552   0.042   2.443  17.910  0.1125  0.0695  0.0517
 4786TIP3    H138553  -0.013   2.442  17.988  0.6194 -0.2157  0.4163
 4786TIP3    H238554   0.011   2.370  17.856 -1.1183  1.0810 -0.6547
 4787TIP3   OH238555   6.014   2.101  18.530  0.2328 -0.2936 -0.0041
 4787TIP3    H138556   6.043   2.019  18.489  1.6626 -0.3584  1.0547
 4787TIP3    H238557   6.089   2.129  18.582 -0.5571  1.2337  0.3634
 4788TIP3   OH238558   3.622   3.199  17.913 -0.3108  0.5241 -0.7229
 4788TIP3    H138559   3.663   3.265  17.969  3.4744 -1.0716 -1.3340
 4788TIP3    H238560   3.559   3.154  17.970  1.1068  1.0334  1.3175
 4789TIP3   OH238561   7.433   0.174  19.057  0.1978 -0.3277  0.8680
 4789TIP3    H138562   7.363   0.114  19.033 -0.1947  1.0173 -1.7527
 4789TIP3    H238563   7.389   0.246  19.101 -0.0757  0.3502 -0.4644
 4790TIP3   OH238564   1.938   2.966  18.888 -0.3169  0.1307 -0.6017
 4790TIP3    H138565   1.965   3.023  18.960  0.8352  0.0796 -0.9764
 4790TIP3    H238566   1.898   3.025  18.824 -1.3618  0.1751  0.0664
 4791TIP3   OH238567   5.149   0.679  17.751 -0.2815  0.6264 -0.1282
 4791TIP3    H138568   5.093   0.602  17.743  0.9690 -0.2631 -0.7323
 4791TIP3    H238569   5.110   0.743  17.692  0.4800 -0.7331 -2.2455
 4792TIP3   OH238570   7.603   4.604  17.023  0.2300  0.1865  0.3066
 4792TIP3    H138571   7.509   4.592  17.033  0.0789 -0.1853 -1.4101
 4792TIP3    H238572   7.642   4.524  17.058 -0.1160  0.0603  0.4020
 4793TIP3   OH238573   2.823   0.211  16.400 -0.3111 -0.2841 -0.4282
 4793TIP3    H138574   2.743   0.221  16.451 -0.9310 -0.6911 -1.3024
 4793TIP3    H238575   2.828   0.291  16.347 -3.1376 -2.4212 -4.4452
 4794TIP3   OH238576   1.313   6.209  16.740 -0.4277 -0.2244 -0.0538
 4794TIP3    H138577   1.265   6.128  16.722  0.2248 -0.7932  0.7254
 4794TIP3    H238578   1.269   6.246  16.816 -1.2376  0.5963 -0.8902
 4795TIP3   OH238579   6.693   4.279  17.161  0.1962 -0.3346  0.0793
 4795TIP3    H138580   6.713   4.192  17.127 -0.1389  0.3121 -1.9270
 4795TIP3    H238581   6.678   4.266  17.254 -1.1110 -2.6425 -0.3684
 4796TIP3   OH238582   3.458   5.300  19.553  0.1201  0.0564  0.3979
 4796TIP3    H138583   3.384   5.361  19.555  0.5182  0.6560 -1.1542
 4796TIP3    H238584   3.531   5.349  19.593  0.5615  0.8298 -1.2696
 4797TIP3   OH238585   2.050   4.667  18.382  0.1203 -0.2771  0.1855
 4797TIP3    H138586   2.079   4.603  18.318  2.7322  1.2375 -0.3138
 4797TIP3    H238587   2.114   4.661  18.453 -2.4866 -1.6705  2.6500
 4798TIP3   OH238588   1.279   4.888  18.315 -0.2397  0.1955 -1.0594
 4798TIP3    H138589   1.261   4.832  18.391  1.8489  1.2406  0.3046
 4798TIP3    H238590   1.233   4.969  18.333 -0.1550  0.2643 -1.1507
 4799TIP3   OH238591   6.941   0.661  18.984 -0.4302  0.3187  0.1933
 4799TIP3    H138592   6.895   0.642  19.066 -3.0204  0.8080 -1.0280
 4799TIP3    H238593   6.900   0.603  18.920 -0.4307  1.8740 -1.2864
 4800TIP3   OH238594   7.164   4.306  17.895  1.1339 -0.1945 -0.1826
 4800TIP3    H138595   7.104   4.380  17.894 -0.4347 -1.4296 -1.2530
 4800TIP3    H238596   7.230   4.328  17.829  1.2040  0.6276  0.1424
 4801TIP3   OH238597   0.078   7.189  18.207  0.1738  0.5204 -0.1295
 4801TIP3    H138598   0.056   7.268  18.158  0.6909 -0.0311 -1.2933
 4801TIP3    H238599  -0.006   7.152  18.234 -0.0614  1.5486  0.5770
 4802TIP3   OH238600   6.434   1.168  18.084 -0.1362 -0.1758 -0.4694
 4802TIP3    H138601   6.488   1.227  18.136  0.7404  0.5876 -2.1655
 4802TIP3    H238602   6.493   1.096  18.060 -0.7255 -0.8860  0.1376
 4803TIP3   OH238603   0.561   0.950  19.061  0.0783 -0.1975  0.3067
 4803TIP3    H138604   0.642   0.922  19.017 -0.0513 -0.3097  0.1371
 4803TIP3    H238605   0.493   0.935  18.996 -0.3339 -1.8280  1.0624
 4804TIP3   OH238606   2.793   4.831  17.312  0.7788 -0.3676  0.0888
 4804TIP3    H138607   2.733   4.760  17.335  0.7984 -0.3973  0.0497
 4804TIP3    H238608   2.742   4.889  17.256 -0.1319  1.1480  2.3618
 4805TIP3   OH238609   2.141   6.806  19.288  0.0396 -0.3836  0.1442
 4805TIP3    H138610   2.213   6.856  19.327  0.0304 -0.8967  0.8390
 4805TIP3    H238611   2.176   6.718  19.277 -0.9317 -1.0663  1.9664
 4806TIP3   OH238612   3.709   7.473  17.095 -0.0333  0.0837 -0.1312
 4806TIP3    H138613   3.796   7.484  17.057 -0.6423  1.1073 -1.3365
 4806TIP3    H238614   3.725   7.448  17.186  1.5002 -1.1119 -0.6842
 4807TIP3   OH238615   0.269   2.981  18.134 -0.1290 -0.2465 -0.3473
 4807TIP3    H138616   0.282   2.892  18.167  1.2966 -0.3645 -1.1475
 4807TIP3    H238617   0.232   2.970  18.047  2.2108 -0.1997 -1.4306
 4808TIP3   OH238618   1.443   1.477  19.220 -0.0286 -0.0646  0.8801
 4808TIP3    H138619   1.494   1.541  19.170  1.0638 -0.7146  1.1254
 4808TIP3    H238620   1.396   1.426  19.153  0.9201 -0.5074  0.5250
 4809TIP3   OH238621   3.637   4.476  18.889 -0.2714 -0.0340 -0.5903
 4809TIP3    H138622   3.629   4.407  18.823 -2.3300  0.1917 -0.6341
 4809TIP3    H238623   3.670   4.552  18.841  0.1271 -0.4161 -0.9354
 4810TIP3   OH238624   4.681   6.742  19.639  0.2254 -0.1710  0.1077
 4810TIP3    H138625   4.689   6.827  19.596 -0.2223 -0.0169  0.3181
 4810TIP3    H238626   4.593   6.712  19.617  0.0699 -0.1892  0.7204
 4811TIP3   OH238627   4.643   0.219  17.465  0.2309  0.1750  0.1324
 4811TIP3    H138628   4.646   0.145  17.525  0.2170  0.5705  0.6314
 4811TIP3    H238629   4.712   0.202  17.402  0.8391  0.1881  0.7781
 4812TIP3   OH238630   4.752   4.185  17.592 -0.1135  0.5155  0.3281
 4812TIP3    H138631   4.820   4.196  17.658  0.3195 -0.1339 -0.0032
 4812TIP3    H238632   4.731   4.274  17.564 -1.1703  0.9063  2.1850
 4813TIP3   OH238633   3.837   6.141  17.873 -0.4320 -0.4484 -0.0267
 4813TIP3    H138634   3.758   6.185  17.841 -0.0709 -0.2973 -0.7352
 4813TIP3    H238635   3.855   6.073  17.808  0.7808  0.3982 -0.6061
 4814TIP3   OH238636   4.190   7.264  18.682  0.1789 -0.3640  0.2568
 4814TIP3    H138637   4.216   7.220  18.763 -1.0781  1.0687  1.4751
 4814TIP3    H238638   4.095   7.271  18.687  0.1407  0.3356 -1.0436
 4815TIP3   OH238639   1.506   3.987  19.044  0.3756  0.6785  0.4533
 4815TIP3    H138640   1.486   3.894  19.054  0.4902  0.6060  0.0341
 4815TIP3    H238641   1.454   4.015  18.969 -0.2103  1.1253  1.0227
 4816TIP3   OH238642   3.890   2.684  18.061  0.2642  0.7839 -0.0883
 4816TIP3    H138643   3.980   2.663  18.036  0.7435 -1.8507  3.1049
 4816TIP3    H238644   3.899   2.738  18.139 -0.9177  0.4752  0.2805
 4817TIP3   OH238645   6.697   7.088  18.473 -0.0677  0.0565  0.0751
 4817TIP3    H138646   6.746   7.117  18.396  0.2647  0.7489  0.5265
 4817TIP3    H238647   6.726   6.998  18.488  1.4905  0.6021  0.6253
 4818TIP3   OH238648   7.155   0.449  18.355 -0.2922  0.1748 -0.2379
 4818TIP3    H138649   7.199   0.534  18.351 -1.4111  0.8412  0.7201
 4818TIP3    H238650   7.130   0.440  18.447  1.6354 -2.1938  0.1389
 4819TIP3   OH238651   0.030   6.965  17.636  0.1501 -0.0915 -0.3134
 4819TIP3    H138652  -0.047   6.913  17.658  0.6855 -1.3520 -1.3023
 4819TIP3    H238653   0.086   6.960  17.713 -0.3551  0.0861  0.0704
 4820TIP3   OH238654   1.191   4.475  16.812  0.0807 -0.4868  0.3307
 4820TIP3    H138655   1.218   4.447  16.724 -1.4188 -0.1405 -0.2755
 4820TIP3    H238656   1.267   4.458  16.867  1.3459  0.0044 -1.1750
 4821TIP3   OH238657   4.362   3.157  18.761  0.0604 -0.2564 -0.1722
 4821TIP3    H138658   4.305   3.087  18.730  0.9149 -1.0157 -0.0431
 4821TIP3    H238659   4.368   3.218  18.688 -0.3895 -0.5005 -0.4114
 4822TIP3   OH238660   1.460   5.885  18.306 -0.6520  0.0957  0.1609
 4822TIP3    H138661   1.501   5.813  18.354 -0.9582  0.6706  1.3220
 4822TIP3    H238662   1.366   5.866  18.311 -0.7149  0.4100  0.2180
 4823TIP3   OH238663   0.745   5.317  16.463 -0.5308  0.6128 -0.4401
 4823TIP3    H138664   0.784   5.330  16.377  1.0851 -0.1519  0.1393
 4823TIP3    H238665   0.815   5.278  16.516 -1.9262 -0.2978  0.8181
 4824TIP3   OH238666   0.128   0.767  18.868  0.0697  0.1166  0.0146
 4824TIP3    H138667   0.148   0.749  18.960 -1.0839  1.5063  0.5668
 4824TIP3    H238668   0.059   0.833  18.871 -3.4869 -3.1510 -1.7367
 4825TIP3   OH238669   4.837   0.007  17.822 -0.1648 -0.6738  0.2044
 4825TIP3    H138670   4.815  -0.083  17.848 -1.3215  0.2873  2.9196
 4825TIP3    H238671   4.785   0.022  17.744  0.6840 -2.5971 -0.8145
 4826TIP3   OH238672   4.398   1.879  18.695  0.3149  0.0725 -0.5135
 4826TIP3    H138673   4.448   1.824  18.635 -0.8882 -2.0725  0.3675
 4826TIP3    H238674   4.321   1.906  18.644  1.3978  1.9588 -1.2949
 4827TIP3   OH238675   7.358   3.351  16.998 -0.1890 -0.4435  0.0512
 4827TIP3    H138676   7.282   3.309  17.037 -0.9192 -1.6302 -2.4413
 4827TIP3    H238677   7.329   3.439  16.977 -0.7123 -0.7113 -0.3766
 4828TIP3   OH238678   3.807   0.843  19.366 -0.2508  0.2253  0.3733
 4828TIP3    H138679   3.871   0.861  19.297 -0.6762 -0.4182 -0.2088
 4828TIP3    H238680   3.771   0.929  19.389 -0.6688  0.3794 -0.7824
 4829TIP3   OH238681   5.894   5.130  18.929  0.0660  0.4136  0.1399
 4829TIP3    H138682   5.954   5.148  18.856 -3.1389  2.5289 -2.2315
 4829TIP3    H238683   5.929   5.183  19.001  1.3274  1.2063 -0.9922
 4830TIP3   OH238684   2.369   4.217  17.368 -0.1973 -0.1415 -0.5728
 4830TIP3    H138685   2.322   4.294  17.335  0.5826  1.0422  0.9607
 4830TIP3    H238686   2.302   4.149  17.377 -1.4296  1.1675  0.5346
 4831TIP3   OH238687   6.686   6.404  16.584 -0.0861  0.1927 -0.4772
 4831TIP3    H138688   6.728   6.386  16.500  1.1368 -2.4681  0.5643
 4831TIP3    H238689   6.619   6.336  16.592 -0.8401  1.0114  0.2705
 4832TIP3   OH238690   7.604   2.428  17.110 -0.1887  0.1265 -0.4634
 4832TIP3    H138691   7.584   2.449  17.019 -2.7660 -0.1304 -0.0251
 4832TIP3    H238692   7.594   2.510  17.157 -1.7887 -0.3071 -0.0055
 4833TIP3   OH238693   4.396   3.987  18.868 -0.0486 -0.2787  0.4857
 4833TIP3    H138694   4.345   4.030  18.800 -0.8423  1.1233  1.9070
 4833TIP3    H238695   4.375   3.894  18.858  0.0838 -0.1410 -1.3363
 4834TIP3   OH238696   2.870   5.518  17.243  0.3546 -0.3344  0.2013
 4834TIP3    H138697   2.925   5.538  17.318 -0.0869 -0.5184  0.5752
 4834TIP3    H238698   2.931   5.485  17.177  0.6657 -0.7043  0.6724
 4835TIP3   OH238699   4.031   0.286  19.578 -0.2409 -0.1034  0.4562
 4835TIP3    H138700   3.985   0.256  19.500  0.1331 -0.1971  0.2701
 4835TIP3    H238701   3.967   0.276  19.649 -1.0838  1.3089 -0.0417
 4836TIP3   OH238702   4.424   5.465  17.200 -0.0403  0.4148 -0.2967
 4836TIP3    H138703   4.430   5.391  17.141  2.2646 -0.1339  0.5374
 4836TIP3    H238704   4.445   5.430  17.287 -1.1009  1.6259  0.4995
 4837TIP3   OH238705   3.622   6.023  19.169  0.3667  0.1976 -0.1115
 4837TIP3    H138706   3.705   6.012  19.122  0.7962 -0.3258  0.7481
 4837TIP3    H238707   3.641   6.087  19.238 -0.1859  0.7484 -0.4589
 4838TIP3   OH238708   6.458   1.860  18.950 -0.0038  0.1406 -0.1141
 4838TIP3    H138709   6.492   1.779  18.911  1.2828  1.0652 -0.9866
 4838TIP3    H238710   6.467   1.925  18.881  0.3814  1.3685  1.0625
 4839TIP3   OH238711   6.269   7.607  19.306  0.0853  0.3296 -0.1874
 4839TIP3    H138712   6.178   7.603  19.276  0.2548  1.3758 -0.8893
 4839TIP3    H238713   6.297   7.516  19.310 -1.4046 -0.1044  1.3901
 4840TIP3   OH238714   4.371   5.203  17.682 -0.6152  0.0126  0.1710
 4840TIP3    H138715   4.397   5.197  17.775  0.2233  0.0630 -0.0504
 4840TIP3    H238716   4.336   5.116  17.662 -0.4772 -0.1101  0.4438
 4841TIP3   OH238717   7.644   2.366  17.439 -0.1518 -0.3433 -0.0810
 4841TIP3    H138718   7.677   2.399  17.355 -0.1107 -0.8628 -0.2712
 4841TIP3    H238719   7.549   2.359  17.426 -0.2739  0.5379  0.2543
 4842TIP3   OH238720   2.406   5.528  17.754 -0.2471 -0.1314 -0.0993
 4842TIP3    H138721   2.398   5.465  17.683 -0.0257 -0.0122 -0.2301
 4842TIP3    H238722   2.498   5.555  17.752 -0.1599 -0.3746  0.4410
 4843TIP3   OH238723   0.904   2.668  17.228 -0.4654  0.0802 -0.1314
 4843TIP3    H138724   0.863   2.700  17.308  0.0223  1.6773 -0.4776
 4843TIP3    H238725   0.834   2.623  17.180 -1.2129  0.7179  0.3516
 4844TIP3   OH238726   6.614   0.077  18.914  0.4310 -0.3909  0.1591
 4844TIP3    H138727   6.525   0.083  18.881  0.2829  2.1650  0.7956
 4844TIP3    H238728   6.669   0.080  18.836 -0.0054 -2.0268 -0.2389
 4845TIP3   OH238729   6.218   5.994  17.528  0.1634  0.1282  0.2379
 4845TIP3    H138730   6.237   6.062  17.464 -0.7268 -0.5520 -0.7826
 4845TIP3    H238731   6.123   5.996  17.539  0.2382 -0.1948  1.0609
 4846TIP3   OH238732   6.780   5.582  17.648  0.4340 -0.4348  0.3199
 4846TIP3    H138733   6.810   5.562  17.736  1.5643  1.1481  0.3420
 4846TIP3    H238734   6.692   5.616  17.660 -0.3314 -2.3844  0.5626
 4847TIP3   OH238735   3.797   6.116  18.405 -0.4550 -0.4559 -0.3193
 4847TIP3    H138736   3.703   6.100  18.406 -1.2479  3.2815 -0.0749
 4847TIP3    H238737   3.816   6.142  18.315 -0.1143  0.8514  0.1162
 4848TIP3   OH238738   5.789   0.533  17.128 -0.4728 -0.3556  0.5975
 4848TIP3    H138739   5.776   0.542  17.034 -1.0085  0.4713  0.7362
 4848TIP3    H238740   5.726   0.594  17.167  0.3698 -0.0063  1.4578
 4849TIP3   OH238741   4.408   6.064  16.952 -0.5418 -0.3830 -0.2462
 4849TIP3    H138742   4.450   6.120  17.016 -3.0551  0.2751  0.9387
 4849TIP3    H238743   4.444   6.092  16.868  1.0442  0.3625  0.6438
 4850TIP3   OH238744   5.777   5.572  18.979 -0.4064 -0.0191  0.4606
 4850TIP3    H138745   5.804   5.650  19.028 -2.3618  0.9619  0.0946
 4850TIP3    H238746   5.854   5.516  18.978  0.2458  0.6820  3.1726
 4851TIP3   OH238747   4.879   2.610  17.626  0.6623 -0.4127  0.2281
 4851TIP3    H138748   4.877   2.532  17.571  0.8712  0.7390 -1.4900
 4851TIP3    H238749   4.841   2.581  17.709  0.3880 -2.2352 -0.4735
 4852TIP3   OH238750   6.033   7.109  17.975  0.3540 -0.2277 -0.3288
 4852TIP3    H138751   6.068   7.028  18.012 -0.8640 -0.3853  0.5066
 4852TIP3    H238752   6.110   7.152  17.937  1.1006 -1.5443 -0.3935
 4853TIP3   OH238753   5.922   5.475  17.679 -0.1125 -0.0141  0.2401
 4853TIP3    H138754   6.014   5.474  17.654 -0.0672  0.1715  0.3942
 4853TIP3    H238755   5.875   5.455  17.599  0.1603 -2.6117  0.6333
 4854TIP3   OH238756   6.703   3.428  18.889  0.6872 -0.1774  0.2843
 4854TIP3    H138757   6.613   3.399  18.903  0.4096  0.4738 -0.0743
 4854TIP3    H238758   6.740   3.364  18.828 -0.1037  0.5182 -0.9771
 4855TIP3   OH238759   6.802   0.480  17.834  0.0156 -0.0788 -0.1214
 4855TIP3    H138760   6.824   0.562  17.879 -0.5977 -0.1885  0.3985
 4855TIP3    H238761   6.870   0.419  17.860  0.2544  0.1562 -0.1935
 4856TIP3   OH238762   5.801   0.305  19.249  0.3745  0.8056 -0.1430
 4856TIP3    H138763   5.854   0.230  19.221  1.4702  0.9996  1.2572
 4856TIP3    H238764   5.858   0.353  19.309 -1.2889  1.2053  1.2045
 4857TIP3   OH238765   1.334   0.170  16.711 -0.2617 -0.0390  0.4559
 4857TIP3    H138766   1.414   0.157  16.661 -1.5054  0.6188 -1.8213
 4857TIP3    H238767   1.312   0.082  16.744  0.8945 -0.3765  0.3666
 4858TIP3   OH238768   2.476   2.111  19.103  0.2741  0.4055 -0.4182
 4858TIP3    H138769   2.491   2.031  19.155  1.9086  0.2635 -1.0586
 4858TIP3    H238770   2.437   2.079  19.021 -0.3513  0.4224 -0.1359
 4859TIP3   OH238771   4.248   2.938  18.419  0.1918  0.2180  0.0445
 4859TIP3    H138772   4.305   2.989  18.362  1.9348 -0.0595  1.4700
 4859TIP3    H238773   4.180   2.903  18.361 -0.2529  2.9624 -1.1973
 4860TIP3   OH238774   6.910   6.505  18.753 -0.1346 -0.0712  0.2141
 4860TIP3    H138775   6.903   6.583  18.698  1.0076 -0.0885  0.0242
 4860TIP3    H238776   6.898   6.538  18.842 -1.2308  0.0733  0.0221
 4861TIP3   OH238777   6.043   7.046  18.375  0.0512 -0.4055 -0.1515
 4861TIP3    H138778   5.970   7.055  18.314  0.2229 -2.6967 -0.8182
 4861TIP3    H238779   6.068   7.135  18.397 -2.1422  0.4513 -0.8651
 4862TIP3   OH238780   0.034   5.318  17.482  0.3147 -0.1169  0.0920
 4862TIP3    H138781   0.106   5.257  17.464 -0.3502 -0.6049 -1.0534
 4862TIP3    H238782   0.059   5.361  17.564  2.1217  0.0389 -0.4820
 4863TIP3   OH238783   0.645   6.249  17.083 -0.5388 -0.0880 -0.7285
 4863TIP3    H138784   0.594   6.182  17.039  0.6320 -0.5578 -1.4256
 4863TIP3    H238785   0.665   6.212  17.169  0.1918 -0.7085 -1.1481
 4864TIP3   OH238786   2.984   4.777  18.434 -0.1565  0.3985 -0.3303
 4864TIP3    H138787   2.963   4.870  18.447 -0.1323  0.2124  1.1282
 4864TIP3    H238788   3.014   4.747  18.519  1.7915 -0.4695 -1.2605
 4865TIP3   OH238789   0.306   1.241  18.812 -0.3298  0.4940  0.0417
 4865TIP3    H138790   0.377   1.304  18.818 -1.0326  1.4736 -1.2281
 4865TIP3    H238791   0.243   1.270  18.878  0.7181 -0.8015  1.6681
 4866TIP3   OH238792   4.782   6.390  16.892 -0.1013  0.1491 -0.3235
 4866TIP3    H138793   4.789   6.298  16.868  1.1492 -0.0062  0.5364
 4866TIP3    H238794   4.872   6.422  16.890  0.1374  0.2380  3.4961
 4867TIP3   OH238795   1.185   7.285  18.215 -0.4453 -0.3890  0.0108
 4867TIP3    H138796   1.091   7.282  18.228 -0.2370  0.4258  2.0947
 4867TIP3    H238797   1.208   7.197  18.187 -1.6906 -0.9572  0.6837
 4868TIP3   OH238798   7.655   2.676  19.006  0.1826  0.0460  0.0473
 4868TIP3    H138799   7.594   2.633  18.947 -0.7665  0.3085  0.8098
 4868TIP3    H238800   7.613   2.759  19.028  1.0709  0.4829  0.1608
 4869TIP3   OH238801   2.386   5.269  19.057  0.2807 -0.1093  0.1131
 4869TIP3    H138802   2.365   5.298  19.146 -0.0919  0.6707 -0.2229
 4869TIP3    H238803   2.387   5.349  19.005 -1.0240 -0.6994 -0.8796
 4870TIP3   OH238804   5.214   4.448  17.732  0.5275 -0.2269  0.8482
 4870TIP3    H138805   5.149   4.467  17.800  0.9409 -0.2608  1.2519
 4870TIP3    H238806   5.164   4.400  17.665 -0.3834  1.6296  0.1201
 4871TIP3   OH238807   6.789   1.581  16.923  0.2882  0.4285  0.8113
 4871TIP3    H138808   6.813   1.595  16.831 -0.1835  1.3761  0.8232
 4871TIP3    H238809   6.861   1.528  16.958 -0.9466 -2.5498 -0.8215
 4872TIP3   OH238810   6.953   0.232  17.904  0.1926  0.0066  0.0717
 4872TIP3    H138811   6.887   0.163  17.915  0.5809 -0.0857  2.4694
 4872TIP3    H238812   7.035   0.189  17.927  0.4630  1.1868  1.4156
 4873TIP3   OH238813   0.849   5.436  16.841 -0.4128  0.2840  0.4612
 4873TIP3    H138814   0.890   5.436  16.928  2.5583 -1.3563 -0.7942
 4873TIP3    H238815   0.824   5.345  16.826  0.4612  0.2536 -0.9413
 4874TIP3   OH238816   4.510   6.229  17.441  0.0079  0.1462 -0.9805
 4874TIP3    H138817   4.515   6.324  17.433  1.2475  0.1012 -0.9161
 4874TIP3    H238818   4.439   6.214  17.503  1.8075  1.1902  1.5173
 4875TIP3   OH238819   5.073   3.348  19.548 -0.4329 -0.1615  0.4141
 4875TIP3    H138820   5.078   3.439  19.518 -1.6172 -0.3185 -0.3349
 4875TIP3    H238821   4.991   3.344  19.598  0.1114 -0.5943  1.3011
 4876TIP3   OH238822   1.909   5.722  18.430 -0.0226  0.4417  0.0978
 4876TIP3    H138823   1.940   5.741  18.341 -1.2765  0.5927 -0.3193
 4876TIP3    H238824   1.854   5.796  18.453  0.3742  0.4590  1.0618
 4877TIP3   OH238825   3.993   4.492  18.785 -0.2614 -0.9751 -0.2290
 4877TIP3    H138826   4.058   4.542  18.835 -1.2011 -1.1748  1.2593
 4877TIP3    H238827   4.040   4.414  18.755  0.3263 -0.8581  0.3710
 4878TIP3   OH238828   4.910   1.377  17.915  0.7678  0.2586  0.3653
 4878TIP3    H138829   5.003   1.367  17.937  1.3645  2.8030 -0.6276
 4878TIP3    H238830   4.869   1.408  17.996  1.2923  1.4204  0.2088
 4879TIP3   OH238831   1.926   3.881  16.783  0.1928  0.2607  0.4001
 4879TIP3    H138832   1.981   3.824  16.731 -0.2416  0.8212 -0.7064
 4879TIP3    H238833   1.968   3.967  16.778 -0.3881  0.5409  0.1050
 4880TIP3   OH238834   6.517   5.777  18.377  0.0083  0.4328 -0.9351
 4880TIP3    H138835   6.529   5.810  18.466 -1.1613 -1.1471 -0.1366
 4880TIP3    H238836   6.474   5.848  18.331 -0.2973  0.9070  0.0481
 4881TIP3   OH238837   7.673   2.657  17.203 -0.0006 -0.1298 -0.6383
 4881TIP3    H138838   7.740   2.691  17.262  1.1553 -0.7859 -1.5403
 4881TIP3    H238839   7.661   2.726  17.137 -1.4929  0.7247  0.4421
 4882TIP3   OH238840   5.548   2.900  19.436 -0.1038 -0.3519 -0.3672
 4882TIP3    H138841   5.561   2.982  19.484 -0.9982 -1.0494  1.1786
 4882TIP3    H238842   5.635   2.860  19.431 -0.0321 -0.4413  1.0995
 4883TIP3   OH238843   1.141   0.954  19.441 -0.6438  0.2169 -0.5049
 4883TIP3    H138844   1.062   0.994  19.477 -0.2803 -0.8653  1.5851
 4883TIP3    H238845   1.192   1.029  19.409 -1.7888  1.0520 -0.4656
 4884TIP3   OH238846   4.747   4.609  18.887 -0.8470 -0.5387 -0.9105
 4884TIP3    H138847   4.805   4.684  18.897 -0.0006 -1.0651 -1.6504
 4884TIP3    H238848   4.674   4.626  18.946  0.7348 -0.5063  1.1620
 4885TIP3   OH238849   0.066   7.349  19.373  0.0135  0.4875  0.2866
 4885TIP3    H138850   0.024   7.377  19.454 -0.5479 -0.5114  0.3579
 4885TIP3    H238851   0.017   7.394  19.304 -1.9173 -1.4555  0.3045
 4886TIP3   OH238852   6.092   3.534  18.475  0.9872 -0.2384 -0.5641
 4886TIP3    H138853   6.093   3.468  18.544  2.3927 -0.4545 -0.7502
 4886TIP3    H238854   6.050   3.610  18.516 -0.2894 -1.0907 -0.2263
 4887TIP3   OH238855   2.357   6.658  16.903 -0.1112  0.2851 -0.3001
 4887TIP3    H138856   2.274   6.612  16.891 -0.6394  1.3535 -0.7884
 4887TIP3    H238857   2.374   6.700  16.819  0.5751  0.6483  0.0105
 4888TIP3   OH238858   7.334   4.535  17.081 -0.1230  0.2529 -0.3223
 4888TIP3    H138859   7.321   4.462  17.019  0.3966  0.0586 -0.2065
 4888TIP3    H238860   7.274   4.515  17.153 -0.8354  0.5521 -0.8128
 4889TIP3   OH238861   5.347   2.426  17.922  0.1565  0.0099 -0.4058
 4889TIP3    H138862   5.400   2.506  17.926  0.8971 -0.4984 -0.0059
 4889TIP3    H238863   5.267   2.448  17.970 -0.5739  1.1909 -2.0469
 4890TIP3   OH238864   0.867   2.060  18.758  0.1235  0.0803  0.6542
 4890TIP3    H138865   0.784   2.038  18.716  1.0670 -2.1951 -0.1339
 4890TIP3    H238866   0.847   2.138  18.810 -2.4613 -0.3237  0.3927
 4891TIP3   OH238867   0.158   7.095  18.920  0.0499  0.5727  0.0698
 4891TIP3    H138868   0.145   7.183  18.954  0.0663  0.5653  0.0953
 4891TIP3    H238869   0.216   7.053  18.983 -0.5817  0.2949  0.4800
 4892TIP3   OH238870   3.292   4.073  19.432  0.0172  1.0268  0.1399
 4892TIP3    H138871   3.234   4.130  19.483 -0.2404  1.5394 -0.7132
 4892TIP3    H238872   3.355   4.133  19.392  0.0200  0.6631 -0.4085
 4893TIP3   OH238873   2.458   1.410  18.945 -0.0989  0.5989  0.5506
 4893TIP3    H138874   2.492   1.416  19.034  0.2819 -1.0675  0.5452
 4893TIP3    H238875   2.440   1.317  18.932  0.4567  0.7139 -1.3327
 4894TIP3   OH238876   0.477   2.365  19.354 -0.1592  0.1077 -0.2714
 4894TIP3    H138877   0.381   2.358  19.360 -0.1783 -0.5298 -1.1338
 4894TIP3    H238878   0.496   2.354  19.261  0.8542 -1.2199  0.0487
 4895TIP3   OH238879   4.146   4.208  17.077  0.1560  0.5630  0.6376
 4895TIP3    H138880   4.060   4.247  17.065 -0.9502 -1.7641  0.3949
 4895TIP3    H238881   4.163   4.162  16.995  1.0605 -0.0215  1.1328
 4896TIP3   OH238882   2.582   5.602  17.298  0.0513  0.1430  0.3301
 4896TIP3    H138883   2.667   5.611  17.340  0.6596 -0.1420 -0.8122
 4896TIP3    H238884   2.571   5.508  17.286 -0.6807  0.1347  0.9473
 4897TIP3   OH238885   1.518   5.833  17.211 -0.4207 -0.0921 -0.1706
 4897TIP3    H138886   1.457   5.901  17.241  0.6540  0.9853 -0.3885
 4897TIP3    H238887   1.576   5.877  17.149  2.2860 -0.3901  1.9731
 4898TIP3   OH238888   3.677   1.621  19.015 -0.1546 -0.7920  0.0779
 4898TIP3    H138889   3.691   1.694  18.956  0.6538  1.4312  2.8144
 4898TIP3    H238890   3.762   1.577  19.021 -0.3092 -1.1972 -0.5552
 4899TIP3   OH238891   1.914   5.366  16.948 -0.1321 -0.5969 -0.4562
 4899TIP3    H138892   1.886   5.446  16.901 -0.6110 -1.1432 -1.1293
 4899TIP3    H238893   1.834   5.313  16.952 -0.2956 -0.2590  1.6717
 4900TIP3   OH238894   0.677   6.367  17.814  0.0880 -0.6908 -0.1835
 4900TIP3    H138895   0.646   6.356  17.903  0.0104  0.0933 -0.1084
 4900TIP3    H238896   0.765   6.403  17.823  0.0751 -0.5966 -0.4244
 4901TIP3   OH238897   0.547   5.355  17.249 -0.2516  0.3345  0.4902
 4901TIP3    H138898   0.495   5.420  17.296  1.7497  1.0861  1.8253
 4901TIP3    H238899   0.635   5.394  17.244 -0.2697  0.2995 -3.9113
 4902TIP3   OH238900   3.085   3.127  17.019 -0.4937 -0.7234  0.7514
 4902TIP3    H138901   3.055   3.097  17.105  0.4252  0.1223  1.3968
 4902TIP3    H238902   3.110   3.047  16.973 -3.1486 -1.4205  0.3585
 4903TIP3   OH238903   4.301   7.094  19.330 -0.1059  0.2403  0.1650
 4903TIP3    H138904   4.223   7.138  19.364 -1.2963 -0.7490 -1.1928
 4903TIP3    H238905   4.305   7.121  19.238  0.6961 -0.3607  0.0189
 4904TIP3   OH238906   6.988   2.633  19.334  0.1333  0.1515  0.5626
 4904TIP3    H138907   7.079   2.660  19.346  0.9151 -1.1996 -1.5876
 4904TIP3    H238908   6.991   2.538  19.334 -0.8610  0.0375 -1.6876
 4905TIP3   OH238909   6.788   3.361  17.984  0.3973  0.1559  0.1070
 4905TIP3    H138910   6.700   3.354  18.020  0.6302  0.1639  0.6883
 4905TIP3    H238911   6.813   3.452  17.997  0.8008 -0.0317  0.6877
 4906TIP3   OH238912   3.426   7.404  16.946 -0.4119 -0.3927  0.3373
 4906TIP3    H138913   3.378   7.456  17.011  2.5603  0.0364  2.3836
 4906TIP3    H238914   3.477   7.469  16.897  0.7161 -1.0671  0.5878
 4907TIP3   OH238915   1.947   0.506  17.741  0.1395  0.9950  0.1975
 4907TIP3    H138916   1.905   0.423  17.763 -0.7597  1.9524  2.5736
 4907TIP3    H238917   1.900   0.571  17.794 -0.6490  3.4177 -3.1106
 4908TIP3   OH238918   3.077   4.826  17.944  0.0754 -0.0905  0.0181
 4908TIP3    H138919   3.018   4.770  17.995  0.0313 -1.1348 -1.1285
 4908TIP3    H238920   3.164   4.804  17.976 -0.0025 -0.2407  0.1269
 4909TIP3   OH238921   7.616   5.436  18.062  0.7766 -0.0017  0.6540
 4909TIP3    H138922   7.652   5.512  18.106 -0.0646  0.5550  0.4184
 4909TIP3    H238923   7.560   5.473  17.993 -1.8668 -0.7317  2.2792
 4910TIP3   OH238924   5.803   5.398  18.257  0.0835 -0.8757  0.0751
 4910TIP3    H138925   5.892   5.367  18.271  0.4052  0.1216  0.2951
 4910TIP3    H238926   5.750   5.352  18.322  1.1203  1.7035  2.9505
 4911TIP3   OH238927   5.364   0.062  18.005 -0.1877 -0.5474  0.2685
 4911TIP3    H138928   5.329   0.126  17.942  1.7611  1.1495  0.7865
 4911TIP3    H238929   5.308   0.071  18.082 -1.0448 -0.8168 -0.3050
 4912TIP3   OH238930   4.634   1.361  17.452  0.8865  0.0576 -0.1884
 4912TIP3    H138931   4.572   1.331  17.519 -0.8110  0.5603 -1.4705
 4912TIP3    H238932   4.594   1.336  17.369  1.8564  1.4097 -1.1021
 4913TIP3   OH238933   0.707   2.552  17.732 -0.7272 -0.1445  0.1205
 4913TIP3    H138934   0.666   2.492  17.670  0.5029 -1.0993  0.1954
 4913TIP3    H238935   0.655   2.542  17.812 -1.7089  0.3596 -0.4265
 4914TIP3   OH238936   1.784   0.969  17.720  0.0463 -0.5422 -0.2233
 4914TIP3    H138937   1.768   1.063  17.729  0.1498 -0.4675 -0.7396
 4914TIP3    H238938   1.868   0.964  17.674  0.5051 -0.9017  0.6404
 4915TIP3   OH238939   6.181   1.184  17.951  0.0231  0.0651 -0.0978
 4915TIP3    H138940   6.194   1.138  17.869  1.4112  0.9468 -0.4125
 4915TIP3    H238941   6.270   1.201  17.983 -0.4704  1.0801  0.8068
 4916TIP3   OH238942   2.038   3.357  18.155  0.0055  0.1036 -0.2375
 4916TIP3    H138943   2.108   3.421  18.155  0.5683 -0.5035 -0.2467
 4916TIP3    H238944   2.010   3.351  18.246 -1.8634  2.2885 -0.5868
 4917TIP3   OH238945   4.085   3.570  17.369 -0.7478 -0.2943 -0.1631
 4917TIP3    H138946   4.052   3.498  17.314  0.6033 -1.3495  0.3455
 4917TIP3    H238947   4.180   3.561  17.365 -0.5408  1.4824 -0.0602
 4918TIP3   OH238948   2.931   5.873  18.968 -0.3004 -0.4385  0.1229
 4918TIP3    H138949   2.966   5.891  19.055 -0.1885  1.0006 -0.1943
 4918TIP3    H238950   2.905   5.959  18.934 -0.5640 -1.0013 -1.1673
 4919TIP3   OH238951   3.994   6.239  17.121 -0.1042  0.4570  0.2548
 4919TIP3    H138952   4.026   6.185  17.049 -2.1939  0.6264 -0.8770
 4919TIP3    H238953   4.074   6.267  17.167  1.5873  2.3505 -3.3785
 4920TIP3   OH238954   7.451   5.223  17.961 -0.3899 -0.2577 -0.1275
 4920TIP3    H138955   7.402   5.305  17.960 -0.1597 -0.1202 -0.8697
 4920TIP3    H238956   7.384   5.155  17.970 -0.5321  0.0336  1.0898
 4921TIP3   OH238957   6.887   0.527  18.561 -0.0183 -0.2157 -0.1979
 4921TIP3    H138958   6.807   0.546  18.610 -0.6369  0.6955 -1.5361
 4921TIP3    H238959   6.912   0.610  18.521  1.0065 -0.7387 -0.6876
 4922TIP3   OH238960   3.087   6.815  19.320 -0.5444 -0.1704 -0.3550
 4922TIP3    H138961   3.039   6.817  19.237  0.8930 -0.0889 -1.2217
 4922TIP3    H238962   3.026   6.778  19.383 -1.6161 -0.3709 -1.4918
 4923TIP3   OH238963   4.060   2.078  18.811 -0.1647 -0.0464  0.7011
 4923TIP3    H138964   4.101   2.092  18.896 -0.6892 -1.2743  1.1683
 4923TIP3    H238965   4.134   2.080  18.749  0.4449 -0.7874  1.3733
 4924TIP3   OH238966   3.620   3.324  17.174 -0.3357 -0.1207 -0.7972
 4924TIP3    H138967   3.606   3.246  17.121 -1.4277 -0.0833 -0.5972
 4924TIP3    H238968   3.639   3.394  17.111  1.3195 -0.6673 -0.9361
 4925TIP3   OH238969   2.961   1.872  18.541  0.4509  0.0519  0.1900
 4925TIP3    H138970   2.935   1.963  18.526  0.4050  0.0437  0.2213
 4925TIP3    H238971   2.879   1.825  18.552  0.4683 -0.0194  0.0190
 4926TIP3   OH238972   5.551   4.687  19.124  0.3150 -0.3736 -0.0248
 4926TIP3    H138973   5.566   4.725  19.037  0.9882  0.5564  0.4806
 4926TIP3    H238974   5.465   4.719  19.150 -0.1716 -1.1664 -0.5898
 4927TIP3   OH238975   0.264   0.963  18.358 -0.7518  0.3271  0.5214
 4927TIP3    H138976   0.228   0.879  18.327  0.2558 -0.3223  1.0727
 4927TIP3    H238977   0.252   0.960  18.453 -1.1558  1.0360  0.4979
 4928TIP3   OH238978   3.657   5.873  18.628 -0.1453  0.5671 -0.1395
 4928TIP3    H138979   3.681   5.792  18.583 -3.0353 -0.8005  0.5407
 4928TIP3    H238980   3.606   5.922  18.564 -0.7628  0.5285  0.3111
 4929TIP3   OH238981   5.528   5.960  18.965 -0.0387  0.4605  0.0437
 4929TIP3    H138982   5.609   5.910  18.956 -0.9689 -1.0564 -0.4081
 4929TIP3    H238983   5.523   6.012  18.885  0.9198  1.2511  0.4882
 4930TIP3   OH238984   6.939   3.033  18.674 -0.5231 -0.5470  0.6678
 4930TIP3    H138985   6.959   3.012  18.583  2.0521 -1.2012  1.3154
 4930TIP3    H238986   6.876   2.966  18.700  2.2603 -3.4115  0.6373
 4931TIP3   OH238987   6.109   7.315  18.463  0.8909  0.0940 -0.2147
 4931TIP3    H138988   6.146   7.343  18.379 -0.3140  0.9118 -0.5021
 4931TIP3    H238989   6.167   7.352  18.529  2.2064 -1.0744 -0.6747
 4932TIP3   OH238990   6.900   7.404  18.570  0.1608 -0.3989 -0.5127
 4932TIP3    H138991   6.813   7.399  18.530 -0.1037 -0.2724  0.0365
 4932TIP3    H238992   6.952   7.339  18.522 -0.2163 -0.4242 -0.8926
 4933TIP3   OH238993   5.379   0.407  18.325  0.3068  0.6235  0.5120
 4933TIP3    H138994   5.464   0.425  18.365  0.0883  0.2197  1.1894
 4933TIP3    H238995   5.370   0.473  18.257  0.7250  1.3091  1.1001
 4934TIP3   OH238996   1.995   6.814  18.512  0.2463  0.3971 -0.2376
 4934TIP3    H138997   2.054   6.792  18.439 -0.8507 -1.5051 -0.6388
 4934TIP3    H238998   1.915   6.765  18.493  0.5460 -1.7356  3.1779
 4935TIP3   OH238999   5.337   4.553  18.331  0.2166 -0.4359 -0.5234
 4935TIP3    H139000   5.256   4.603  18.320 -0.0766 -0.9234 -0.6104
 4935TIP3    H239001   5.388   4.573  18.252 -0.7064 -1.7524 -1.4753
 4936TIP3   OH239002   7.186   6.627  19.443 -0.5826 -0.1983  0.1555
 4936TIP3    H139003   7.239   6.667  19.374 -1.6876 -2.1289 -1.9547
 4936TIP3    H239004   7.247   6.614  19.515  0.9428  0.7658 -0.8960
 4937TIP3   OH239005   4.682   0.903  19.425  0.0590 -0.2161 -0.0287
 4937TIP3    H139006   4.661   0.992  19.452 -1.5901 -0.3388 -0.8061
 4937TIP3    H239007   4.690   0.907  19.330  0.5031 -0.8144 -0.0272
 4938TIP3   OH239008   4.084   1.528  18.722  0.5364 -0.5622  0.8145
 4938TIP3    H139009   4.040   1.475  18.655 -1.3289  3.1096 -1.1924
 4938TIP3    H239010   4.177   1.507  18.711 -0.0746 -3.5972  0.4857
 4939TIP3   OH239011   1.788   4.212  19.131 -0.1927 -0.0297 -0.1726
 4939TIP3    H139012   1.716   4.272  19.114  0.6134  0.9643 -0.1942
 4939TIP3    H239013   1.756   4.127  19.103 -1.5618  0.2867  0.3901
 4940TIP3   OH239014   2.527   4.612  18.747 -0.3878  0.8779 -0.4836
 4940TIP3    H139015   2.477   4.583  18.823 -0.0001 -1.3399 -1.0113
 4940TIP3    H239016   2.589   4.677  18.782 -1.2717  1.0730  0.7739
 4941TIP3   OH239017   0.221   1.807  18.804  0.0338 -0.2627 -0.8070
 4941TIP3    H139018   0.206   1.889  18.851  0.0487  0.4124 -1.9523
 4941TIP3    H239019   0.210   1.829  18.712  1.1357 -1.3051 -1.2167
 4942TIP3   OH239020   4.480   0.588  17.976 -0.1370 -0.1692  0.2504
 4942TIP3    H139021   4.507   0.533  17.901  0.1105  0.9055 -0.4691
 4942TIP3    H239022   4.532   0.555  18.049  0.0522 -0.8563 -0.1814
 4943TIP3   OH239023   6.956   4.632  16.264 -0.3173  0.1205 -0.3115
 4943TIP3    H139024   6.972   4.694  16.335  2.4379 -0.1044 -0.6228
 4943TIP3    H239025   6.868   4.652  16.234 -1.0622  1.0626  2.3123
 4944TIP3   OH239026   5.401   6.011  18.142 -0.6561  0.7203  0.1741
 4944TIP3    H139027   5.351   6.092  18.132  0.3509  1.3586  0.1198
 4944TIP3    H239028   5.431   5.990  18.053 -1.6039 -0.1938  0.0465
 4945TIP3   OH239029   6.279   4.181  17.667  0.5111 -0.8544 -0.2262
 4945TIP3    H139030   6.305   4.146  17.582  0.4433 -1.4761  0.0053
 4945TIP3    H239031   6.233   4.109  17.710  1.5535 -0.9342  0.7983
 4946TIP3   OH239032   7.045   0.404  18.748 -0.4749  0.4425  0.2671
 4946TIP3    H139033   7.002   0.472  18.696 -1.8138 -1.1368 -0.8157
 4946TIP3    H239034   6.976   0.370  18.804 -0.8678 -2.3276 -1.6929
 4947TIP3   OH239035   4.639   4.245  18.610 -0.2201 -0.3046  0.1396
 4947TIP3    H139036   4.579   4.280  18.545  1.1676  0.1353 -0.9669
 4947TIP3    H239037   4.628   4.150  18.604 -0.8802 -0.2262  0.0487
 4948TIP3   OH239038   2.948   4.021  18.652 -0.3433 -0.0624 -0.0787
 4948TIP3    H139039   2.949   3.961  18.727 -1.4900 -0.9622 -0.7474
 4948TIP3    H239040   2.925   4.106  18.690  1.5138  0.0579  0.9120
 4949TIP3   OH239041   6.022   0.740  17.504 -0.1390  0.0648  0.2291
 4949TIP3    H139042   6.104   0.788  17.519 -0.6405  1.2658 -0.7445
 4949TIP3    H239043   6.020   0.726  17.410 -0.7301 -0.5945  0.3335
 4950TIP3   OH239044   5.407   0.717  17.875 -0.1137 -0.1259 -0.3461
 4950TIP3    H139045   5.313   0.707  17.859 -0.4184 -1.1538  1.7739
 4950TIP3    H239046   5.448   0.681  17.796 -1.4979 -1.7313 -0.3996
 4951TIP3   OH239047   6.937   5.431  18.301 -0.2239  0.4355 -0.0605
 4951TIP3    H139048   6.967   5.367  18.366  0.1926  1.2289  0.5463
 4951TIP3    H239049   6.959   5.392  18.217  0.9275  0.2083  0.3239
 4952TIP3   OH239050   6.446   1.727  16.962  0.0600 -0.5243 -0.1392
 4952TIP3    H139051   6.524   1.702  16.911  0.5309 -2.1717  1.2981
 4952TIP3    H239052   6.471   1.809  17.005  0.7274 -0.6492 -0.2788
 4953TIP3   OH239053   6.071   7.652  19.544 -0.0680 -0.2243 -0.2122
 4953TIP3    H139054   6.024   7.660  19.461 -0.1259  0.1189 -0.1497
 4953TIP3    H239055   6.163   7.660  19.520 -0.1425  1.2102 -0.0982
 4954TIP3   OH239056   4.138   7.649  19.132 -0.5218  0.2176 -0.7250
 4954TIP3    H139057   4.101   7.738  19.140 -0.6969  0.1236 -0.4778
 4954TIP3    H239058   4.180   7.633  19.216 -1.8596 -0.5478 -0.1775
 4955TIP3   OH239059   7.577   6.523  17.287 -0.6462 -0.1557  0.5227
 4955TIP3    H139060   7.579   6.484  17.200  0.8776  1.9834 -0.4888
 4955TIP3    H239061   7.661   6.500  17.326  0.3507  2.0616 -0.1533
 4956TIP3   OH239062   1.406   0.800  17.864  0.2227  0.1218  0.0270
 4956TIP3    H139063   1.436   0.824  17.776  0.1846 -2.5453 -0.7753
 4956TIP3    H239064   1.311   0.808  17.860  0.3083  2.0439  0.5404
 4957TIP3   OH239065   2.303   1.045  19.180 -0.1466 -0.3203 -0.6247
 4957TIP3    H139066   2.207   1.050  19.183 -0.1554  0.8749 -1.9498
 4957TIP3    H239067   2.324   0.967  19.231 -1.8642 -1.0221 -0.9139
 4958TIP3   OH239068   0.397   2.587  17.799  0.2636  0.0427  0.1342
 4958TIP3    H139069   0.330   2.578  17.866  0.7389 -0.5104  0.5473
 4958TIP3    H239070   0.399   2.680  17.779 -0.0640  0.1741  0.6997
 4959TIP3   OH239071   3.815   0.283  18.257 -0.2894  0.1747 -0.3354
 4959TIP3    H139072   3.861   0.317  18.334  4.7293 -3.5748 -1.1904
 4959TIP3    H239073   3.881   0.283  18.188 -1.5783 -4.9927 -1.9854
 4960TIP3   OH239074   4.575   3.155  17.618 -0.3094 -0.1091 -0.4039
 4960TIP3    H139075   4.643   3.196  17.565 -1.9834  1.0397 -1.7863
 4960TIP3    H239076   4.515   3.116  17.554 -1.8421  0.4068  0.6505
 4961TIP3   OH239077   1.953   4.919  18.438  0.9964  0.3916 -0.6128
 4961TIP3    H139078   1.954   4.823  18.437  0.4630  0.3748  0.0290
 4961TIP3    H239079   2.032   4.944  18.390  1.2240 -0.3704 -0.6506
 4962TIP3   OH239080   1.180   2.940  18.646  0.5299 -0.0628  0.5767
 4962TIP3    H139081   1.147   2.855  18.676  0.2958 -0.2713 -0.2482
 4962TIP3    H239082   1.166   2.999  18.721 -0.1688 -0.5334  0.8269
 4963TIP3   OH239083   2.734   0.401  16.944 -0.0589 -0.7931 -0.1908
 4963TIP3    H139084   2.797   0.451  16.893 -0.1142  0.5434  0.9822
 4963TIP3    H239085   2.650   0.444  16.929  0.2712  1.2447  2.8003
 4964TIP3   OH239086   7.397   0.211  16.973 -0.2383 -0.4000 -0.1358
 4964TIP3    H139087   7.419   0.212  17.066 -0.9997 -1.2051  0.0607
 4964TIP3    H239088   7.362   0.299  16.956 -1.6104 -0.7549  0.7201
 4965TIP3   OH239089   6.570   1.629  17.974  0.2309  0.0613  0.2968
 4965TIP3    H139090   6.598   1.694  17.910  1.6055 -0.2661  0.5343
 4965TIP3    H239091   6.514   1.678  18.035  1.4243  1.0856  0.6021
 4966TIP3   OH239092   2.392   7.496  18.228 -0.3044  0.2709  0.4454
 4966TIP3    H139093   2.344   7.442  18.291 -0.7195  1.0133  0.7792
 4966TIP3    H239094   2.380   7.586  18.259  1.6307  0.4643  0.7698
 4967TIP3   OH239095   7.174   6.035  19.062 -0.3323 -0.0482 -0.4893
 4967TIP3    H139096   7.156   6.127  19.079  1.7451  0.2411  0.3753
 4967TIP3    H239097   7.264   6.033  19.030 -0.7390 -1.6768 -1.7158
 4968TIP3   OH239098   4.387   4.239  19.178 -0.9346 -0.4540  0.4264
 4968TIP3    H139099   4.324   4.170  19.156 -0.5917  0.0338 -2.4896
 4968TIP3    H239100   4.360   4.314  19.125  0.3991  0.7437  1.3601
 4969TIP3   OH239101   0.233   0.599  17.422 -0.5283  0.2115 -1.0126
 4969TIP3    H139102   0.322   0.589  17.455 -0.6367 -0.1294 -0.8160
 4969TIP3    H239103   0.242   0.598  17.327 -0.4719 -1.3478 -1.0110
 4970TIP3   OH239104   6.275   2.075  18.654  0.4467 -0.2611  0.1920
 4970TIP3    H139105   6.361   2.034  18.639  0.3507 -0.6987  0.8175
 4970TIP3    H239106   6.294   2.169  18.660  1.1250 -0.4735  1.9438
 4971TIP3   OH239107   2.142   1.925  17.199  0.0086 -0.2285 -0.2340
 4971TIP3    H139108   2.181   2.009  17.173  0.9718 -0.5862  0.0372
 4971TIP3    H239109   2.196   1.859  17.157  0.3962 -0.7632  1.0392
 4972TIP3   OH239110   0.166   7.160  17.242  0.9202 -0.1169  0.1638
 4972TIP3    H139111   0.216   7.232  17.203  0.2095  0.6851  0.6919
 4972TIP3    H239112   0.146   7.102  17.169  1.4094  0.2737 -0.2912
 4973TIP3   OH239113   3.282   2.979  18.911 -0.5427 -0.4864 -0.1208
 4973TIP3    H139114   3.231   3.056  18.937 -0.4658  0.0996 -1.6003
 4973TIP3    H239115   3.221   2.906  18.920 -0.8593 -0.1394  0.5604
 4974TIP3   OH239116   5.172   0.635  18.386 -0.2415  1.0461  0.0739
 4974TIP3    H139117   5.131   0.613  18.302 -2.4085  0.4828  1.1980
 4974TIP3    H239118   5.141   0.723  18.406  0.2721  1.1822  0.2970
 4975TIP3   OH239119   0.812   2.315  19.219 -0.0041  0.0316  0.5883
 4975TIP3    H139120   0.805   2.398  19.267  0.6174  1.0405 -0.9957
 4975TIP3    H239121   0.788   2.249  19.284 -2.3069  1.5531  1.4398
 4976TIP3   OH239122   2.052   1.044  17.096 -0.2726  0.5338  0.1162
 4976TIP3    H139123   2.144   1.068  17.108 -0.2429  0.2418  0.4968
 4976TIP3    H239124   2.039   1.045  17.001  0.0056  1.0064  0.0813
 4977TIP3   OH239125   0.990   6.646  18.183 -0.2669  0.1707 -0.6754
 4977TIP3    H139126   1.020   6.727  18.142 -0.4447 -0.2140 -1.5840
 4977TIP3    H239127   0.963   6.673  18.271  1.3431  0.7764 -0.3313
 4978TIP3   OH239128   2.488   1.636  18.191 -0.3495 -0.2411  0.0327
 4978TIP3    H139129   2.464   1.649  18.100  1.1069 -1.1209 -0.5069
 4978TIP3    H239130   2.408   1.602  18.232 -0.7836 -0.6104 -1.0970
 4979TIP3   OH239131   1.807   1.113  19.347 -0.2414 -0.1875  0.3593
 4979TIP3    H139132   1.789   1.105  19.254 -0.9843 -0.3455  0.5125
 4979TIP3    H239133   1.752   1.186  19.376  0.2979  0.1371  0.6005
 4980TIP3   OH239134   7.195   3.195  17.826  0.3487 -0.2122  0.2615
 4980TIP3    H139135   7.116   3.174  17.875 -0.3208 -2.0866 -1.4756
 4980TIP3    H239136   7.204   3.290  17.834 -1.4593 -0.0964  1.3799
 4981TIP3   OH239137   2.400   2.379  18.434  0.0726 -0.0260  0.0283
 4981TIP3    H139138   2.455   2.319  18.484  0.4903  1.0204  0.8387
 4981TIP3    H239139   2.418   2.465  18.470 -0.6171  0.5913 -1.0361
 4982TIP3   OH239140   1.543   6.621  17.246 -0.4906  0.2546  0.1348
 4982TIP3    H139141   1.457   6.636  17.208 -0.4387  0.8502  0.2454
 4982TIP3    H239142   1.603   6.623  17.172 -0.5872 -0.3557  0.0325
 4983TIP3   OH239143   5.158   6.990  17.496 -0.0015 -0.3236  0.3471
 4983TIP3    H139144   5.067   6.976  17.469  1.0951 -1.4972 -3.1839
 4983TIP3    H239145   5.184   7.071  17.452  1.1499 -0.9061 -0.0738
 4984TIP3   OH239146   6.615   2.610  18.741  0.3275 -0.3150 -0.6699
 4984TIP3    H139147   6.641   2.523  18.710  1.0958  0.0381 -1.0408
 4984TIP3    H239148   6.607   2.601  18.835 -1.5228 -1.2769 -0.8688
 4985TIP3   OH239149   4.596   6.704  16.952  0.0572 -0.4145  0.3863
 4985TIP3    H139150   4.690   6.720  16.958 -0.1459  1.2524 -0.4039
 4985TIP3    H239151   4.585   6.662  16.867  0.0088  0.0763  0.1490
 4986TIP3   OH239152   0.621   5.053  18.232  0.5848 -0.2120  0.2104
 4986TIP3    H139153   0.706   5.048  18.275  0.2416  1.0969  1.1289
 4986TIP3    H239154   0.561   5.012  18.294  0.2472  0.7537  0.5481
 4987TIP3   OH239155   5.461   0.596  17.618 -0.0924  0.4954 -0.2186
 4987TIP3    H139156   5.535   0.601  17.557 -1.0278 -0.0880 -1.4483
 4987TIP3    H239157   5.455   0.503  17.640 -0.6615  0.4856 -0.3958
 4988TIP3   OH239158   7.619   1.221  18.281  0.0379 -0.0470  0.1078
 4988TIP3    H139159   7.628   1.317  18.278  0.9021 -0.0012  2.2868
 4988TIP3    H239160   7.588   1.203  18.369 -1.9057 -1.7106 -0.8613
 4989TIP3   OH239161   4.481   6.510  18.556  0.6087  0.0932 -0.2099
 4989TIP3    H139162   4.455   6.425  18.593 -0.2164  0.6005  0.3980
 4989TIP3    H239163   4.403   6.541  18.511  1.0557  0.3279 -0.8509
 4990TIP3   OH239164   7.511   3.360  18.748  0.1330  0.2377 -0.1661
 4990TIP3    H139165   7.488   3.394  18.834 -0.5198  1.5774 -0.8431
 4990TIP3    H239166   7.581   3.418  18.717  1.8646 -1.4828  0.2751
 4991TIP3   OH239167   2.101   1.306  17.236 -0.1523 -0.0128 -0.3207
 4991TIP3    H139168   2.090   1.213  17.213  1.3610 -0.1552 -0.6020
 4991TIP3    H239169   2.120   1.349  17.153 -0.3402  0.4729 -0.1169
 4992TIP3   OH239170   5.393   5.734  17.528 -0.2525 -0.0407  0.2503
 4992TIP3    H139171   5.325   5.788  17.487  0.0792  0.8978  0.9033
 4992TIP3    H239172   5.393   5.653  17.477  0.0124  1.0018 -1.4717
 4993TIP3   OH239173   4.363   5.337  18.828 -0.1647 -0.2900 -0.2087
 4993TIP3    H139174   4.435   5.351  18.891 -0.9021  0.0869  0.5798
 4993TIP3    H239175   4.332   5.425  18.808 -1.0070 -0.4842  0.1865
 4994TIP3   OH239176   5.422   7.592  18.735  0.3979 -0.1560  0.1893
 4994TIP3    H139177   5.375   7.513  18.705 -1.3874  1.3279 -1.2190
 4994TIP3    H239178   5.365   7.629  18.803  1.6496 -0.4878  1.4599
 4995TIP3   OH239179   2.744   5.709  17.509 -0.1468  0.2018 -0.0961
 4995TIP3    H139180   2.666   5.765  17.506 -0.6758 -0.5081  0.1787
 4995TIP3    H239181   2.768   5.707  17.602 -0.6148 -0.6704  0.0169
 4996TIP3   OH239182   0.161   1.407  19.205  0.6603 -0.4700  0.6736
 4996TIP3    H139183   0.245   1.444  19.176  1.2466 -0.1962  2.6281
 4996TIP3    H239184   0.167   1.405  19.300 -1.8082  0.1436  0.9020
 4997TIP3   OH239185   5.167   1.093  18.688  0.4973  0.2317 -0.0746
 4997TIP3    H139186   5.158   1.186  18.665  0.5686  0.2256 -0.1278
 4997TIP3    H239187   5.109   1.081  18.763  2.3562  0.9025  1.5527
 4998TIP3   OH239188   4.497   1.624  16.712 -0.5017  0.4768 -0.0323
 4998TIP3    H139189   4.483   1.576  16.793  0.3299 -1.0229 -0.7263
 4998TIP3    H239190   4.592   1.625  16.700 -0.6264  0.3163 -1.1840
 4999TIP3   OH239191   4.461   3.419  17.892  0.2544 -0.1690 -0.0937
 4999TIP3    H139192   4.548   3.380  17.894  0.6038  0.3703 -2.3549
 4999TIP3    H239193   4.450   3.449  17.802 -1.7855  0.9020  0.4512
 5000TIP3   OH239194   2.808   1.085  17.632 -0.2350 -0.1952  0.2663
 5000TIP3    H139195   2.839   1.156  17.689  3.3559 -0.7345 -0.7456
 5000TIP3    H239196   2.857   1.008  17.662 -0.8059 -1.2433 -1.3802
 5001TIP3   OH239197   6.461   6.029  19.339  0.3707 -0.0358  0.5170
 5001TIP3    H139198   6.533   5.971  19.362 -0.5132 -1.1659  0.5030
 5001TIP3    H239199   6.503   6.113  19.319  1.5227 -0.2067  2.0879
 5002TIP3   OH239200   2.241   1.750  18.652  0.0117  0.0882 -0.3872
 5002TIP3    H139201   2.149   1.745  18.678 -0.3299  0.9836 -1.3833
 5002TIP3    H239202   2.289   1.718  18.729 -1.0415  1.0751  0.7197
 5003TIP3   OH239203   7.070   4.597  18.957 -0.0084  0.6809  0.6542
 5003TIP3    H139204   7.082   4.569  19.048  1.3695  0.4878  0.4356
 5003TIP3    H239205   6.997   4.659  18.960 -1.7146 -1.2560  1.4928
 5004TIP3   OH239206   2.105   4.483  18.953  0.3889  0.4945  0.1511
 5004TIP3    H139207   2.089   4.500  19.046  2.9098 -0.8631  0.9159
 5004TIP3    H239208   2.068   4.396  18.938  1.4610 -0.0138  0.3592
 5005TIP3   OH239209   3.080   7.234  19.243  0.0554  0.1357 -0.4324
 5005TIP3    H139210   3.063   7.264  19.333  0.9314 -0.2803 -0.1162
 5005TIP3    H239211   3.082   7.314  19.191  0.5105  0.4720  0.0875
 5006TIP3   OH239212   6.287   4.382  19.195 -0.4822  0.2015 -0.0343
 5006TIP3    H139213   6.240   4.329  19.130 -0.8127 -0.2271  0.5523
 5006TIP3    H239214   6.289   4.470  19.156 -1.7555  0.2231 -0.0776
 5007TIP3   OH239215   5.527   6.948  19.401 -0.0041 -0.1256  0.1203
 5007TIP3    H139216   5.506   6.874  19.457 -0.6662  0.0796  0.1492
 5007TIP3    H239217   5.557   6.909  19.319 -0.5912 -0.4308  0.0464
 5008TIP3   OH239218   5.619   3.344  19.142  0.3543  0.7975 -0.7499
 5008TIP3    H139219   5.576   3.428  19.128 -0.2000  0.5851 -0.3780
 5008TIP3    H239220   5.708   3.366  19.170 -0.5552  1.3552  2.0421
 5009TIP3   OH239221   7.047   2.798  18.363  0.4474 -0.7510 -0.5917
 5009TIP3    H139222   6.999   2.876  18.392 -0.1675 -1.4102  0.2298
 5009TIP3    H239223   7.014   2.782  18.274  1.7465  0.8220 -1.4082
 5010TIP3   OH239224   0.332   1.813  19.601 -0.5137  0.2153 -0.0910
 5010TIP3    H139225   0.332   1.734  19.547 -0.7140  0.8044 -0.9909
 5010TIP3    H239226   0.300   1.785  19.686  1.3357 -1.0503  0.2218
 5011TIP3   OH239227   0.102   3.512  18.876 -0.4810  0.6254 -0.3785
 5011TIP3    H139228   0.150   3.450  18.931  0.1917 -1.1022 -2.7273
 5011TIP3    H239229   0.161   3.585  18.864  1.8335 -1.4737 -3.2518
 5012TIP3   OH239230   6.405   1.577  18.655 -0.1321 -0.3190  0.5029
 5012TIP3    H139231   6.362   1.653  18.695 -2.3345 -2.3101  2.1200
 5012TIP3    H239232   6.446   1.613  18.576 -0.0306  2.7687  1.7899
 5013TIP3   OH239233   5.492   0.313  17.700  0.7586 -0.1027 -0.3170
 5013TIP3    H139234   5.557   0.254  17.661  0.9095 -0.6527  0.7456
 5013TIP3    H239235   5.538   0.354  17.773 -0.3316 -1.1900  1.0443
 5014TIP3   OH239236   1.241   1.899  18.619  0.0248  0.0677  0.1205
 5014TIP3    H139237   1.187   1.970  18.656 -1.0921 -0.6411 -0.0872
 5014TIP3    H239238   1.207   1.820  18.660 -0.0902 -0.5587 -1.1288
 5015TIP3   OH239239   0.452   0.805  17.014  0.5935  0.6864  0.1013
 5015TIP3    H139240   0.546   0.792  17.030  0.3590  0.8761  1.9094
 5015TIP3    H239241   0.410   0.731  17.058 -0.1143  0.7402 -0.4766
 5016TIP3   OH239242   7.579   3.667  16.643 -0.3238  0.0839 -0.2384
 5016TIP3    H139243   7.527   3.588  16.632 -0.3076 -0.1176  0.9504
 5016TIP3    H239244   7.536   3.714  16.715 -0.8724  1.6242 -1.5087
 5017TIP3   OH239245   1.142   3.582  18.444 -0.5938  0.4421  0.7530
 5017TIP3    H139246   1.054   3.598  18.411 -0.1398  0.5582 -0.4865
 5017TIP3    H239247   1.140   3.493  18.479 -1.0101  0.1349 -0.0173
 5018TIP3   OH239248   5.926   2.279  19.173  0.3149  0.1106  0.1164
 5018TIP3    H139249   6.020   2.264  19.177  0.4748  0.5478 -1.4240
 5018TIP3    H239250   5.896   2.268  19.263  2.0141  1.1632  0.8474
 5019TIP3   OH239251   7.387   4.495  16.039  0.2555 -0.2141 -0.2235
 5019TIP3    H139252   7.341   4.417  16.071  0.9669  0.1211  1.7296
 5019TIP3    H239253   7.319   4.562  16.034 -0.0812 -0.5707 -0.5106
 5020TIP3   OH239254   7.508   6.608  16.638  0.0142 -0.0953  0.4335
 5020TIP3    H139255   7.576   6.560  16.591 -0.1978 -0.4935  0.5302
 5020TIP3    H239256   7.524   6.588  16.730 -0.2144 -0.1650  0.4585
 5021TIP3   OH239257   4.463   0.045  16.592 -0.5512 -0.6526  0.0237
 5021TIP3    H139258   4.403   0.004  16.529 -0.8980 -1.4593  0.8640
 5021TIP3    H239259   4.514  -0.027  16.627 -0.5472 -0.2478  0.8676
 5022TIP3   OH239260   5.307   6.386  18.971  0.6668  0.2235  0.0303
 5022TIP3    H139261   5.287   6.335  18.892  0.8175  1.0171 -0.5303
 5022TIP3    H239262   5.296   6.477  18.944  0.9415  0.5104  0.8686
 5023TIP3   OH239263   4.557   0.703  18.270 -0.3835 -0.1712  0.2397
 5023TIP3    H139264   4.617   0.629  18.268 -0.5462 -0.2879 -0.9630
 5023TIP3    H239265   4.491   0.679  18.336  0.7785 -0.0891  1.4930
 5024TIP3   OH239266   4.828   3.798  18.926 -0.1823 -0.3243  0.3524
 5024TIP3    H139267   4.768   3.751  18.984 -0.3683  0.5991  0.9359
 5024TIP3    H239268   4.780   3.876  18.900  0.3390 -0.1518 -0.1173
 5025TIP3   OH239269   4.323   5.249  18.240 -0.2863 -0.3296 -0.2546
 5025TIP3    H139270   4.308   5.334  18.283 -0.6979 -0.3613 -0.3393
 5025TIP3    H239271   4.393   5.209  18.292  0.8544  0.6145 -0.9759
 5026TIP3   OH239272   3.978   7.575  18.746  0.0186  0.2777 -0.2989
 5026TIP3    H139273   3.970   7.488  18.709  1.1637  0.5337 -1.1642
 5026TIP3    H239274   3.946   7.634  18.678  1.4512  0.6952 -0.6396
 5027TIP3   OH239275   1.556   0.368  19.128  0.1814  0.6263  0.2198
 5027TIP3    H139276   1.606   0.441  19.165  0.8386 -1.1492  3.1967
 5027TIP3    H239277   1.478   0.363  19.183 -0.7729  0.2191 -1.1403
 5028TIP3   OH239278   5.199   0.425  17.542  0.0008  0.3827  0.5087
 5028TIP3    H139279   5.208   0.519  17.527  0.9290 -0.0287 -1.9600
 5028TIP3    H239280   5.137   0.418  17.615  0.3490  2.8893  1.1303
 5029TIP3   OH239281   4.548   0.261  16.731 -0.0747  0.2011  0.3231
 5029TIP3    H139282   4.519   0.191  16.672 -0.8529  1.1346 -0.4630
 5029TIP3    H239283   4.626   0.227  16.773 -0.4216 -1.1230 -0.0610
 5030TIP3   OH239284   1.154   3.889  17.215  0.4706 -0.0168 -0.2153
 5030TIP3    H139285   1.192   3.819  17.268 -0.0686  0.4189  0.7642
 5030TIP3    H239286   1.101   3.843  17.149  2.0310 -0.5956 -1.1093
 5031TIP3   OH239287   0.337   4.357  17.632 -0.0114  0.3170  0.2394
 5031TIP3    H139288   0.263   4.327  17.684  0.2201  0.8557  0.8943
 5031TIP3    H239289   0.300   4.426  17.576 -0.0777  0.3307  0.3004
 5032TIP3   OH239290   0.979   3.907  18.353 -0.1417  0.5453  0.1479
 5032TIP3    H139291   1.011   3.907  18.443  2.0633 -1.5219 -0.5368
 5032TIP3    H239292   0.913   3.838  18.351 -0.4085  0.7946  0.2246
 5033TIP3   OH239293   0.544   4.593  19.139 -0.4192 -0.5067  0.1655
 5033TIP3    H139294   0.590   4.521  19.096  0.7590 -0.6372  1.5670
 5033TIP3    H239295   0.513   4.556  19.222 -0.6421  0.3348  0.4654
 5034TIP3   OH239296   1.298   5.527  16.268  0.2290 -0.0854  0.3485
 5034TIP3    H139297   1.269   5.554  16.181 -0.9923 -2.8772 -0.2189
 5034TIP3    H239298   1.221   5.485  16.307  0.8251  0.8585  2.7284
 5035TIP3   OH239299   0.772   7.162  18.038  1.0635 -0.2809 -0.1334
 5035TIP3    H139300   0.768   7.085  17.981 -2.0702  0.3794 -1.0103
 5035TIP3    H239301   0.773   7.236  17.978  2.5523  0.4416  0.7176
 5036TIP3   OH239302   2.515   3.653  16.935  0.2920  0.2405 -0.0401
 5036TIP3    H139303   2.579   3.666  16.865 -1.0649 -1.3922 -1.6753
 5036TIP3    H239304   2.430   3.662  16.892 -0.6028  0.7868  1.7592
 5037TIP3   OH239305   2.917   2.817  17.589 -0.1193 -0.6111  0.5381
 5037TIP3    H139306   2.869   2.738  17.614 -0.6234 -0.3576  0.3934
 5037TIP3    H239307   2.967   2.840  17.667  0.7538 -1.5895  0.2902
 5038TIP3   OH239308   0.514   6.808  17.231  0.6862 -0.6247  0.3432
 5038TIP3    H139309   0.460   6.841  17.159 -1.9432  0.6910  2.7406
 5038TIP3    H239310   0.457   6.813  17.308  3.8001 -0.5415  2.8310
 5039TIP3   OH239311   5.964   0.659  17.775 -0.1239 -0.3804  0.0535
 5039TIP3    H139312   6.007   0.654  17.689 -0.1636 -0.8260  0.0578
 5039TIP3    H239313   5.938   0.751  17.783 -0.7447 -0.4804 -0.7192
 5040TIP3   OH239314   7.449   1.870  16.982 -0.1537 -0.6865  0.1394
 5040TIP3    H139315   7.452   1.851  16.888  1.2904  0.3026 -0.0374
 5040TIP3    H239316   7.407   1.956  16.986  0.7572 -0.2497  0.3177
 5041TIP3   OH239317   1.625   2.796  18.224  0.3187 -0.1210 -0.5460
 5041TIP3    H139318   1.529   2.800  18.221  0.2199 -1.1525  0.6209
 5041TIP3    H239319   1.649   2.731  18.159  0.2150  0.0389 -0.7428
 5042TIP3   OH239320   5.849   7.603  19.041  0.3335  0.1450  0.0470
 5042TIP3    H139321   5.807   7.674  18.992 -0.9420 -1.0454 -0.6651
 5042TIP3    H239322   5.898   7.553  18.976 -0.1694 -0.5921  0.2127
 5043TIP3   OH239323   4.816   0.683  17.725  0.1738  0.2055  0.0739
 5043TIP3    H139324   4.834   0.627  17.650  1.1654 -0.2833  0.6557
 5043TIP3    H239325   4.859   0.766  17.704 -1.1150  0.7046 -0.6934
 5044TIP3   OH239326   2.107   5.470  17.136 -0.0319  0.5330 -0.5695
 5044TIP3    H139327   2.187   5.444  17.091 -0.0311 -2.0284  0.7651
 5044TIP3    H239328   2.036   5.446  17.076  0.1142  1.1377 -0.9915
 5045TIP3   OH239329   6.661   5.501  16.621  0.1247 -0.4017  0.4372
 5045TIP3    H139330   6.596   5.504  16.691  0.3872  0.2328  0.6665
 5045TIP3    H239331   6.707   5.419  16.633  1.0290  0.2740  1.8179
 5046TIP3   OH239332   5.071   6.020  17.834  0.2418  0.3906 -0.1212
 5046TIP3    H139333   4.979   5.993  17.840  0.3204  0.3851  1.4894
 5046TIP3    H239334   5.074   6.076  17.757 -1.0040 -0.0179 -0.4934
 5047TIP3   OH239335   3.976   0.503  18.829  1.0033 -0.1544  0.9451
 5047TIP3    H139336   3.883   0.524  18.832  1.2687  1.0126  1.4217
 5047TIP3    H239337   4.018   0.571  18.881  2.2536  0.0381 -0.2598
 5048TIP3   OH239338   0.596   5.074  16.298 -0.1693 -0.1948 -0.3640
 5048TIP3    H139339   0.637   5.028  16.371 -0.0394 -0.3146 -0.5136
 5048TIP3    H239340   0.669   5.111  16.249 -0.2809  0.3326 -0.1376
 5049TIP3   OH239341   6.984   6.814  17.714 -0.2095  0.1935  0.2926
 5049TIP3    H139342   7.036   6.734  17.719 -0.9688 -0.3351 -0.0041
 5049TIP3    H239343   6.995   6.845  17.624  0.6036  0.7900  0.5919
 5050TIP3   OH239344   0.475   5.572  18.618 -0.3338 -0.1787 -0.0958
 5050TIP3    H139345   0.499   5.559  18.526  1.9540 -1.0293  0.5456
 5050TIP3    H239346   0.381   5.552  18.621 -0.1696 -1.5832 -1.9953
 5051TIP3   OH239347   3.494   3.307  16.876 -0.2273  0.0262 -0.1093
 5051TIP3    H139348   3.578   3.260  16.878 -0.0700  0.3172  0.3129
 5051TIP3    H239349   3.509   3.382  16.819  1.1722  2.5551  3.2246
 5052TIP3   OH239350   4.841   7.562  16.864 -0.1465  0.2257  0.5094
 5052TIP3    H139351   4.868   7.519  16.945 -1.2823 -2.1065 -0.2642
 5052TIP3    H239352   4.835   7.491  16.799  0.9692  2.0296 -1.7343
 5053TIP3   OH239353   3.860   2.229  16.893  0.6903 -0.7132 -0.9040
 5053TIP3    H139354   3.786   2.245  16.835  0.2991 -3.0738 -1.1340
 5053TIP3    H239355   3.936   2.254  16.842  0.1419  1.4858 -0.7592
 5054TIP3   OH239356   4.073   5.164  17.826 -0.6412  0.4240 -0.4711
 5054TIP3    H139357   3.984   5.181  17.797 -1.3329  0.8828  1.7127
 5054TIP3    H239358   4.119   5.247  17.810 -0.8293  0.4623 -0.8294
 5055TIP3   OH239359   4.217   4.976  17.967  0.3938 -0.1838 -0.5941
 5055TIP3    H139360   4.259   4.933  17.892 -0.6085 -1.2543 -0.5736
 5055TIP3    H239361   4.165   5.047  17.928  0.0147 -0.6261 -0.9068
 5056TIP3   OH239362   1.389   6.895  19.045  0.4716 -0.4907 -0.3764
 5056TIP3    H139363   1.326   6.968  19.050  1.6684  0.5071  1.9611
 5056TIP3    H239364   1.335   6.818  19.026 -1.6640  0.1798  2.2285
 5057TIP3   OH239365   6.131   1.088  17.506  0.0726 -0.1005  0.3926
 5057TIP3    H139366   6.188   1.012  17.493  1.5882  1.0484 -0.0423
 5057TIP3    H239367   6.154   1.120  17.594  1.0574  1.0855 -0.2557
 5058TIP3   OH239368   3.537   1.212  17.090 -0.1467 -0.0661 -0.5079
 5058TIP3    H139369   3.565   1.303  17.079 -0.0515 -0.1087 -0.6183
 5058TIP3    H239370   3.572   1.167  17.013  0.5446 -0.3745 -0.0244
 5059TIP3   OH239371   3.805   4.125  17.229 -0.0447 -0.2003 -0.0868
 5059TIP3    H139372   3.884   4.071  17.235 -0.3104 -0.4782  1.4912
 5059TIP3    H239373   3.830   4.198  17.173  1.1837 -0.5236  0.0059
 5060TIP3   OH239374   3.318   6.667  17.328 -0.4198  0.4327 -0.1208
 5060TIP3    H139375   3.294   6.757  17.350  0.9730  1.2227 -1.6331
 5060TIP3    H239376   3.291   6.616  17.404 -1.9650  1.9910  0.4517
 5061TIP3   OH239377   1.009   2.856  17.792 -0.2366 -0.2529 -0.2652
 5061TIP3    H139378   1.016   2.807  17.710  1.3698 -1.2488  0.4166
 5061TIP3    H239379   1.065   2.932  17.780  0.1688 -0.5104 -0.0279
 5062TIP3   OH239380   0.438   4.479  19.392 -0.3026 -0.5174 -0.2364
 5062TIP3    H139381   0.474   4.527  19.466 -1.5942  2.5187 -1.4357
 5062TIP3    H239382   0.344   4.474  19.411 -0.8339  1.2692 -2.0727
 5063TIP3   OH239383   5.770   6.467  17.809  0.0701 -0.7882  0.3895
 5063TIP3    H139384   5.827   6.393  17.787  1.2620 -0.1463  1.1651
 5063TIP3    H239385   5.817   6.513  17.878 -0.5521  0.7878 -0.1908
 5064TIP3   OH239386   1.452   5.439  17.354  0.2513  0.1406 -0.4182
 5064TIP3    H139387   1.514   5.446  17.426 -1.7636 -1.6324  1.6987
 5064TIP3    H239388   1.496   5.383  17.289  1.2878 -0.1336  0.4952
 5065TIP3   OH239389   2.647   3.081  18.385 -0.0073 -0.4766  0.3678
 5065TIP3    H139390   2.672   3.056  18.296 -2.0777  1.4460 -0.8515
 5065TIP3    H239391   2.696   3.161  18.402 -2.1053  1.1142 -0.5174
 5066TIP3   OH239392   3.492   1.174  18.962 -0.2496 -0.0643 -0.1646
 5066TIP3    H139393   3.408   1.144  18.926 -0.3560  1.0098 -0.8341
 5066TIP3    H239394   3.544   1.197  18.885  0.5641 -0.4348  0.2608
 5067TIP3   OH239395   0.306   2.899  19.276 -0.2411  0.0120 -0.4583
 5067TIP3    H139396   0.225   2.882  19.323 -0.5284  0.4862 -0.7717
 5067TIP3    H239397   0.372   2.846  19.321 -0.5019  0.5023  0.5228
 5068TIP3   OH239398   0.170   2.700  18.799  0.8442 -0.2269  1.1609
 5068TIP3    H139399   0.124   2.754  18.734  1.3249  0.4989  1.4089
 5068TIP3    H239400   0.107   2.687  18.869  1.6799  2.7435  2.6128
 5069TIP3   OH239401   5.459   2.676  17.956 -0.2165 -0.5657 -0.8445
 5069TIP3    H139402   5.447   2.736  18.029  0.8684  0.5144 -1.5224
 5069TIP3    H239403   5.552   2.654  17.957 -0.6535 -2.6442 -0.3320
 5070TIP3   OH239404   7.151   0.475  17.443 -0.7042  0.2048  0.4436
 5070TIP3    H139405   7.113   0.402  17.493 -0.3212 -0.6466 -0.4594
 5070TIP3    H239406   7.077   0.533  17.427 -1.0812 -0.1202  0.9482
 5071TIP3   OH239407   3.688   2.582  17.570  0.5783  0.1653 -0.2273
 5071TIP3    H139408   3.607   2.631  17.578  0.4623 -0.0344 -0.1748
 5071TIP3    H239409   3.681   2.538  17.485  0.1889 -0.6519  0.2226
 5072TIP3   OH239410   4.640   4.216  18.146 -0.6001 -0.7535  0.0643
 5072TIP3    H139411   4.720   4.220  18.094 -1.1138 -0.9884 -0.7677
 5072TIP3    H239412   4.650   4.137  18.199  0.2346 -0.1365  0.8666
 5073TIP3   OH239413   0.595   2.629  16.711 -0.3565 -0.0602  0.8099
 5073TIP3    H139414   0.572   2.554  16.767 -0.1329  0.7476  2.0360
 5073TIP3    H239415   0.512   2.659  16.674 -0.5468 -0.4575  0.9119
 5074TIP3   OH239416   0.425   5.842  17.514 -0.2354 -0.1606  0.2430
 5074TIP3    H139417   0.412   5.871  17.423  1.0888 -2.1226 -0.6424
 5074TIP3    H239418   0.496   5.896  17.547 -1.1957  1.0536  0.3946
 5075TIP3   OH239419   6.167   3.664  17.647 -0.2958 -0.3720  0.4973
 5075TIP3    H139420   6.161   3.640  17.739 -1.2132 -1.6218  0.1377
 5075TIP3    H239421   6.102   3.608  17.603  0.8301 -0.5382 -1.0434
 5076TIP3   OH239422   4.212   0.669  18.863 -0.0145  0.1814 -0.2257
 5076TIP3    H139423   4.246   0.627  18.942  0.4803  0.3799 -0.3356
 5076TIP3    H239424   4.275   0.737  18.842  0.3859 -0.5115 -1.3700
 5077TIP3   OH239425   3.258   7.488  18.010  0.0594 -0.3771  0.3616
 5077TIP3    H139426   3.354   7.490  18.016 -0.0069 -0.8475  1.8571
 5077TIP3    H239427   3.240   7.411  17.956  0.5173  0.1956 -0.6628
 5078TIP3   OH239428   6.936   5.191  19.422 -0.3119 -0.2794  0.1054
 5078TIP3    H139429   6.962   5.115  19.370  2.2438  1.0584 -0.7755
 5078TIP3    H239430   6.977   5.177  19.507 -2.3448 -1.2400  0.9837
 5079TIP3   OH239431   0.879   6.892  17.473  0.5546 -0.5345 -0.1690
 5079TIP3    H139432   0.929   6.954  17.526 -0.4052 -1.0183  1.3677
 5079TIP3    H239433   0.791   6.929  17.470 -0.3737 -2.3602  1.8479
 5080TIP3   OH239434   3.960   6.140  16.627 -0.1262 -0.0702 -0.0407
 5080TIP3    H139435   4.021   6.089  16.574 -0.5216 -0.5336 -0.0580
 5080TIP3    H239436   3.939   6.082  16.701 -2.0224 -0.7085 -1.0098
 5081TIP3   OH239437   3.416   7.225  17.516 -0.3132 -0.1004  0.1123
 5081TIP3    H139438   3.336   7.178  17.492  0.5904 -1.1764 -0.9401
 5081TIP3    H239439   3.419   7.300  17.458  0.5407 -1.2899 -1.4747
 5082TIP3   OH239440   7.548   4.649  17.413 -0.3334  0.2461 -0.1625
 5082TIP3    H139441   7.516   4.559  17.411 -0.8997  0.4568 -0.9777
 5082TIP3    H239442   7.627   4.647  17.359 -1.3802  0.6033 -1.7762
 5083TIP3   OH239443   7.157   6.861  17.110 -0.4793  0.7482 -0.3261
 5083TIP3    H139444   7.194   6.901  17.031  1.8847  0.4503  0.5446
 5083TIP3    H239445   7.214   6.891  17.181  0.1460 -2.4065  0.6574
 5084TIP3   OH239446   5.785   0.098  17.101  0.0877 -0.2502 -0.0220
 5084TIP3    H139447   5.830   0.036  17.159 -0.0121  1.4553  2.0136
 5084TIP3    H239448   5.693   0.092  17.127  0.4277  2.9186  2.6108
 5085TIP3   OH239449   5.015   3.792  17.169  0.4101 -0.0316  0.0746
 5085TIP3    H139450   5.018   3.697  17.155  0.4112 -0.2020  1.1868
 5085TIP3    H239451   5.097   3.812  17.214  0.4556  0.5232 -0.2437
 5086TIP3   OH239452   2.224   0.448  17.650  0.3541  0.2369  0.3285
 5086TIP3    H139453   2.148   0.455  17.707  0.3286 -2.7091  0.8124
 5086TIP3    H239454   2.294   0.492  17.698 -0.9017  2.7963 -0.0297
 5087TIP3   OH239455   0.595   7.489  18.206 -0.2442 -0.6199  0.9435
 5087TIP3    H139456   0.676   7.472  18.158  0.0951  0.5353  1.0708
 5087TIP3    H239457   0.616   7.466  18.297 -0.0433 -0.2639  0.9863
 5088TIP3   OH239458   6.203   3.323  19.339 -0.3810 -0.0982 -0.4592
 5088TIP3    H139459   6.277   3.312  19.280 -0.7117 -0.9039 -0.7477
 5088TIP3    H239460   6.127   3.328  19.280 -0.4964  1.5301 -0.2146
 5089TIP3   OH239461   0.676   3.261  17.413  0.0998  0.2929 -0.3051
 5089TIP3    H139462   0.710   3.348  17.391 -0.8123  0.2921 -1.9133
 5089TIP3    H239463   0.702   3.206  17.339 -1.8337 -0.0857 -0.7652
 5090TIP3   OH239464   3.547   0.981  19.154  0.1837  0.0781 -0.0251
 5090TIP3    H139465   3.527   1.056  19.098  0.1064  0.4631  0.5085
 5090TIP3    H239466   3.477   0.918  19.135  0.4641 -0.0151 -0.7517
 5091TIP3   OH239467   6.074   3.393  18.705 -0.3373 -0.9383 -0.0312
 5091TIP3    H139468   5.993   3.374  18.751 -0.8343  0.1052 -0.4354
 5091TIP3    H239469   6.141   3.343  18.752 -1.0578 -1.0778  0.8791
 5092TIP3   OH239470   0.172   3.784  18.534 -0.3637  0.8103 -0.7157
 5092TIP3    H139471   0.108   3.852  18.515 -1.4294 -0.3386 -1.3504
 5092TIP3    H239472   0.160   3.719  18.465 -0.4181 -0.7533  0.6956
 5093TIP3   OH239473   5.240   6.981  19.335  0.3860 -0.4252  0.0648
 5093TIP3    H139474   5.196   7.011  19.414 -0.5371 -0.2065 -0.5255
 5093TIP3    H239475   5.330   6.961  19.364 -0.0021 -0.5828  1.2056
 5094TIP3   OH239476   4.185   2.129  17.394 -0.5797 -0.1208  0.4211
 5094TIP3    H139477   4.095   2.129  17.360  0.1545 -0.6682 -1.6575
 5094TIP3    H239478   4.226   2.206  17.353  0.3522 -0.8345 -0.0256
 5095TIP3   OH239479   2.940   6.947  18.743  0.5782  0.7171  0.4401
 5095TIP3    H139480   2.932   6.994  18.826 -0.4850  0.9387  0.2250
 5095TIP3    H239481   2.964   7.014  18.679 -2.2766  1.3163 -0.1380
 5096TIP3   OH239482   5.940   0.656  16.665 -0.1945  0.2485  0.9281
 5096TIP3    H139483   5.994   0.699  16.732  1.5220 -0.2516 -0.0807
 5096TIP3    H239484   6.000   0.636  16.594 -1.7961 -0.0573 -0.4139
 5097TIP3   OH239485   1.684   2.295  18.109  0.1571 -0.1782  0.1771
 5097TIP3    H139486   1.770   2.330  18.086 -0.6541 -0.4615 -4.1108
 5097TIP3    H239487   1.642   2.365  18.158  2.4645  0.2862  1.6631
 5098TIP3   OH239488   6.280   5.006  17.297 -0.4832 -0.3958 -0.0219
 5098TIP3    H139489   6.319   5.046  17.220 -0.7887  0.5201  0.2805
 5098TIP3    H239490   6.189   4.989  17.273 -0.2256 -1.4323 -0.3272
 5099TIP3   OH239491   6.338   2.448  18.166 -0.4161 -0.0060  0.5779
 5099TIP3    H139492   6.384   2.455  18.082 -1.4400 -0.1875 -0.0291
 5099TIP3    H239493   6.349   2.357  18.193 -1.2677 -0.3296 -0.1007
 5100TIP3   OH239494   0.698   7.613  19.207 -0.1882 -0.0390 -0.2304
 5100TIP3    H139495   0.730   7.701  19.228 -0.3775 -0.1177  0.4174
 5100TIP3    H239496   0.630   7.596  19.272 -0.4004 -0.5284 -0.5702
 5101TIP3   OH239497   6.173   4.329  18.936  0.2613  0.0432  0.0573
 5101TIP3    H139498   6.092   4.278  18.933  0.1608  0.2093 -0.1184
 5101TIP3    H239499   6.148   4.414  18.973  0.9258 -0.9185  2.9256
 5102TIP3   OH239500   1.545   2.848  18.728  0.2900  0.3505  0.6139
 5102TIP3    H139501   1.619   2.800  18.764 -0.6397 -0.6566  1.2518
 5102TIP3    H239502   1.563   2.940  18.749  0.0066 -0.1470  3.3195
 5103TIP3   OH239503   7.317   1.045  18.462 -0.1811  0.7222 -0.2233
 5103TIP3    H139504   7.223   1.046  18.476 -0.1666 -0.6496  0.1040
 5103TIP3    H239505   7.328   1.063  18.369 -0.6197  3.1198  0.1210
 5104TIP3   OH239506   1.248   1.588  18.618 -0.6262 -0.5013  0.7945
 5104TIP3    H139507   1.192   1.600  18.541 -0.4582  1.3491  0.9208
 5104TIP3    H239508   1.192   1.608  18.692  0.3069  2.1791  0.8864
 5105TIP3   OH239509   7.559   3.394  17.903  0.4423  0.1228  0.0249
 5105TIP3    H139510   7.574   3.317  17.957  0.9323  0.1879 -0.0158
 5105TIP3    H239511   7.482   3.373  17.851 -0.4083  0.2872  1.1786
 5106TIP3   OH239512   2.848   0.400  17.188 -0.3661 -0.5122 -0.0595
 5106TIP3    H139513   2.793   0.368  17.259 -1.0696 -0.0499 -0.3866
 5106TIP3    H239514   2.794   0.390  17.109 -0.5761  1.3468 -0.1951
 5107TIP3   OH239515   1.202   0.746  17.415  0.0241  0.2628 -0.5176
 5107TIP3    H139516   1.239   0.792  17.490  1.0482  0.1603 -0.9397
 5107TIP3    H239517   1.148   0.812  17.371 -0.0934  0.4936 -0.0353
 5108TIP3   OH239518   3.231   1.454  17.929  0.1961  0.3817  0.0436
 5108TIP3    H139519   3.258   1.545  17.934  1.0990  0.1266  0.0521
 5108TIP3    H239520   3.311   1.407  17.905 -0.1732 -0.4440  0.3912
 5109TIP3   OH239521   7.000   3.499  18.424  0.2176 -0.3238 -0.3670
 5109TIP3    H139522   7.076   3.445  18.404  0.5859 -0.2253  0.6827
 5109TIP3    H239523   6.932   3.470  18.363  0.7360 -1.2262 -0.5261
 5110TIP3   OH239524   6.890   4.511  18.618 -0.3063 -0.1342  0.4996
 5110TIP3    H139525   6.809   4.547  18.655 -0.7822 -0.0397 -0.5835
 5110TIP3    H239526   6.958   4.537  18.679 -0.7524  1.8978  0.2238
 5111TIP3   OH239527   1.174   7.671  18.981  0.0161  0.5275 -0.2380
 5111TIP3    H139528   1.129   7.692  19.063 -0.2681  1.4146 -0.6097
 5111TIP3    H239529   1.236   7.742  18.969 -0.6869  0.9797 -1.3286
 5112TIP3   OH239530   7.384   1.354  18.595 -0.4404 -0.7954  0.8290
 5112TIP3    H139531   7.379   1.370  18.501  0.6713 -0.6790  0.7823
 5112TIP3    H239532   7.440   1.277  18.604 -0.1478 -0.5232  1.4141
 5113TIP3   OH239533   2.024   0.627  18.394 -0.6379 -0.3459 -0.2493
 5113TIP3    H139534   2.075   0.546  18.392 -1.7132 -1.0313 -0.9726
 5113TIP3    H239535   2.086   0.695  18.366 -0.3084 -1.2759 -1.9121
 5114TIP3   OH239536   4.044   1.838  18.058  0.3426 -0.0989 -0.1394
 5114TIP3    H139537   4.106   1.873  18.121  0.1163 -0.1130  0.0900
 5114TIP3    H239538   4.000   1.915  18.022  0.7257 -0.0637 -0.5493
 5115TIP3   OH239539   6.780   6.350  17.011  0.3186  0.2185 -0.4052
 5115TIP3    H139540   6.753   6.429  16.965 -0.4477  0.3280  0.2101
 5115TIP3    H239541   6.804   6.289  16.942 -2.1442 -0.1106 -1.0515
 5116TIP3   OH239542   5.517   2.911  18.150  0.8470 -0.0608 -0.5460
 5116TIP3    H139543   5.462   2.967  18.095  0.8993 -0.1675 -0.7073
 5116TIP3    H239544   5.605   2.920  18.113  1.3047  1.5384  0.8084
 5117TIP3   OH239545   1.174   0.812  19.062  0.2565 -0.1002  0.2278
 5117TIP3    H139546   1.117   0.880  19.099 -1.4366 -1.8449  0.9698
 5117TIP3    H239547   1.129   0.783  18.983  1.8128  0.7417 -1.0316
 5118TIP3   OH239548   7.230   2.981  18.879 -0.5109 -0.5607 -0.2770
 5118TIP3    H139549   7.148   2.989  18.927  0.0109 -0.4990  0.6285
 5118TIP3    H239550   7.270   2.902  18.914 -0.9365 -1.5457 -1.9070
 5119TIP3   OH239551   7.598   1.981  19.552 -0.1236  0.3042 -0.1250
 5119TIP3    H139552   7.687   2.015  19.540  0.4400 -0.5530  1.3614
 5119TIP3    H239553   7.605   1.887  19.534 -0.9333  0.3741 -0.8602
 5120TIP3   OH239554   7.597   5.065  16.882 -0.7004 -0.0906 -0.2394
 5120TIP3    H139555   7.629   5.042  16.795  1.1964 -0.6559  0.5554
 5120TIP3    H239556   7.544   4.990  16.909  0.1829 -0.7191 -0.2102
 5121TIP3   OH239557   6.102   6.647  18.180 -0.0441  0.1711 -0.3386
 5121TIP3    H139558   6.161   6.657  18.254 -1.3806 -0.2451  0.8434
 5121TIP3    H239559   6.121   6.722  18.124  0.6767  0.7780  0.6761
 5122TIP3   OH239560   1.661   0.879  18.806 -0.2877 -0.1390  0.1433
 5122TIP3    H139561   1.572   0.846  18.803  0.1569 -1.3646 -1.5302
 5122TIP3    H239562   1.714   0.804  18.833  0.2936  0.4440  0.6625
 5123TIP3   OH239563   5.802   2.054  18.780 -0.3114  0.3282  0.2977
 5123TIP3    H139564   5.854   2.080  18.703 -1.5920 -1.2111 -1.1790
 5123TIP3    H239565   5.861   1.997  18.830  0.9662  2.3224  1.2020
 5124TIP3   OH239566   6.508   5.628  17.746 -0.1058  0.1921  0.3583
 5124TIP3    H139567   6.491   5.664  17.833 -1.1650  0.8084 -0.0850
 5124TIP3    H239568   6.510   5.704  17.689 -1.5340 -0.3502 -0.4637
 5125TIP3   OH239569   5.694   2.983  18.467 -0.2350  0.1082  0.1996
 5125TIP3    H139570   5.633   2.917  18.434  0.1172 -1.3149  2.1984
 5125TIP3    H239571   5.780   2.941  18.460  0.2090  1.0633 -0.1371
 5126TIP3   OH239572   5.484   7.037  19.049  0.1545  0.0941  0.1804
 5126TIP3    H139573   5.526   6.963  19.094  1.1359  1.2313  1.2006
 5126TIP3    H239574   5.555   7.101  19.036 -1.1326  1.9650  1.7362
 5127TIP3   OH239575   1.176   0.699  19.360 -0.7865  0.5352  0.0132
 5127TIP3    H139576   1.163   0.778  19.412  0.3375  1.0759 -0.4888
 5127TIP3    H239577   1.094   0.688  19.311 -1.0597  1.2128  0.3102
 5128TIP3   OH239578   6.503   0.276  17.896 -0.0570 -0.0149 -0.6079
 5128TIP3    H139579   6.562   0.307  17.965  1.3630  0.1423 -1.8349
 5128TIP3    H239580   6.419   0.317  17.916 -0.4964 -2.0602  2.5476
 5129TIP3   OH239581   5.434   4.733  18.146 -0.1541  0.1858 -0.1589
 5129TIP3    H139582   5.493   4.748  18.073 -1.5983 -0.1808 -1.4411
 5129TIP3    H239583   5.357   4.786  18.127 -1.2626 -1.2036  0.2013
 5130TIP3   OH239584   1.666   3.065  18.327 -0.2755 -0.2130  0.5119
 5130TIP3    H139585   1.645   2.981  18.285 -0.6909 -0.8343  1.9054
 5130TIP3    H239586   1.598   3.075  18.394  0.0787  0.9916  0.7001
 5131TIP3   OH239587   7.122   6.569  16.814 -0.2320 -0.2219  0.1342
 5131TIP3    H139588   7.102   6.649  16.862  0.2904 -0.5507  0.9310
 5131TIP3    H239589   7.059   6.566  16.743 -0.1417  0.9887 -0.0074
 5132TIP3   OH239590   1.886   7.599  19.294 -0.3770  0.3369 -0.1545
 5132TIP3    H139591   1.821   7.668  19.306 -0.5717  0.3804 -1.3502
 5132TIP3    H239592   1.858   7.529  19.353 -1.5872  0.3164 -0.7180
 5133TIP3   OH239593   7.029   7.531  18.759 -0.1482 -0.2494  0.3460
 5133TIP3    H139594   6.998   7.486  18.680 -1.2326  1.5109 -0.2805
 5133TIP3    H239595   7.035   7.462  18.825 -0.2045 -1.5851 -0.9814
 5134TIP3   OH239596   2.531   5.192  18.038  0.2295  0.3041 -0.2991
 5134TIP3    H139597   2.571   5.138  17.970  1.5716  1.5422 -0.5586
 5134TIP3    H239598   2.467   5.246  17.991  0.2321  0.2531 -0.3625
 5135TIP3   OH239599   6.450   3.840  19.059 -0.0831  0.1977  0.0383
 5135TIP3    H139600   6.513   3.910  19.070 -0.2636  0.3505  0.1038
 5135TIP3    H239601   6.465   3.782  19.134  1.4567 -0.9394 -1.0753
 5136TIP3   OH239602   3.515   0.426  19.364 -0.0588  0.1839  0.0744
 5136TIP3    H139603   3.496   0.480  19.441 -1.5987  0.7050 -0.6406
 5136TIP3    H239604   3.575   0.479  19.311  3.9826 -1.5390  2.4230
 5137TIP3   OH239605   2.995   0.270  18.742  0.7869 -0.4466 -0.4731
 5137TIP3    H139606   2.979   0.215  18.666  2.0267  0.2414 -1.2509
 5137TIP3    H239607   2.913   0.266  18.792 -0.1300 -0.7101 -1.9488
 5138TIP3   OH239608   5.062   0.144  18.503 -0.2547 -0.3919  0.4310
 5138TIP3    H139609   5.140   0.199  18.505  1.0796 -2.1960  0.7411
 5138TIP3    H239610   4.996   0.197  18.458  0.3594  2.1160  2.3301
 5139TIP3   OH239611   6.170   3.025  19.232 -0.3516  0.3027 -0.0399
 5139TIP3    H139612   6.179   3.110  19.188  0.4982 -0.6398 -1.7897
 5139TIP3    H239613   6.076   3.007  19.228 -0.3615  0.4776 -1.0615
 5140TIP3   OH239614   0.567   3.998  18.684 -0.2254 -0.0773 -0.4373
 5140TIP3    H139615   0.613   4.081  18.672  0.8350 -0.6343 -0.3589
 5140TIP3    H239616   0.493   4.003  18.623 -2.0085  2.1823  1.7152
 5141TIP3   OH239617   7.324   2.977  16.957  0.7527 -0.2508 -0.1802
 5141TIP3    H139618   7.359   3.066  16.954  1.1075 -0.3438  0.7498
 5141TIP3    H239619   7.385   2.925  16.903  2.4224 -0.5064  1.8296
 5142TIP3   OH239620   4.176   1.589  17.036 -0.0815 -0.2715 -0.1145
 5142TIP3    H139621   4.271   1.590  17.047 -0.2743  0.3798  1.7034
 5142TIP3    H239622   4.148   1.506  17.075 -0.3621 -0.0127  0.2322
 5143TIP3   OH239623   5.640   6.072  19.275  0.5795 -0.3493 -0.7561
 5143TIP3    H139624   5.610   6.135  19.210  2.3049  1.7874  0.3975
 5143TIP3    H239625   5.559   6.036  19.312 -0.5203  1.7502 -0.9663
 5144TIP3   OH239626   5.857   7.348  17.025 -0.0564  0.4638 -0.0770
 5144TIP3    H139627   5.845   7.270  16.970 -0.6807  0.8193 -0.4490
 5144TIP3    H239628   5.875   7.419  16.964  2.8137  0.2498  0.3490
 5145TIP3   OH239629   3.649   1.020  17.823  0.6682 -0.4120 -0.2764
 5145TIP3    H139630   3.557   0.997  17.832  0.8456 -0.8779  0.4482
 5145TIP3    H239631   3.663   1.088  17.889  0.8749 -0.4635 -0.2666
 5146TIP3   OH239632   0.048   3.425  17.671  0.3099 -0.2049  0.0627
 5146TIP3    H139633   0.080   3.515  17.668 -1.1312  0.3099 -0.6929
 5146TIP3    H239634  -0.021   3.426  17.738 -0.5097 -0.4564 -0.7593
 5147TIP3   OH239635   1.365   4.420  17.124 -0.1283 -0.6626  0.4732
 5147TIP3    H139636   1.390   4.484  17.057 -0.0120 -0.0699  1.0712
 5147TIP3    H239637   1.444   4.366  17.136 -0.0663 -0.6058  0.3209
 5148TIP3   OH239638   6.097   2.816  18.889 -0.0413 -0.6759 -1.0407
 5148TIP3    H139639   6.043   2.780  18.959 -0.5372 -1.0607 -1.6041
 5148TIP3    H239640   6.136   2.739  18.847 -1.2611 -0.6170 -2.3757
 5149TIP3   OH239641   4.846   1.787  17.938 -0.3844  1.0528 -0.6058
 5149TIP3    H139642   4.752   1.805  17.940 -0.4697  0.5556 -0.1523
 5149TIP3    H239643   4.860   1.742  17.855 -0.3538  2.1377 -1.2185
 5150TIP3   OH239644   4.431   1.498  18.972 -0.1626 -0.0255 -0.4577
 5150TIP3    H139645   4.481   1.578  18.958  0.2242 -0.3336 -0.8470
 5150TIP3    H239646   4.471   1.458  19.050 -0.6269  0.3672 -0.0125
 5151TIP3   OH239647   2.635   1.305  16.821 -0.5834  0.3740 -0.1932
 5151TIP3    H139648   2.697   1.249  16.773 -0.0769  0.9541 -0.2276
 5151TIP3    H239649   2.561   1.248  16.839 -0.0736 -0.3161 -0.2255
 5152TIP3   OH239650   6.255   7.188  18.723 -0.2795  0.0518  0.9819
 5152TIP3    H139651   6.210   7.270  18.742  1.1593  0.8624  0.9685
 5152TIP3    H239652   6.185   7.122  18.726 -1.8390  1.4854 -0.9013
 5153TIP3   OH239653   0.137   0.495  16.594 -0.3606 -0.1873  0.2327
 5153TIP3    H139654   0.061   0.452  16.633 -0.8429  0.3144 -0.1408
 5153TIP3    H239655   0.200   0.501  16.666 -1.1213  0.4445  0.8717
 5154TIP3   OH239656   5.997   0.350  17.181 -0.3421  0.4655 -0.5391
 5154TIP3    H139657   6.041   0.361  17.265  1.1049  0.6326 -1.2853
 5154TIP3    H239658   5.931   0.419  17.180 -0.1444  0.6816  0.3254
 5155TIP3   OH239659   3.927   4.906  17.441 -0.0187 -0.4035  0.3666
 5155TIP3    H139660   3.949   4.887  17.532  0.1097 -1.0115  0.2127
 5155TIP3    H239661   3.892   4.824  17.407 -0.6635  0.0002  0.0434
 5156TIP3   OH239662   3.527   6.050  18.451  0.4457 -0.0421 -0.3089
 5156TIP3    H139663   3.473   6.031  18.375 -1.0493  1.4060  0.3436
 5156TIP3    H239664   3.498   6.136  18.481  2.0521  0.1008  1.0022
 5157TIP3   OH239665   4.540   6.454  18.903 -0.3714  0.0595  0.2699
 5157TIP3    H139666   4.512   6.387  18.840 -0.6330 -1.9711  2.4131
 5157TIP3    H239667   4.574   6.404  18.977 -0.9438  2.3169  2.1525
 5158TIP3   OH239668   1.212   6.489  17.869  0.3134  0.2672  0.3365
 5158TIP3    H139669   1.296   6.487  17.916  0.4849 -1.9354  0.0535
 5158TIP3    H239670   1.160   6.420  17.911 -1.5671  1.8828  0.8063
 5159TIP3   OH239671   5.277   3.964  18.056 -0.4595  0.6254 -0.4284
 5159TIP3    H139672   5.360   3.977  18.100 -0.7497  0.3461  0.2162
 5159TIP3    H239673   5.220   3.926  18.123 -0.9087  0.1979 -1.0387
 5160TIP3   OH239674   5.032   5.476  16.994 -0.8051 -0.1565 -0.1757
 5160TIP3    H139675   5.040   5.571  16.986  0.1868  0.2669  3.6366
 5160TIP3    H239676   5.110   5.441  16.950  0.5363  1.0871  1.1077
 5161TIP3   OH239677   2.565   4.343  16.779  0.3814  0.2014 -0.3491
 5161TIP3    H139678   2.637   4.398  16.812 -1.2084  1.1091  1.9030
 5161TIP3    H239679   2.590   4.254  16.802  1.1125  0.4326 -0.2269
 5162TIP3   OH239680   4.026   3.637  18.994  0.0714 -0.3947  0.0094
 5162TIP3    H139681   4.092   3.650  19.062 -0.2537  0.3484  0.1939
 5162TIP3    H239682   4.002   3.726  18.967 -1.5491 -0.6053  0.6285
 5163TIP3   OH239683   4.656   5.574  19.398 -0.1484 -0.2015 -0.7152
 5163TIP3    H139684   4.684   5.662  19.422  1.8027 -0.6592 -1.1328
 5163TIP3    H239685   4.560   5.577  19.402 -0.0763  1.3547  1.2470
 5164TIP3   OH239686   4.356   3.721  18.906 -0.1287 -0.4881  0.3647
 5164TIP3    H139687   4.436   3.671  18.890 -0.1452 -0.4452  0.1449
 5164TIP3    H239688   4.324   3.689  18.990 -0.4224 -1.2237 -0.0200
 5165TIP3   OH239689   5.034   5.903  19.160  0.4507 -0.1076 -0.1332
 5165TIP3    H139690   5.102   5.904  19.093  1.5024 -0.6855  0.9030
 5165TIP3    H239691   4.988   5.820  19.146  0.2280  0.0829 -0.5575
 5166TIP3   OH239692   1.582   2.688  16.980 -0.0775 -0.2899  0.2096
 5166TIP3    H139693   1.531   2.765  17.005  0.3285  0.5778 -1.5235
 5166TIP3    H239694   1.655   2.722  16.929  1.7244 -1.5984  1.7458
 5167TIP3   OH239695   0.002   5.385  16.116  0.0329  0.2557 -0.8926
 5167TIP3    H139696   0.047   5.454  16.166  0.7256  1.0752 -2.5653
 5167TIP3    H239697   0.065   5.314  16.111 -0.9715 -0.9151  1.5244
 5168TIP3   OH239698   3.312   3.959  17.631  0.2688  0.3916 -0.2225
 5168TIP3    H139699   3.313   3.918  17.718 -2.4661  1.6660  0.5141
 5168TIP3    H239700   3.286   3.889  17.572 -0.0648  0.0293  0.3417
 5169TIP3   OH239701   7.350   0.244  17.867 -0.2303 -0.8930 -0.5623
 5169TIP3    H139702   7.339   0.306  17.939 -1.6353 -1.4167 -0.2791
 5169TIP3    H239703   7.297   0.168  17.893  0.1427 -1.5396 -1.6374
 5170TIP3   OH239704   5.460   1.877  18.669 -0.5305  0.3110  0.3198
 5170TIP3    H139705   5.542   1.841  18.703 -0.6440  1.0897  1.4673
 5170TIP3    H239706   5.483   1.914  18.584 -0.2456 -1.7141 -0.5625
 5171TIP3   OH239707   3.239   2.649  18.586 -0.7679  0.5131  0.1502
 5171TIP3    H139708   3.265   2.741  18.594 -1.1834  0.5646  1.0885
 5171TIP3    H239709   3.320   2.600  18.601 -0.6195  0.7200  0.0273
 5172TIP3   OH239710   0.150   3.647  19.207 -0.7782 -0.4318  0.2238
 5172TIP3    H139711   0.104   3.621  19.287  0.7227  2.4434  2.1616
 5172TIP3    H239712   0.095   3.715  19.169  0.0377  0.4503  0.5807
 5173TIP3   OH239713   0.712   5.756  16.781 -0.4123 -0.2619  0.0997
 5173TIP3    H139714   0.744   5.666  16.774  0.4607  0.0448  0.0166
 5173TIP3    H239715   0.683   5.778  16.692  1.9046  0.4335 -0.5583
 5174TIP3   OH239716   2.869   4.121  17.238 -0.1328  0.4433  0.2386
 5174TIP3    H139717   2.785   4.101  17.280 -0.9037  2.2591 -0.3456
 5174TIP3    H239718   2.853   4.202  17.190  1.2409 -0.4935 -1.9886
 5175TIP3   OH239719   1.796   2.399  16.887 -0.2508  0.4078 -0.2961
 5175TIP3    H139720   1.835   2.471  16.936  0.6376  0.5714 -1.2184
 5175TIP3    H239721   1.760   2.341  16.955 -0.0848  1.2064  0.4945
 5176TIP3   OH239722   6.748   5.684  18.781  0.3487  0.4290 -0.3536
 5176TIP3    H139723   6.749   5.607  18.724 -1.2364  1.9567 -2.6126
 5176TIP3    H239724   6.684   5.662  18.849  0.7633 -0.6712 -0.2944
 5177TIP3   OH239725   1.333   6.619  17.658 -0.1971 -0.1490 -0.5730
 5177TIP3    H139726   1.427   6.615  17.673 -0.1958  0.0618 -0.5208
 5177TIP3    H239727   1.295   6.562  17.725 -0.2215  1.1192  0.5244
 5178TIP3   OH239728   5.250   2.518  18.304  0.5376 -0.2183 -0.2883
 5178TIP3    H139729   5.248   2.535  18.210  0.3165 -1.3182 -0.4980
 5178TIP3    H239730   5.280   2.600  18.343 -1.6691  1.0361 -1.1015
 5179TIP3   OH239731   1.750   2.779  18.939 -0.4481 -0.1510 -0.2901
 5179TIP3    H139732   1.817   2.848  18.937 -0.5636 -0.0299 -0.0464
 5179TIP3    H239733   1.792   2.703  18.900 -0.0763 -0.1547  0.1122
 5180TIP3   OH239734   2.547   2.187  17.342 -0.1644 -0.0624 -0.2706
 5180TIP3    H139735   2.593   2.218  17.420  3.6890  0.4404 -2.4702
 5180TIP3    H239736   2.577   2.097  17.331  1.8649  0.7883 -2.6578
 5181TIP3   OH239737   0.784   4.483  18.228  0.1175  0.4877 -0.3406
 5181TIP3    H139738   0.741   4.561  18.262  0.9404  0.3650  1.0476
 5181TIP3    H239739   0.833   4.514  18.152 -0.0836  1.1953 -0.1883
 5182TIP3   OH239740   0.456   7.111  17.870  0.1430 -0.0183 -0.5348
 5182TIP3    H139741   0.497   7.045  17.926  0.1149 -0.0629 -0.5667
 5182TIP3    H239742   0.453   7.190  17.924 -1.6431 -0.5530  0.2098
 5183TIP3   OH239743   1.338   5.050  16.876  0.5706  0.3037 -0.0058
 5183TIP3    H139744   1.306   5.098  16.953 -0.3705 -1.9708  1.1070
 5183TIP3    H239745   1.262   5.042  16.819  0.6212 -0.1862 -0.0078
 5184TIP3   OH239746   4.456   2.903  17.376 -0.4280 -0.2944  0.1064
 5184TIP3    H139747   4.493   2.828  17.422 -0.3123 -0.9920 -1.0943
 5184TIP3    H239748   4.375   2.923  17.423  0.0294 -0.5352  1.0266
 5185TIP3   OH239749   6.742   6.404  17.281 -0.2027 -0.3110  0.2567
 5185TIP3    H139750   6.647   6.406  17.293 -0.3738 -1.2291 -0.7740
 5185TIP3    H239751   6.755   6.370  17.192  1.0807  0.7124  0.0085
 5186TIP3   OH239752   3.387   4.068  16.724  0.7442 -0.6138 -0.2120
 5186TIP3    H139753   3.372   4.040  16.634  1.6111 -0.8869 -0.2867
 5186TIP3    H239754   3.329   4.013  16.776 -1.8042  1.3789 -0.7691
 5187TIP3   OH239755   6.538   4.253  18.301  0.4231  0.0770 -0.7613
 5187TIP3    H139756   6.610   4.313  18.279 -0.0424  1.3142  0.8853
 5187TIP3    H239757   6.536   4.252  18.396 -0.8763 -1.0405 -0.7715
 5188TIP3   OH239758   0.854   3.590  18.704 -0.4552  0.9916 -0.3351
 5188TIP3    H139759   0.776   3.556  18.661 -0.3148  1.0087 -0.6042
 5188TIP3    H239760   0.830   3.680  18.729  0.0840  1.6569 -2.0519
 5189TIP3   OH239761   2.671   6.332  18.316  0.1631  0.2134  0.3261
 5189TIP3    H139762   2.612   6.362  18.247 -0.1661 -0.5412  0.2737
 5189TIP3    H239763   2.640   6.376  18.395 -0.4120 -0.0968  0.2776
 5190TIP3   OH239764   0.423   5.863  16.813 -0.0583  0.2578  0.3923
 5190TIP3    H139765   0.329   5.854  16.830  0.5929 -3.0183  3.4871
 5190TIP3    H239766   0.437   5.819  16.729 -1.1632 -0.0218  0.3445
 5191TIP3   OH239767   2.000   0.382  18.145  0.7825  0.0544  0.4745
 5191TIP3    H139768   1.909   0.397  18.121  0.7141  1.0500  1.2570
 5191TIP3    H239769   2.049   0.398  18.064  0.3420  0.5184  0.2914
 5192TIP3   OH239770   0.397   3.065  17.247  0.3187 -0.2291  0.3300
 5192TIP3    H139771   0.463   2.999  17.269  1.4588  0.8256  0.1524
 5192TIP3    H239772   0.440   3.123  17.185 -0.5943  0.7993  0.6267
 5193TIP3   OH239773   1.100   5.509  17.186  0.0342  0.1711  0.0050
 5193TIP3    H139774   1.173   5.564  17.215 -0.6006  0.7775  0.4611
 5193TIP3    H239775   1.074   5.547  17.101  0.1464  0.0473 -0.0849
 5194TIP3   OH239776   6.055   6.994  17.353 -0.6595 -0.3621 -0.4788
 5194TIP3    H139777   5.997   6.990  17.277 -2.5795  0.0131  0.9009
 5194TIP3    H239778   6.002   7.032  17.422  1.4824  0.7116  0.6856
 5195TIP3   OH239779   1.264   3.656  17.355 -0.0636 -0.0471  0.3957
 5195TIP3    H139780   1.228   3.575  17.319 -0.7907  0.2004  0.5617
 5195TIP3    H239781   1.330   3.627  17.418 -1.7466 -0.5796  2.0000
 5196TIP3   OH239782   1.896   0.906  17.417 -0.1733  0.7118  0.0283
 5196TIP3    H139783   1.961   0.943  17.477  0.7130 -0.0678 -0.4083
 5196TIP3    H239784   1.889   0.814  17.444 -1.7322  0.9688  0.5899
 5197TIP3   OH239785   1.319   6.021  17.241  0.6448 -0.1056 -0.1683
 5197TIP3    H139786   1.265   6.014  17.162 -0.6480  1.0085  0.5827
 5197TIP3    H239787   1.322   6.114  17.260 -2.0056 -0.4733  2.9857
 5198TIP3   OH239788   3.483   1.332  18.095 -0.6857  0.2061 -0.1341
 5198TIP3    H139789   3.435   1.261  18.138  0.5374 -0.2886  0.4733
 5198TIP3    H239790   3.464   1.409  18.147  1.7174 -0.5909  2.1572
 5199TIP3   OH239791   5.557   3.187  18.586 -0.9053 -0.1680  0.0978
 5199TIP3    H139792   5.619   3.160  18.519 -1.0989 -0.8649  0.1855
 5199TIP3    H239793   5.494   3.115  18.590 -1.7204  0.5258  0.0073
 5200TIP3   OH239794   7.121   5.266  17.580  0.6934 -0.0391  0.0662
 5200TIP3    H139795   7.105   5.224  17.665 -1.3415  0.3096 -0.0995
 5200TIP3    H239796   7.130   5.193  17.519 -2.0813 -0.3385 -0.0930
 5201TIP3   OH239797   7.426   6.775  19.274  0.3953 -0.5132 -0.0472
 5201TIP3    H139798   7.414   6.783  19.179  0.0852 -0.3186  0.0061
 5201TIP3    H239799   7.458   6.860  19.301 -2.5482  0.5549  0.4616
 5202TIP3   OH239800   4.436   3.588  17.608  0.1541 -0.0245 -0.6068
 5202TIP3    H139801   4.427   3.532  17.531 -0.0036  1.7068 -1.9356
 5202TIP3    H239802   4.350   3.631  17.616  0.0254 -0.5066  0.8305
 5203TIP3   OH239803   3.316   1.771  17.322  0.3987 -0.1497  0.4225
 5203TIP3    H139804   3.357   1.854  17.295  0.7563 -0.4151  0.1387
 5203TIP3    H239805   3.360   1.705  17.269 -1.8314 -0.2639 -1.4852
 5204TIP3   OH239806   2.421   5.507  18.385 -0.0876  0.7137  0.1763
 5204TIP3    H139807   2.463   5.571  18.327  0.8726 -0.2414 -0.2283
 5204TIP3    H239808   2.328   5.524  18.376  0.0637  0.9291 -1.2751
 5205TIP3   OH239809   1.548   5.731  17.807  0.0958 -0.1845  0.4319
 5205TIP3    H139810   1.593   5.710  17.888 -0.0953  0.9133  0.8399
 5205TIP3    H239811   1.489   5.803  17.830  0.6421  0.7189 -0.8528
 5206TIP3   OH239812   3.602   0.667  19.269 -0.2193  0.5924 -0.0020
 5206TIP3    H139813   3.606   0.688  19.176 -2.3520 -2.0442 -0.7966
 5206TIP3    H239814   3.651   0.738  19.311  0.7771  1.9049 -3.0781
 5207TIP3   OH239815   3.960   7.273  17.984 -0.2266 -0.1908 -0.2637
 5207TIP3    H139816   3.986   7.260  18.075  0.2723 -1.6071 -0.5893
 5207TIP3    H239817   4.037   7.310  17.942  0.0466 -0.9187 -0.4194
 5208TIP3   OH239818   5.308   2.967  18.976  0.0545  0.1599  0.4414
 5208TIP3    H139819   5.369   3.035  18.949 -0.0627  0.6881  1.4535
 5208TIP3    H239820   5.358   2.910  19.035  0.5261 -1.4195 -1.3909
 5209TIP3   OH239821   4.278   5.857  18.382  0.3270 -0.4204 -0.5665
 5209TIP3    H139822   4.362   5.891  18.351  0.5896  0.6782  1.2315
 5209TIP3    H239823   4.213   5.916  18.344  0.5581  0.2254  0.0342
 5210TIP3   OH239824   6.926   0.680  18.130 -0.1235  0.1764 -0.1069
 5210TIP3    H139825   6.932   0.621  18.206 -0.6022 -0.2103 -0.3604
 5210TIP3    H239826   6.861   0.745  18.155  0.1835  0.4239  0.0566
 5211TIP3   OH239827   5.500   3.725  18.656  0.3444  0.7594 -0.6567
 5211TIP3    H139828   5.589   3.724  18.690 -0.0791 -1.0546  0.5564
 5211TIP3    H239829   5.478   3.818  18.649  2.3259  1.2417 -1.0508
 5212TIP3   OH239830   0.518   2.971  16.534 -0.0730 -0.6046 -0.0838
 5212TIP3    H139831   0.600   2.921  16.542 -0.2907 -0.9949 -0.2557
 5212TIP3    H239832   0.452   2.913  16.573  0.2063  0.9643  2.9939
 5213TIP3   OH239833   4.962   1.784  18.783 -0.5927  0.2384 -0.1003
 5213TIP3    H139834   4.989   1.838  18.708  0.0815  1.2052  0.8122
 5213TIP3    H239835   4.873   1.756  18.762  0.2095 -1.0617 -2.1138
 5214TIP3   OH239836   7.240   3.266  19.285 -0.4300  0.2822  0.3373
 5214TIP3    H139837   7.227   3.177  19.252  0.8322  0.0862  0.3066
 5214TIP3    H239838   7.165   3.315  19.251 -0.4312 -0.4575 -0.8050
 5215TIP3   OH239839   4.647   5.378  18.600  0.3301 -0.6468 -0.4851
 5215TIP3    H139840   4.719   5.382  18.537 -0.2976  1.3824 -1.1315
 5215TIP3    H239841   4.689   5.388  18.685  0.8860 -0.2484 -0.8036
 5216TIP3   OH239842   2.320   6.476  16.625 -0.4363  0.3554 -0.1381
 5216TIP3    H139843   2.253   6.491  16.692  0.3210 -0.0297  0.7200
 5216TIP3    H239844   2.367   6.559  16.619  0.0877  0.1159  0.4929
 5217TIP3   OH239845   0.697   3.827  17.424 -0.0468 -0.3109 -0.0721
 5217TIP3    H139846   0.727   3.810  17.513 -0.1400  0.4671  0.1196
 5217TIP3    H239847   0.624   3.889  17.434 -0.0901 -0.2505 -0.6821
 5218TIP3   OH239848   0.641   0.657  17.372 -0.1330 -0.5540 -0.0497
 5218TIP3    H139849   0.729   0.694  17.377  0.1729 -1.0329 -1.4867
 5218TIP3    H239850   0.611   0.676  17.283 -0.9168 -1.6275 -0.0445
 5219TIP3   OH239851   2.825   7.033  16.753  0.5700 -0.7737  0.1466
 5219TIP3    H139852   2.761   6.968  16.781 -0.5223 -0.8796 -2.3047
 5219TIP3    H239853   2.798   7.056  16.664 -0.3048  4.5019  1.4438
 5220TIP3   OH239854   3.872   5.678  17.197 -0.4695  0.4510 -0.0847
 5220TIP3    H139855   3.919   5.722  17.268 -0.2784  1.7047 -0.9509
 5220TIP3    H239856   3.863   5.746  17.130  0.3064 -0.9912 -1.7096
 5221TIP3   OH239857   2.637   3.492  19.235 -0.1150 -0.1259 -0.4641
 5221TIP3    H139858   2.594   3.488  19.149 -0.9993 -1.0706  0.0026
 5221TIP3    H239859   2.610   3.411  19.279  0.3082  0.3597  0.7167
 5222TIP3   OH239860   6.024   4.650  18.571  0.2346  0.4557  0.8130
 5222TIP3    H139861   6.112   4.611  18.570 -0.0775 -0.3737  2.4806
 5222TIP3    H239862   6.034   4.732  18.523  1.8993  0.3099  0.8463
 5223TIP3   OH239863   2.087   1.899  18.900  0.7362 -0.2961  0.4487
 5223TIP3    H139864   1.994   1.887  18.880  0.7409  1.2842 -0.6913
 5223TIP3    H239865   2.091   1.899  18.995 -0.4756 -0.2073  0.5143
 5224TIP3   OH239866   3.705   4.390  17.379  0.5495 -0.0951  0.1555
 5224TIP3    H139867   3.614   4.411  17.357  0.2635 -0.9940  0.4479
 5224TIP3    H239868   3.725   4.313  17.326  0.5436 -0.9928  1.4065
 5225TIP3   OH239869   6.805   0.854  17.454 -0.0026  0.1278 -0.3595
 5225TIP3    H139870   6.719   0.889  17.433  0.6055  1.8010 -0.1780
 5225TIP3    H239871   6.787   0.778  17.510 -1.4002 -0.6148 -1.7479
 5226TIP3   OH239872   1.302   5.856  17.953  0.2174  0.4444  0.2739
 5226TIP3    H139873   1.277   5.779  18.004  0.5606  0.4397  0.4328
 5226TIP3    H239874   1.224   5.911  17.954 -0.1638 -0.0736 -0.1676
 5227TIP3   OH239875   3.520   0.175  18.068  0.5743  0.4642  0.1564
 5227TIP3    H139876   3.508   0.120  17.990  0.7678  0.2808  0.2523
 5227TIP3    H239877   3.574   0.248  18.038 -0.4823  1.1147 -0.1990
 5228TIP3   OH239878   7.593   0.191  17.773 -0.0390  0.0375  0.0773
 5228TIP3    H139879   7.611   0.118  17.832 -0.2044 -0.6447 -0.6933
 5228TIP3    H239880   7.498   0.202  17.778 -0.4861 -1.9071 -2.1435
 5229TIP3   OH239881   0.126   0.402  18.237  0.2588 -0.0285 -0.0474
 5229TIP3    H139882   0.103   0.398  18.144 -1.9484 -0.9839  0.4800
 5229TIP3    H239883   0.175   0.322  18.253  0.6716  0.1515 -0.3802
 5230TIP3   OH239884   5.678   1.360  16.763  0.6287 -0.4222  0.1387
 5230TIP3    H139885   5.632   1.414  16.827  0.6456  1.2431 -1.1975
 5230TIP3    H239886   5.617   1.288  16.744 -0.1972  0.1556  0.5572
 5231TIP3   OH239887   1.330   6.757  17.155 -0.4072 -0.2473  0.1785
 5231TIP3    H139888   1.344   6.822  17.224 -0.9613 -0.1633  0.2166
 5231TIP3    H239889   1.236   6.759  17.139 -0.3878 -0.8277 -0.0315
 5232TIP3   OH239890   5.984   0.320  18.432 -0.7127 -0.2057  0.1935
 5232TIP3    H139891   5.932   0.282  18.361 -1.5365  1.6584 -0.2776
 5232TIP3    H239892   6.074   0.302  18.407 -1.0480 -1.5310 -0.1520
 5233TIP3   OH239893   1.083   0.099  17.142 -0.5875 -0.2903 -0.1940
 5233TIP3    H139894   1.125   0.016  17.119  0.4955  0.8119 -2.6821
 5233TIP3    H239895   1.022   0.116  17.070 -2.6199 -0.0237  1.4882
 5234TIP3   OH239896   0.412   0.814  17.748 -0.3805 -0.0637 -0.2828
 5234TIP3    H139897   0.360   0.865  17.810 -1.1462 -0.4684 -0.5790
 5234TIP3    H239898   0.501   0.817  17.783 -0.8779 -0.7020  1.1084
 5235TIP3   OH239899   1.819   0.715  18.588  0.2143 -0.2669 -0.4721
 5235TIP3    H139900   1.787   0.660  18.659  0.7677 -0.5969 -0.4751
 5235TIP3    H239901   1.878   0.659  18.538  0.3503  0.1607 -0.8037
 5236TIP3   OH239902   6.419   7.333  16.694  0.1739 -0.7615 -0.7754
 5236TIP3    H139903   6.369   7.287  16.761  2.2059 -2.9442 -0.5998
 5236TIP3    H239904   6.478   7.390  16.743 -0.8402  0.4290 -0.9057
 5237TIP3   OH239905   1.085   6.968  18.545 -0.1521 -0.0584 -0.0814
 5237TIP3    H139906   1.114   7.056  18.522  1.5955 -0.7061 -0.5609
 5237TIP3    H239907   1.077   6.968  18.640  1.0775  0.2962  0.0401
 5238TIP3   OH239908   3.700   1.091  19.403 -0.7913 -0.1482  0.3423
 5238TIP3    H139909   3.623   1.065  19.353 -1.6155 -0.3323  1.6667
 5238TIP3    H239910   3.694   1.187  19.408 -0.3078 -0.0634 -0.5110
 5239TIP3   OH239911   3.193   7.042  17.562 -0.5570 -0.5377 -0.1164
 5239TIP3    H139912   3.129   6.984  17.519 -0.0289 -0.5362 -0.9187
 5239TIP3    H239913   3.267   6.985  17.581 -1.2910 -0.8763  2.0854
 5240TIP3   OH239914   2.557   7.218  17.579 -0.2760 -0.9047  0.0203
 5240TIP3    H139915   2.621   7.170  17.632 -0.8976 -0.5310  1.1433
 5240TIP3    H239916   2.571   7.310  17.603 -0.2640 -0.6883 -0.8051
 5241TIP3   OH239917   7.057   2.055  18.731  0.4516  0.1630  0.1711
 5241TIP3    H139918   7.128   2.008  18.774 -0.1064  0.1659  1.1228
 5241TIP3    H239919   6.978   2.028  18.778 -0.1524  0.3422 -0.7178
 5242TIP3   OH239920   6.210   7.419  18.193  0.4973  0.4713 -0.0198
 5242TIP3    H139921   6.290   7.368  18.194  1.2392  1.5363 -1.3162
 5242TIP3    H239922   6.186   7.426  18.100 -0.0730  1.6838  0.1882
 5243TIP3   OH239923   6.724   1.614  18.532 -0.0447  0.1638  0.1308
 5243TIP3    H139924   6.774   1.591  18.454  0.0297  0.4788  0.0872
 5243TIP3    H239925   6.701   1.706  18.521  0.1391  0.2675  0.5720
 5244TIP3   OH239926   7.071   5.656  17.289 -0.3027 -0.6573 -0.2794
 5244TIP3    H139927   7.125   5.606  17.350  0.9177  1.3449  0.3515
 5244TIP3    H239928   7.127   5.668  17.212 -0.2116  0.5369 -0.0419
 5245TIP3   OH239929   4.563   0.225  18.507 -0.5229 -0.0734 -0.0189
 5245TIP3    H139930   4.575   0.319  18.518  1.7382 -0.2496 -0.3767
 5245TIP3    H239931   4.488   0.217  18.449 -0.5317  1.5304 -0.2734
 5246TIP3   OH239932   6.219   0.601  18.116 -0.3072 -0.5468  0.0111
 5246TIP3    H139933   6.220   0.513  18.079  0.4978  0.4215 -2.4908
 5246TIP3    H239934   6.129   0.631  18.102 -0.1649 -0.4090 -0.6476
 5247TIP3   OH239935   4.414   4.503  17.680 -0.4421  0.0198  0.3334
 5247TIP3    H139936   4.361   4.540  17.609  0.0129 -2.5787 -1.5203
 5247TIP3    H239937   4.351   4.462  17.738 -0.6638 -1.0612 -0.6286
 5248TIP3   OH239938   0.045   0.136  17.092 -0.1073  0.8804 -0.6122
 5248TIP3    H139939   0.140   0.128  17.104 -0.2461 -0.4182 -0.2368
 5248TIP3    H239940   0.009   0.129  17.181 -0.5060  2.5484 -0.6151
 5249TIP3   OH239941   6.334   2.941  19.006  0.3869  0.3388 -0.0753
 5249TIP3    H139942   6.262   2.901  18.957  0.9415 -0.1602 -0.4946
 5249TIP3    H239943   6.292   2.975  19.085  0.1833 -3.0727  1.4714
 5250TIP3   OH239944   6.206   4.611  19.051  0.3721 -0.0909  0.2297
 5250TIP3    H139945   6.154   4.637  18.975  1.3434  0.2603 -0.3290
 5250TIP3    H239946   6.245   4.692  19.082 -0.2943 -0.1765  1.3386
 5251TIP3   OH239947   5.413   6.590  18.541 -0.5300 -0.3396  0.4695
 5251TIP3    H139948   5.465   6.513  18.564 -0.4609 -0.5865 -0.4682
 5251TIP3    H239949   5.347   6.557  18.480  0.6399  0.6495 -1.4024
 5252TIP3   OH239950   5.358   6.090  16.763  0.6311  0.1091 -0.6233
 5252TIP3    H139951   5.301   6.014  16.766  0.2448  0.4158  1.0168
 5252TIP3    H239952   5.357   6.118  16.671 -0.1834 -1.1181 -1.0062
 5253TIP3   OH239953   2.411   1.016  18.159 -0.4590  0.1220  0.0373
 5253TIP3    H139954   2.440   0.939  18.110  0.5618  0.2134  0.4870
 5253TIP3    H239955   2.487   1.043  18.209 -0.3289  2.3392 -1.2392
 5254TIP3   OH239956   4.341   1.478  18.722 -0.6573 -0.7179  0.4614
 5254TIP3    H139957   4.424   1.505  18.681 -0.6170  0.1027  1.0440
 5254TIP3    H239958   4.357   1.488  18.816 -1.4966 -0.2953  0.5704
 5255TIP3   OH239959   7.186   5.668  17.910 -0.0822  0.1347  0.0892
 5255TIP3    H139960   7.118   5.723  17.950  0.7493  1.2993 -0.0367
 5255TIP3    H239961   7.224   5.724  17.843 -0.0137 -1.0474 -0.8802
 5256TIP3   OH239962   7.678   4.831  17.148 -0.2553 -0.5523  0.1255
 5256TIP3    H139963   7.715   4.820  17.236 -0.2005  1.0085  0.3154
 5256TIP3    H239964   7.671   4.741  17.114  2.0116 -1.0495  0.7633
 5257TIP3   OH239965   1.381   6.182  17.562  0.4521 -0.0744  0.2700
 5257TIP3    H139966   1.406   6.252  17.501 -4.3480  2.4898  0.7734
 5257TIP3    H239967   1.392   6.221  17.649 -1.6994 -0.0100  0.5743
 5258TIP3   OH239968   7.257   4.245  17.600  0.1915 -0.6177  0.0585
 5258TIP3    H139969   7.288   4.164  17.642  0.2932 -0.2554  0.6882
 5258TIP3    H239970   7.163   4.248  17.619  0.1961 -0.5599  0.0712
 5259TIP3   OH239971   2.530   4.365  18.225 -0.3268 -0.3106  0.8515
 5259TIP3    H139972   2.488   4.307  18.289  0.4015  0.1393  1.7709
 5259TIP3    H239973   2.613   4.389  18.266 -0.1936  0.6213  0.0683
 5260TIP3   OH239974   2.973   3.946  17.790 -0.3656  0.5841 -0.7905
 5260TIP3    H139975   3.047   4.005  17.804  0.1557 -0.3271  0.4800
 5260TIP3    H239976   2.900   4.004  17.766  1.0630  1.3856 -3.5337
 5261TIP3   OH239977   0.131   2.491  18.209 -0.2007  0.0191 -0.6902
 5261TIP3    H139978   0.042   2.481  18.176 -0.0452 -0.1270 -1.0704
 5261TIP3    H239979   0.125   2.563  18.272 -0.9243 -1.1112  0.5906
 5262TIP3   OH239980   3.115   2.735  18.263  0.0044 -0.5942  0.1645
 5262TIP3    H139981   3.193   2.720  18.210  0.0198 -0.1042  0.0388
 5262TIP3    H239982   3.043   2.699  18.211 -0.0060  0.0664 -0.2965
 5263TIP3   OH239983   5.670   3.289  17.665  0.0555  0.4412  0.4664
 5263TIP3    H139984   5.633   3.336  17.740  0.5848  1.3596  0.1680
 5263TIP3    H239985   5.698   3.205  17.701 -0.8853  0.3533  1.0183
 5264TIP3   OH239986   5.626   3.982  17.868 -0.2686  0.0535 -0.4297
 5264TIP3    H139987   5.668   4.059  17.906  1.3299  0.1637 -2.2432
 5264TIP3    H239988   5.538   3.982  17.905  0.3580  1.5359  1.2336
 5265TIP3   OH239989   4.541   3.410  18.370  0.4136 -0.3810  0.0129
 5265TIP3    H139990   4.499   3.354  18.436  0.4486  0.6197  0.9207
 5265TIP3    H239991   4.630   3.376  18.363  0.2159 -0.9001  0.0023
 5266TIP3   OH239992   6.246   3.924  17.898 -0.1500  0.3070  0.2096
 5266TIP3    H139993   6.337   3.893  17.902 -0.3001 -0.2308 -0.5403
 5266TIP3    H239994   6.249   4.009  17.943  0.6376  0.1023  0.5701
 5267TIP3   OH239995   6.247   5.069  18.387  0.0640 -0.2101  0.0971
 5267TIP3    H139996   6.230   4.986  18.344 -1.2054 -1.1124  2.1688
 5267TIP3    H239997   6.297   5.046  18.465 -0.6512  0.8703  0.9218
 5268TIP3   OH239998   4.578   2.050  19.063 -0.1169  0.4531  0.4532
 5268TIP3    H139999   4.651   2.082  19.010 -0.0078 -0.8570 -0.2153
 5268TIP3    H240000   4.575   2.110  19.137 -0.0922  2.1756 -0.8585
 5269TIP3   OH240001   1.840   3.285  17.399  0.3435  0.2958 -0.7018
 5269TIP3    H140002   1.924   3.330  17.391  1.1416 -1.1750 -0.8572
 5269TIP3    H240003   1.834   3.261  17.492  1.5134 -2.1610 -1.1867
 5270TIP3   OH240004   3.564   1.379  19.341 -0.1163 -0.6726  0.0056
 5270TIP3    H140005   3.643   1.429  19.362  0.5911 -1.7501 -0.0399
 5270TIP3    H240006   3.510   1.385  19.420 -0.2775  0.5784 -0.1786
 5271TIP3   OH240007   6.821   0.420  18.286 -0.0869  0.1181 -0.6798
 5271TIP3    H140008   6.850   0.457  18.369  1.2612 -2.1031 -0.0621
 5271TIP3    H240009   6.902   0.411  18.235 -0.4719 -1.1206 -1.1140
 5272TIP3   OH240010   6.756   3.652  17.772 -0.1879  0.3263  0.2254
 5272TIP3    H140011   6.724   3.709  17.842  0.4117 -0.1677  0.9290
 5272TIP3    H240012   6.679   3.630  17.720 -0.7221  0.3539  0.9974
 5273TIP3   OH240013   5.823   3.281  17.446 -0.0784  0.8354 -0.5406
 5273TIP3    H140014   5.763   3.303  17.517  1.2653  1.1082  0.5511
 5273TIP3    H240015   5.799   3.192  17.421 -0.1158  0.4584  0.7676
 5274TIP3   OH240016   2.457   0.562  18.534  0.2547  0.1935  0.7040
 5274TIP3    H140017   2.471   0.648  18.573  1.1401  0.5856 -0.4020
 5274TIP3    H240018   2.526   0.555  18.468  0.5862 -1.6333  1.1973
 5275TIP3   OH240019   0.741   1.515  17.878  0.1311  0.2422  0.0726
 5275TIP3    H140020   0.754   1.597  17.927 -1.0470  1.3556 -1.3852
 5275TIP3    H240021   0.785   1.530  17.794  1.3576 -1.3043  0.3840
 5276TIP3   OH240022   1.252   4.757  18.088  0.1916  0.3678 -0.1529
 5276TIP3    H140023   1.181   4.775  18.026  0.0902 -0.0632 -0.1666
 5276TIP3    H240024   1.237   4.818  18.160 -0.9618 -0.6079  0.4497
 5277TIP3   OH240025   4.297   2.919  16.973 -0.0945  0.4663 -0.3212
 5277TIP3    H140026   4.323   2.884  16.888  0.3628 -1.8315  0.6943
 5277TIP3    H240027   4.260   2.844  17.020  0.4630  1.4509  1.8280
 5278TIP3   OH240028   2.626   6.140  16.638  0.0308  0.0243 -0.1256
 5278TIP3    H140029   2.605   6.079  16.709  1.3884 -0.8077 -0.3984
 5278TIP3    H240030   2.664   6.216  16.681 -0.4030  0.0992  0.1244
 5279TIP3   OH240031   5.691   6.532  19.254 -0.6334 -0.7316  0.7203
 5279TIP3    H140032   5.761   6.498  19.199 -0.2047 -1.1383  1.4985
 5279TIP3    H240033   5.617   6.473  19.240 -0.1116 -1.6090  1.5434
 5280TIP3   OH240034   3.639   2.085  19.039 -0.2908  0.1381  0.0238
 5280TIP3    H140035   3.715   2.119  19.086  0.2065 -1.8047  0.7304
 5280TIP3    H240036   3.564   2.112  19.092 -0.2417  2.7241 -1.0676
 5281TIP3   OH240037   1.930   0.495  16.495 -1.1501 -0.1553 -0.0568
 5281TIP3    H140038   1.980   0.507  16.576  1.1139  2.5044 -1.6361
 5281TIP3    H240039   1.867   0.567  16.495 -0.8449  0.1180 -0.8313
 5282TIP3   OH240040   4.833   5.847  17.774  0.0223  0.1968 -0.1754
 5282TIP3    H140041   4.738   5.836  17.773 -0.1939  1.6254  0.9898
 5282TIP3    H240042   4.868   5.759  17.763 -1.4599 -0.6109  1.1709
 5283TIP3   OH240043   7.171   0.814  19.534 -0.4282  0.2552 -0.4799
 5283TIP3    H140044   7.256   0.857  19.545 -0.9420  0.8155  1.6856
 5283TIP3    H240045   7.191   0.732  19.487  1.6695 -0.7099  1.9093
 5284TIP3   OH240046   7.169   7.594  18.356 -0.0719  0.4922  0.4225
 5284TIP3    H140047   7.180   7.687  18.336 -0.9610  0.1714 -1.7753
 5284TIP3    H240048   7.107   7.561  18.291  0.9152 -1.8553  0.5450
 5285TIP3   OH240049   1.397   4.050  18.172  0.0237  0.4456 -0.1265
 5285TIP3    H140050   1.323   4.110  18.165  1.5601  2.8836  2.4823
 5285TIP3    H240051   1.474   4.105  18.160  1.4928 -1.3380  0.5945
 5286TIP3   OH240052   1.153   3.165  18.170 -0.0281 -0.3155 -0.5533
 5286TIP3    H140053   1.095   3.212  18.109  0.8195  1.4386 -0.0797
 5286TIP3    H240054   1.241   3.179  18.135  0.7282  2.5360  2.0285
 5287TIP3   OH240055   7.562   3.083  18.429  0.4495  0.2740  0.0326
 5287TIP3    H140056   7.656   3.100  18.435  0.4913  0.6036 -1.2391
 5287TIP3    H240057   7.530   3.092  18.519  1.8005 -0.9441  0.6879
 5288TIP3   OH240058   6.570   4.512  17.226 -0.3812  0.1734  0.0357
 5288TIP3    H140059   6.516   4.479  17.298  1.7800  1.9160  2.6510
 5288TIP3    H240060   6.619   4.436  17.195 -1.3774 -0.6175  0.3384
 5289TIP3   OH240061   5.872   3.521  18.180  0.6994 -0.3527 -0.1554
 5289TIP3    H140062   5.944   3.475  18.137  1.8210 -0.8339  2.1140
 5289TIP3    H240063   5.856   3.471  18.260 -2.4666 -0.4873 -0.7418
 5290TIP3   OH240064   3.234   4.738  17.224 -0.7583  0.1369 -0.1980
 5290TIP3    H140065   3.168   4.761  17.289 -1.0824 -0.4710 -0.3047
 5290TIP3    H240066   3.212   4.649  17.198 -0.6279  0.3750 -1.1443
 5291TIP3   OH240067   5.313   2.071  17.647  0.5800  0.2061  0.7811
 5291TIP3    H140068   5.308   2.167  17.642 -0.9563  0.1521  0.7497
 5291TIP3    H240069   5.373   2.047  17.576  0.9236  1.1462  0.7406
 5292TIP3   OH240070   2.079   2.151  18.132 -0.1790  0.2703 -0.3492
 5292TIP3    H140071   2.134   2.162  18.209 -0.0209 -0.7181 -0.3051
 5292TIP3    H240072   2.000   2.107  18.165  0.2003 -0.8257 -0.8488
 5293TIP3   OH240073   4.025   7.661  18.155 -0.6767 -0.3345 -0.2078
 5293TIP3    H140074   3.970   7.684  18.080 -1.1212 -2.2475 -0.5198
 5293TIP3    H240075   4.105   7.626  18.117 -0.4422 -0.2648  0.2160
 5294TIP3   OH240076   3.930   2.773  19.356 -0.3582 -0.1836 -0.4052
 5294TIP3    H140077   3.839   2.804  19.361 -0.3528 -0.2938  0.7383
 5294TIP3    H240078   3.975   2.839  19.304 -1.1248 -0.2016 -1.1144
 5295TIP3   OH240079   7.312   7.079  17.642 -0.3699  0.1154  0.3404
 5295TIP3    H140080   7.379   7.123  17.695 -0.1928 -0.0693  0.2706
 5295TIP3    H240081   7.350   6.993  17.622 -0.9809 -0.3210  1.0248
 5296TIP3   OH240082   0.400   4.403  18.599  0.2328 -0.6602  0.0687
 5296TIP3    H140083   0.385   4.497  18.610 -0.8833 -0.7517 -0.5387
 5296TIP3    H240084   0.398   4.389  18.504  0.1907 -1.3230  0.1633
 5297TIP3   OH240085   2.566   2.868  19.088  0.3594  0.0046  0.1900
 5297TIP3    H140086   2.511   2.938  19.122 -0.6197 -1.3570  1.5801
 5297TIP3    H240087   2.519   2.835  19.012 -0.1209 -0.3211  0.6203
 5298TIP3   OH240088   1.205   4.542  19.182 -0.2745  0.2136  0.7645
 5298TIP3    H140089   1.116   4.534  19.147  0.2488 -0.7709 -0.4209
 5298TIP3    H240090   1.249   4.600  19.119  0.1900 -0.1224  0.7748
 5299TIP3   OH240091   1.422   0.574  18.514  0.8411 -0.1150  0.4129
 5299TIP3    H140092   1.485   0.583  18.442  4.2037  1.0363  3.2715
 5299TIP3    H240093   1.401   0.663  18.540 -0.1632 -0.5161  1.0440
 5300TIP3   OH240094   6.652   6.649  16.755  0.0124 -0.1058  0.0589
 5300TIP3    H140095   6.581   6.686  16.703  1.7244  1.2188 -1.4512
 5300TIP3    H240096   6.669   6.564  16.714 -0.7050 -0.4590  0.4686
 5301TIP3   OH240097   5.993   1.448  19.201  0.5583  0.1106  0.5779
 5301TIP3    H140098   5.945   1.432  19.121  0.2043  0.7274  0.6600
 5301TIP3    H240099   5.945   1.401  19.269  1.6756 -1.6369  0.2116
 5302TIP3   OH240100   5.201   3.858  17.344 -0.5253  0.3325  0.0290
 5302TIP3    H140101   5.222   3.946  17.376 -0.5006 -0.0313  1.0489
 5302TIP3    H240102   5.181   3.808  17.423 -2.1238 -0.1724 -0.6381
 5303TIP3   OH240103   7.113   1.315  18.260  0.3791  0.2930  0.3457
 5303TIP3    H140104   7.164   1.394  18.244 -0.8960  0.5956 -3.1556
 5303TIP3    H240105   7.023   1.347  18.269 -0.1106 -0.6910 -0.8518
 5304TIP3   OH240106   6.253   0.788  17.070  0.1386  0.7284 -0.1593
 5304TIP3    H140107   6.325   0.760  17.014  1.1708  0.8830  1.0419
 5304TIP3    H240108   6.221   0.707  17.109 -1.9731  0.3265 -2.4639
 5305TIP3   OH240109   7.094   6.590  18.082  0.2012 -0.9117 -0.0429
 5305TIP3    H140110   7.158   6.539  18.131 -1.7515 -1.3640  2.1807
 5305TIP3    H240111   7.050   6.644  18.147 -1.6472 -0.5738 -1.4656
 5306TIP3   OH240112   3.823   6.413  16.975  0.4567  0.2898  0.4500
 5306TIP3    H140113   3.912   6.385  16.998  0.5243 -0.3481 -0.5241
 5306TIP3    H240114   3.807   6.373  16.889 -0.5432  0.9076  0.3385
 5307TIP3   OH240115   1.583   4.944  18.708  0.1473 -0.3858  0.2443
 5307TIP3    H140116   1.595   4.943  18.613 -0.8576 -0.2056  0.1043
 5307TIP3    H240117   1.599   5.035  18.733 -2.4791  0.2860 -0.1911
 5308TIP3   OH240118   6.644   1.399  18.138  0.0239 -0.1986 -0.6520
 5308TIP3    H140119   6.608   1.445  18.062 -0.0831 -0.3209 -0.6766
 5308TIP3    H240120   6.723   1.356  18.105  0.5858  0.6472 -0.4258
 5309TIP3   OH240121   3.074   6.600  17.151  0.1957 -0.2519  0.1237
 5309TIP3    H140122   3.040   6.689  17.157  1.2737  0.4523 -2.5725
 5309TIP3    H240123   3.163   6.611  17.115  0.9900 -2.3416  1.2818
 5310TIP3   OH240124   5.331   0.247  18.837  0.1554 -0.6627 -0.3029
 5310TIP3    H140125   5.287   0.171  18.877  0.8887  0.0939  2.1368
 5310TIP3    H240126   5.404   0.209  18.789 -0.0440 -1.5834  0.0846
 5311TIP3   OH240127   2.905   6.910  18.414 -0.0588 -0.2253 -0.0306
 5311TIP3    H140128   2.981   6.939  18.466  0.3591 -1.0473 -0.1621
 5311TIP3    H240129   2.849   6.987  18.408  0.5583  0.2717  0.4535
 5312TIP3   OH240130   0.784   1.000  19.278  0.2177 -0.0243  0.0844
 5312TIP3    H140131   0.733   0.970  19.352  1.1262  1.9871  1.6259
 5312TIP3    H240132   0.723   1.051  19.225  0.0651  0.4721  0.7179
 5313TIP3   OH240133   7.556   1.816  18.808  0.2064 -0.5003 -0.4109
 5313TIP3    H140134   7.614   1.740  18.810 -0.6995 -1.3313  3.9680
 5313TIP3    H240135   7.494   1.797  18.738  1.2379 -2.7687 -0.7905
 5314TIP3   OH240136   1.043   3.696  19.179 -0.0105  0.2525  0.4379
 5314TIP3    H140137   1.019   3.628  19.117 -2.5734  0.8695  0.6497
 5314TIP3    H240138   1.010   3.664  19.263 -0.3302  1.2678  0.7168
 5315TIP3   OH240139   0.380   6.948  17.029 -0.3670  0.3490  0.0086
 5315TIP3    H140140   0.301   6.895  17.040 -1.3897  1.9317  0.7032
 5315TIP3    H240141   0.357   7.013  16.963  0.2992  0.9216  0.3253
 5316TIP3   OH240142   2.871   2.375  16.623  0.2821  0.1265  0.4042
 5316TIP3    H140143   2.818   2.305  16.660  0.8614 -0.7571 -0.3767
 5316TIP3    H240144   2.809   2.448  16.609 -0.7119 -0.8327 -0.3768
 5317TIP3   OH240145   0.145   6.283  18.296  0.3784 -0.7579 -0.3907
 5317TIP3    H140146   0.134   6.319  18.209  1.5015 -0.2525 -0.3427
 5317TIP3    H240147   0.060   6.243  18.317 -1.2906  2.5306 -0.1193
 5318TIP3   OH240148   1.307   7.574  18.213 -0.0954 -0.1442  0.0682
 5318TIP3    H140149   1.389   7.565  18.261  1.8371  0.1147 -2.8957
 5318TIP3    H240150   1.287   7.486  18.181  0.1566  0.1091 -0.8357
 5319TIP3   OH240151   2.301   7.641  17.463 -0.3135 -0.1199 -0.1504
 5319TIP3    H140152   2.323   7.582  17.390 -2.3320  0.7309 -1.5450
 5319TIP3    H240153   2.207   7.656  17.454 -0.1410  2.0931  1.0603
 5320TIP3   OH240154   5.846   1.530  18.625  0.1179 -0.0500 -0.3810
 5320TIP3    H140155   5.927   1.552  18.577 -0.0754 -0.0800 -0.7240
 5320TIP3    H240156   5.860   1.567  18.712 -0.3237  1.7540 -1.0309
 5321TIP3   OH240157   0.027   0.096  19.543 -0.5482  0.0001  0.0300
 5321TIP3    H140158  -0.066   0.089  19.524 -0.5904  1.8027 -0.6631
 5321TIP3    H240159   0.037   0.184  19.580  1.0245  0.2902 -0.9927
 5322TIP3   OH240160   4.799   1.226  19.276 -0.6450 -0.1735  0.3044
 5322TIP3    H140161   4.832   1.315  19.285 -0.1627 -0.3202  0.0021
 5322TIP3    H240162   4.761   1.206  19.362  0.0975 -0.0130  0.6819
 5323TIP3   OH240163   0.249   2.441  17.581  0.2130  0.0956 -0.1016
 5323TIP3    H140164   0.258   2.366  17.523  2.3586  2.1550 -2.6828
 5323TIP3    H240165   0.319   2.432  17.646 -0.9273 -1.1672  1.0202
 5324TIP3   OH240166   4.716   4.554  18.381 -0.6463  0.1974 -0.0410
 5324TIP3    H140167   4.752   4.539  18.468 -2.0730 -0.2108  0.5104
 5324TIP3    H240168   4.649   4.486  18.371  1.6151 -1.8760 -2.7574
 5325TIP3   OH240169   7.227   1.088  19.323  0.5494  0.3014 -0.0874
 5325TIP3    H140170   7.233   1.076  19.228  1.4262 -0.9406  0.1067
 5325TIP3    H240171   7.133   1.093  19.341  0.3660  0.1514 -0.9703
 5326TIP3   OH240172   6.310   1.073  16.848  0.7516  0.3621  0.6320
 5326TIP3    H140173   6.319   1.161  16.884 -0.7281  0.6882  0.2620
 5326TIP3    H240174   6.217   1.065  16.826  0.9226 -1.1652  0.3273
 5327TIP3   OH240175   6.764   0.763  16.747 -0.3874  0.4387 -0.0460
 5327TIP3    H140176   6.727   0.693  16.800 -1.4306  1.2823  0.4031
 5327TIP3    H240177   6.852   0.734  16.725 -0.8763 -1.0900 -0.0577
 5328TIP3   OH240178   3.991   5.759  18.615 -0.2584  0.5300  0.1859
 5328TIP3    H140179   3.933   5.688  18.643  0.6435  0.3872  1.8453
 5328TIP3    H240180   4.061   5.714  18.566 -0.5224  0.4662 -0.1324
 5329TIP3   OH240181   0.310   2.363  17.180 -0.2079  0.1845  0.7129
 5329TIP3    H140182   0.316   2.348  17.274  2.5412 -0.1054  0.5763
 5329TIP3    H240183   0.364   2.295  17.141 -2.0837 -0.3374 -1.2093
 5330TIP3   OH240184   7.250   1.954  18.925  0.6644  0.5485 -0.0355
 5330TIP3    H140185   7.331   1.966  18.874  1.7730  1.2641  1.7981
 5330TIP3    H240186   7.259   1.866  18.963  0.7797  0.7900  0.4992
 5331TIP3   OH240187   0.827   6.228  16.436  0.7760  0.4377 -0.2138
 5331TIP3    H140188   0.816   6.232  16.341 -1.0709  0.0811 -0.0451
 5331TIP3    H240189   0.857   6.138  16.452 -0.9266 -0.1813 -0.3189
 5332TIP3   OH240190   2.683   2.766  17.971 -0.1903  0.6623 -0.4855
 5332TIP3    H140191   2.616   2.756  18.039  2.0430  1.5970  2.0393
 5332TIP3    H240192   2.689   2.680  17.930 -0.8775 -0.2665  1.2548
 5333TIP3   OH240193   2.251   0.778  19.145  0.2799  0.2166 -0.7050
 5333TIP3    H140194   2.277   0.753  19.057  0.0318 -0.6218 -0.5436
 5333TIP3    H240195   2.168   0.824  19.134  0.6123  0.7680 -0.9723
 5334TIP3   OH240196   3.451   4.516  17.198 -0.1783  0.7335  0.0454
 5334TIP3    H140197   3.396   4.477  17.130  0.6715 -1.5484  0.5882
 5334TIP3    H240198   3.390   4.536  17.269 -0.7368  1.0721 -0.5127
 5335TIP3   OH240199   2.438   3.584  18.692  0.4020  0.1261 -0.4652
 5335TIP3    H140200   2.513   3.606  18.636  0.6401  1.3091  0.2797
 5335TIP3    H240201   2.362   3.589  18.635  0.8465 -0.8216 -1.1700
 5336TIP3   OH240202   4.695   4.320  18.960  0.0994  0.3519 -0.1511
 5336TIP3    H140203   4.685   4.372  19.040  0.1180 -0.8989  0.7085
 5336TIP3    H240204   4.616   4.337  18.910  0.9010  2.5961 -0.7820
 5337TIP3   OH240205   1.407   5.906  18.999 -0.5931 -0.3650  0.1328
 5337TIP3    H140206   1.472   5.931  18.933  0.4259 -0.9059  0.9104
 5337TIP3    H240207   1.452   5.843  19.055 -1.4099  0.1235  1.3879
 5338TIP3   OH240208   6.415   3.648  18.691  0.3693 -0.0064 -0.4753
 5338TIP3    H140209   6.331   3.603  18.699  0.2382  0.4656  1.3965
 5338TIP3    H240210   6.423   3.668  18.598 -0.5768 -1.9335 -1.0328
 5339TIP3   OH240211   2.241   3.403  19.095 -0.2798 -0.1769 -0.0908
 5339TIP3    H140212   2.304   3.467  19.128  0.1342  0.5262 -2.0572
 5339TIP3    H240213   2.161   3.418  19.145  0.3169  0.7745  0.5886
 5340TIP3   OH240214   3.994   0.150  17.363 -0.1673 -0.1391 -0.0198
 5340TIP3    H140215   3.920   0.199  17.326  0.2581  0.1596 -0.4859
 5340TIP3    H240216   4.009   0.079  17.301 -0.5760 -0.6778  0.4918
 5341TIP3   OH240217   2.489   5.984  18.742 -0.6043  0.1637  0.1695
 5341TIP3    H140218   2.543   6.030  18.677  0.5673 -1.1264  0.1859
 5341TIP3    H240219   2.545   5.913  18.773 -2.1990 -1.0034  0.4634
 5342TIP3   OH240220   1.883   4.382  16.962  0.5334 -0.0717  0.4365
 5342TIP3    H140221   1.849   4.362  16.874  1.6180  0.5711 -0.1447
 5342TIP3    H240222   1.885   4.298  17.006 -1.2088 -0.2286  0.2867
 5343TIP3   OH240223   0.932   7.203  18.274 -0.0682 -0.1675 -0.2344
 5343TIP3    H140224   0.875   7.242  18.208  0.0544  0.4162 -0.0061
 5343TIP3    H240225   0.876   7.142  18.321 -0.6462  0.7607  0.3081
 5344TIP3   OH240226   6.876   5.896  17.643  0.4405 -0.2381  0.0988
 5344TIP3    H140227   6.781   5.891  17.656  0.5047  0.6425  0.9519
 5344TIP3    H240228   6.909   5.814  17.679  0.2480  0.5912  2.3076
 5345TIP3   OH240229   2.218   5.866  19.101  0.5004 -0.2851 -0.1456
 5345TIP3    H140230   2.268   5.859  19.020  1.5181 -0.5378  0.4770
 5345TIP3    H240231   2.147   5.803  19.092 -1.1727  1.7011 -2.0166
 5346TIP3   OH240232   1.258   0.867  18.481  0.0355 -0.1841  0.0225
 5346TIP3    H140233   1.220   0.808  18.417 -0.5335 -0.1711  0.3387
 5346TIP3    H240234   1.258   0.953  18.439 -2.4888  0.2926  0.8323
 5347TIP3   OH240235   7.096   1.741  19.186 -0.3800  0.1895  0.3534
 5347TIP3    H140236   7.025   1.706  19.132  1.7487  0.0213 -2.5714
 5347TIP3    H240237   7.175   1.702  19.150  1.4202  2.0227  2.0548
 5348TIP3   OH240238   5.201   2.450  19.095  0.3102  0.2364 -0.3183
 5348TIP3    H140239   5.245   2.426  19.013 -1.6328  0.4694 -1.4984
 5348TIP3    H240240   5.221   2.379  19.155 -0.1655 -1.1684 -1.7553
 5349TIP3   OH240241   6.642   4.670  18.226  0.1982 -0.1114 -0.2419
 5349TIP3    H140242   6.689   4.653  18.144 -2.0860 -0.2561 -1.6114
 5349TIP3    H240243   6.709   4.668  18.294  2.0562 -0.7435 -2.0235
 5350TIP3   OH240244   1.999   4.223  18.970 -0.1867 -0.5077 -0.3513
 5350TIP3    H140245   1.916   4.214  19.017 -0.4071  0.3600 -0.5627
 5350TIP3    H240246   2.065   4.194  19.033 -0.6308 -1.1249 -0.1516
 5351TIP3   OH240247   6.313   2.258  18.364 -0.1169 -0.0893  0.2770
 5351TIP3    H140248   6.397   2.247  18.409 -0.1868  1.5605  0.8577
 5351TIP3    H240249   6.258   2.303  18.428 -1.3413 -0.8074 -0.2367
 5352TIP3   OH240250   7.460   6.623  17.508 -0.0201 -0.0891 -0.0043
 5352TIP3    H140251   7.387   6.571  17.543  1.1385 -1.2577  0.7613
 5352TIP3    H240252   7.489   6.574  17.430 -0.8183  1.0359 -1.0438
 5353TIP3   OH240253   2.782   6.653  17.708 -0.2554 -0.7752 -0.0288
 5353TIP3    H140254   2.870   6.633  17.674 -0.0351 -1.3559  0.8282
 5353TIP3    H240255   2.731   6.574  17.689 -0.3536 -0.7746  0.2254
 5354TIP3   OH240256   2.895   1.124  16.682 -0.4679  0.3085  0.2201
 5354TIP3    H140257   2.905   1.219  16.690 -0.0616  0.2915 -0.0428
 5354TIP3    H240258   2.801   1.110  16.673 -0.5979  0.6310  0.9744
 5355TIP3   OH240259   0.692   1.166  17.173  0.0691  0.1327  0.6818
 5355TIP3    H140260   0.699   1.249  17.125 -1.2505 -0.0019  0.2219
 5355TIP3    H240261   0.638   1.110  17.117  1.0065 -1.0932  0.9352
 5356TIP3   OH240262   6.433   4.309  18.854  0.0378  0.1547  0.0492
 5356TIP3    H140263   6.341   4.333  18.860  0.3044  0.9645  1.2393
 5356TIP3    H240264   6.433   4.221  18.817 -1.1818  0.3679 -0.4851
 5357TIP3   OH240265   3.247   4.478  17.959  0.4563  0.5760 -0.7426
 5357TIP3    H140266   3.288   4.400  17.994 -0.3179  0.3863 -0.2232
 5357TIP3    H240267   3.159   4.450  17.932  0.3774  1.1301 -1.0971
 5358TIP3   OH240268   6.766   5.107  17.634  0.1393  0.9542 -0.3418
 5358TIP3    H140269   6.807   5.193  17.637 -1.0452  1.5347 -0.4120
 5358TIP3    H240270   6.686   5.117  17.685 -1.5043  0.7292 -2.7190
 5359TIP3   OH240271   0.979   3.675  16.869 -0.2747  0.1024  0.1194
 5359TIP3    H140272   0.934   3.734  16.929 -0.1539  1.5180 -1.1293
 5359TIP3    H240273   1.071   3.679  16.895 -0.5260 -1.0781  1.2681
 5360TIP3   OH240274   4.321   1.171  17.469  0.0608  0.2050 -0.2465
 5360TIP3    H140275   4.246   1.113  17.453  2.4220 -2.7282 -1.7877
 5360TIP3    H240276   4.342   1.206  17.382  1.6314 -0.6227 -0.2265
 5361TIP3   OH240277   3.519   5.406  19.036 -0.0719  0.0020  0.7222
 5361TIP3    H140278   3.564   5.326  19.007  0.2030  0.6837 -0.8500
 5361TIP3    H240279   3.561   5.428  19.119 -0.0902 -1.4332  1.1355
 5362TIP3   OH240280   6.034   0.446  17.912  0.2585 -0.0958 -0.3067
 5362TIP3    H140281   6.027   0.513  17.844 -0.1473  1.0518  0.8400
 5362TIP3    H240282   5.944   0.435  17.944  0.5795 -0.0135  0.6335
 5363TIP3   OH240283   0.634   4.231  17.020 -0.3516 -0.4984  0.2607
 5363TIP3    H140284   0.544   4.224  17.051 -0.0723  0.6975  1.4266
 5363TIP3    H240285   0.629   4.291  16.946 -0.5035 -0.3162  0.4174
 5364TIP3   OH240286   3.474   3.660  17.489 -0.7852  0.0811  0.6370
 5364TIP3    H140287   3.436   3.721  17.552  1.1830  0.9479  1.0341
 5364TIP3    H240288   3.487   3.579  17.539 -2.4568 -0.3903  0.3741
 5365TIP3   OH240289   6.031   6.362  18.445 -0.0028  0.0126  0.7509
 5365TIP3    H140290   6.109   6.388  18.396 -0.7343  0.4655 -0.2258
 5365TIP3    H240291   6.064   6.329  18.528  1.3976 -1.8711 -0.4657
 5366TIP3   OH240292   2.646   6.803  17.414  0.0789  0.0548  0.9143
 5366TIP3    H140293   2.657   6.730  17.474  0.3735  0.3994  1.2831
 5366TIP3    H240294   2.573   6.853  17.450 -0.9834 -0.7429 -0.0363
 5367TIP3   OH240295   1.676   3.999  16.778  0.0672 -0.5289 -0.2640
 5367TIP3    H140296   1.763   3.964  16.795  0.9970  1.3142 -0.9719
 5367TIP3    H240297   1.645   3.951  16.700  2.4630  1.9209 -2.9524
 5368TIP3   OH240298   0.200   4.609  17.790  0.4418  0.9715  0.2436
 5368TIP3    H140299   0.219   4.671  17.861  0.7243  0.4295  0.6544
 5368TIP3    H240300   0.189   4.525  17.835  0.9467  0.5586 -0.3945
 5369TIP3   OH240301   3.046   1.713  18.230 -0.4243  0.3183  0.4651
 5369TIP3    H140302   3.134   1.728  18.264 -0.4089  0.1491  0.5019
 5369TIP3    H240303   2.988   1.741  18.300 -0.4205  1.5113  0.0033
 5370TIP3   OH240304   4.332   2.170  18.702 -0.0378 -0.2209  0.5083
 5370TIP3    H140305   4.395   2.098  18.710 -2.0831 -2.1973 -0.1330
 5370TIP3    H240306   4.338   2.197  18.611 -0.6776 -0.9811  0.2312
 5371TIP3   OH240307   1.456   5.205  19.066 -0.2649 -0.1751  0.0372
 5371TIP3    H140308   1.550   5.190  19.065  0.0114  1.3782  0.1811
 5371TIP3    H240309   1.417   5.119  19.052  1.1564 -0.9950  0.9891
 5372TIP3   OH240310   7.618   0.083  17.343 -0.3377 -0.2951  0.0021
 5372TIP3    H140311   7.527   0.111  17.336 -0.8318 -1.9914 -1.3281
 5372TIP3    H240312   7.627   0.050  17.432 -0.9139  0.2433  0.2584
 5373TIP3   OH240313   1.949   2.278  17.748 -0.5064 -0.7008 -0.2317
 5373TIP3    H140314   1.999   2.312  17.674  0.3964 -1.7672 -0.1284
 5373TIP3    H240315   2.013   2.232  17.802 -0.8663  1.1852  1.9796
 5374TIP3   OH240316   3.257   6.008  19.493 -0.0047 -0.2355  0.4048
 5374TIP3    H140317   3.213   6.081  19.449 -0.8679 -0.7795  0.3433
 5374TIP3    H240318   3.334   5.990  19.438 -0.0472  0.3154  0.1598
 5375TIP3   OH240319   5.622   1.562  18.208  0.2962 -0.5321  0.7748
 5375TIP3    H140320   5.594   1.638  18.156 -1.3090 -0.9883  0.8940
 5375TIP3    H240321   5.711   1.582  18.235  1.0930 -0.1322 -1.8760
 5376TIP3   OH240322   0.758   6.227  17.350  0.1778 -0.4203  0.4907
 5376TIP3    H140323   0.703   6.201  17.424  0.3638 -1.0066  0.4267
 5376TIP3    H240324   0.795   6.312  17.375  0.8321 -0.9593  1.3927
 5377TIP3   OH240325   2.587   0.734  18.885  0.0003  0.1476 -0.0226
 5377TIP3    H140326   2.599   0.785  18.965  0.1289  0.9236 -0.5308
 5377TIP3    H240327   2.565   0.799  18.818 -0.4190 -0.5259 -0.5549
 5378TIP3   OH240328   2.641   4.615  17.349  0.1815 -0.2574 -0.4817
 5378TIP3    H140329   2.571   4.680  17.356  0.6306  0.1731  0.0516
 5378TIP3    H240330   2.620   4.549  17.415 -0.6470 -1.0333 -1.4758
 5379TIP3   OH240331   4.914   6.876  17.431  0.3150 -0.3875 -0.0629
 5379TIP3    H140332   4.882   6.812  17.368 -0.5984  1.8252 -1.9788
 5379TIP3    H240333   4.835   6.913  17.470  0.8033  0.1234  0.4590
 5380TIP3   OH240334   0.564   3.154  16.731  0.1700  0.2929 -0.0542
 5380TIP3    H140335   0.538   3.092  16.662  0.7919  0.3539 -0.3473
 5380TIP3    H240336   0.630   3.107  16.781 -1.3384 -0.3311  1.4550
 5381TIP3   OH240337   2.851   1.243  17.841  0.0030 -0.9188 -0.3185
 5381TIP3    H140338   2.932   1.221  17.887 -0.0158 -3.2281 -1.2756
 5381TIP3    H240339   2.864   1.333  17.812  3.5139 -2.0435 -2.8684
 5382TIP3   OH240340   4.679   7.009  17.452 -0.4010  0.6843 -0.1155
 5382TIP3    H140341   4.612   6.952  17.414  0.2185  0.3275 -0.6965
 5382TIP3    H240342   4.646   7.098  17.439 -0.0561  0.5956 -1.8282
 5383TIP3   OH240343   7.355   6.598  17.005  0.3299 -0.7466  0.2697
 5383TIP3    H140344   7.293   6.625  16.937  0.7804  1.1822  0.5526
 5383TIP3    H240345   7.435   6.575  16.957  0.3836 -0.1885  0.0873
 5384TIP3   OH240346   6.869   1.316  18.025  0.5277 -0.1109  0.5337
 5384TIP3    H140347   6.906   1.334  17.939  0.2148 -0.9509  0.2034
 5384TIP3    H240348   6.913   1.236  18.053 -0.6305 -0.8305  0.3605
 5385TIP3   OH240349   7.402   6.056  16.326  0.0683 -0.2352 -0.0569
 5385TIP3    H140350   7.370   6.144  16.306 -0.1846 -0.5282 -0.9658
 5385TIP3    H240351   7.374   6.002  16.252  1.7905 -0.7054 -0.4130
 5386TIP3   OH240352   4.970   7.325  18.336  0.3595  0.2320 -0.0068
 5386TIP3    H140353   5.005   7.409  18.308  0.3726 -0.1823 -1.3112
 5386TIP3    H240354   4.878   7.327  18.309  0.4280 -0.2598 -0.3098
 5387TIP3   OH240355   3.025   5.863  17.976  0.1532 -0.3239 -0.1626
 5387TIP3    H140356   3.025   5.916  18.056  0.8102  0.6629 -0.7894
 5387TIP3    H240357   2.941   5.883  17.934  0.6802  0.7648 -0.7287
 5388TIP3   OH240358   3.879   5.363  17.365 -0.0318 -0.8106 -0.1772
 5388TIP3    H140359   3.875   5.364  17.269  0.4604 -0.4615 -0.1974
 5388TIP3    H240360   3.885   5.456  17.389 -0.2392 -0.8941  0.1957
 5389TIP3   OH240361   0.100   4.608  17.296  0.3877  0.0903  0.4169
 5389TIP3    H140362   0.159   4.580  17.226 -1.0159 -0.2698 -0.6796
 5389TIP3    H240363   0.153   4.606  17.375  2.4092  1.7342 -0.7944
 5390TIP3   OH240364   4.730   5.214  19.168 -0.0442  0.0441  0.0175
 5390TIP3    H140365   4.779   5.132  19.175 -0.3684 -0.5080 -2.7923
 5390TIP3    H240366   4.638   5.186  19.165 -0.2518  0.6568  0.5502
 5391TIP3   OH240367   0.593   4.383  11.572  0.3261 -0.5817 -0.2223
 5391TIP3    H140368   0.556   4.445  11.509 -0.7502 -1.3527 -0.3778
 5391TIP3    H240369   0.643   4.437  11.633  0.3828  0.3045 -1.0341
 5392TIP3   OH240370   4.584   5.502  11.438 -0.4699  0.1605 -0.0044
 5392TIP3    H140371   4.625   5.588  11.426  0.6248 -0.2020  0.9678
 5392TIP3    H240372   4.522   5.515  11.510 -1.3609  0.4618 -0.8042
 5393TIP3   OH240373   7.434   6.465  11.802  0.6949  0.2168 -0.0282
 5393TIP3    H140374   7.385   6.423  11.731  0.7161 -0.4893  0.3565
 5393TIP3    H240375   7.372   6.528  11.839  0.3379 -0.1155 -0.0439
 5394TIP3   OH240376   5.580   5.634  11.340 -0.3221  0.2648 -0.0225
 5394TIP3    H140377   5.516   5.568  11.313 -0.7961  0.5882  0.3063
 5394TIP3    H240378   5.553   5.713  11.293 -0.3883  0.4993  0.4111
 5395TIP3   OH240379   3.406   6.247  10.847 -0.3145 -0.1703  0.3333
 5395TIP3    H140380   3.349   6.258  10.923 -1.5871  0.1589 -0.6344
 5395TIP3    H240381   3.435   6.156  10.852 -1.5938 -0.5983  0.4204
 5396TIP3   OH240382   2.203   5.239  12.036 -0.0518  0.0157 -0.0357
 5396TIP3    H140383   2.122   5.194  12.063 -1.0469  0.3603 -2.2721
 5396TIP3    H240384   2.185   5.332  12.051  0.5077 -0.0039  0.8251
 5397TIP3   OH240385   6.400   7.545  11.318  0.5301 -0.0152 -0.0133
 5397TIP3    H140386   6.485   7.516  11.286  1.1935  0.6840  1.0653
 5397TIP3    H240387   6.346   7.466  11.317  1.1172 -0.4257 -0.9000
 5398TIP3   OH240388   0.191   2.519  11.413 -0.5830  0.1746 -0.1008
 5398TIP3    H140389   0.240   2.598  11.438 -0.3647  0.5605 -1.6880
 5398TIP3    H240390   0.105   2.532  11.453 -0.3078  0.8439  0.3104
 5399TIP3   OH240391   6.629   1.549  10.626  0.1726  0.0309  0.4777
 5399TIP3    H140392   6.579   1.628  10.647 -0.2862 -0.5432  1.6320
 5399TIP3    H240393   6.564   1.488  10.594  0.5538  0.1609 -0.5737
 5400TIP3   OH240394   6.809   6.263  12.642 -0.2014 -0.5609  0.6622
 5400TIP3    H140395   6.844   6.313  12.568 -0.9347  0.5270  1.0110
 5400TIP3    H240396   6.884   6.246  12.698 -0.1297  1.4543  1.2473
 5401TIP3   OH240397   1.677   4.030  11.842 -0.0549 -0.2622  0.7083
 5401TIP3    H140398   1.749   3.970  11.862  0.3195 -0.3085 -0.6932
 5401TIP3    H240399   1.603   3.973  11.821 -0.3861 -0.2148  1.7104
 5402TIP3   OH240400   3.640   2.185  12.665 -0.2099  0.1661  0.0422
 5402TIP3    H140401   3.657   2.273  12.633  2.0461  0.0280  0.7316
 5402TIP3    H240402   3.585   2.145  12.598 -1.0798  1.9823 -0.3976
 5403TIP3   OH240403   6.691   4.099  10.902 -0.6282  0.0152 -0.1255
 5403TIP3    H140404   6.782   4.113  10.929 -0.7525  0.5371  0.0334
 5403TIP3    H240405   6.691   4.012  10.861 -0.3471 -0.6030  1.1478
 5404TIP3   OH240406   4.049   0.472  11.083 -0.1249 -0.6303 -0.0493
 5404TIP3    H140407   4.065   0.417  11.007 -1.3965 -0.1927 -0.6654
 5404TIP3    H240408   3.960   0.505  11.070 -0.3952 -0.6031  1.6702
 5405TIP3   OH240409   0.963   6.674  12.339 -0.6273  0.3311  0.5651
 5405TIP3    H140410   0.973   6.766  12.365  0.7370  0.4540 -0.2246
 5405TIP3    H240411   1.052   6.638  12.345 -0.4001  0.0619 -2.5486
 5406TIP3   OH240412   1.101   7.479  12.299 -0.0407 -0.4488  0.4759
 5406TIP3    H140413   1.180   7.427  12.287  0.3733 -0.0568  1.3858
 5406TIP3    H240414   1.042   7.420  12.347 -0.4647 -0.8846 -0.5672
 5407TIP3   OH240415   5.729   4.551  11.066 -0.0666 -0.1444 -0.7311
 5407TIP3    H140416   5.823   4.554  11.049 -0.1345  2.4902 -1.0862
 5407TIP3    H240417   5.689   4.553  10.979 -0.4819 -1.1173 -0.5771
 5408TIP3   OH240418   5.578   4.163  12.735  0.4732  0.0643 -0.8243
 5408TIP3    H140419   5.546   4.239  12.686 -0.0798 -0.0060 -0.5800
 5408TIP3    H240420   5.555   4.182  12.826  0.5511 -0.2889 -0.7302
 5409TIP3   OH240421   1.587   0.354  12.006 -0.0772 -0.0540 -0.2604
 5409TIP3    H140422   1.594   0.313  12.093  1.9363  0.1166 -0.3022
 5409TIP3    H240423   1.612   0.285  11.945 -1.2322 -0.0931 -0.7103
 5410TIP3   OH240424   5.472   3.659  12.635  0.4499  0.5308  0.1497
 5410TIP3    H140425   5.498   3.737  12.585  1.4347  0.7811  1.0135
 5410TIP3    H240426   5.382   3.642  12.608  0.3200  1.7960 -0.2682
 5411TIP3   OH240427   1.195   6.949  11.738  0.2288 -0.4287  0.0240
 5411TIP3    H140428   1.270   6.977  11.685  0.4887  1.6193  1.3743
 5411TIP3    H240429   1.219   6.972  11.828 -0.7855 -2.5238  0.9148
 5412TIP3   OH240430   1.779   0.794  10.705  0.8889 -0.0796  0.9770
 5412TIP3    H140431   1.796   0.751  10.621 -0.3413 -2.0323  1.6678
 5412TIP3    H240432   1.864   0.791  10.750  1.2205 -0.2643  0.3560
 5413TIP3   OH240433   2.819   2.854  11.822 -0.1585 -0.3338 -0.2259
 5413TIP3    H140434   2.803   2.926  11.883  0.7329 -0.5822  0.3223
 5413TIP3    H240435   2.909   2.868  11.792 -0.4119 -0.5104 -1.0948
 5414TIP3   OH240436   2.646   1.722  12.230  0.1349  0.3705 -0.3257
 5414TIP3    H140437   2.662   1.776  12.153 -0.2384  1.5626  0.4130
 5414TIP3    H240438   2.733   1.698  12.261  0.3741  1.8134  0.1955
 5415TIP3   OH240439   3.688   1.469  10.441  0.0558 -0.6045 -0.2259
 5415TIP3    H140440   3.766   1.487  10.493  1.7329 -0.5654 -2.6071
 5415TIP3    H240441   3.673   1.549  10.390 -0.6386 -1.1341 -0.8825
 5416TIP3   OH240442   3.538   1.798  11.269 -0.3215 -0.0879 -0.2567
 5416TIP3    H140443   3.477   1.736  11.229 -0.1894 -0.5011  0.1768
 5416TIP3    H240444   3.490   1.881  11.268 -0.7016 -0.3031 -0.3665
 5417TIP3   OH240445   1.268   2.933  13.050 -0.2929  0.4187 -0.4169
 5417TIP3    H140446   1.250   2.851  13.004 -1.5467  2.1568 -3.2980
 5417TIP3    H240447   1.213   2.928  13.129 -0.5769 -1.3204 -0.6712
 5418TIP3   OH240448   1.403   5.328  11.937 -0.0357  0.6005 -0.9201
 5418TIP3    H140449   1.338   5.313  12.005  0.0541 -1.5787 -1.2577
 5418TIP3    H240450   1.355   5.372  11.867 -0.4250  1.6664 -0.0081
 5419TIP3   OH240451   7.172   4.513  12.719  0.0384 -0.1984 -0.0901
 5419TIP3    H140452   7.245   4.563  12.756 -0.8306  0.0890  1.3384
 5419TIP3    H240453   7.200   4.490  12.631  1.7783  0.0411  0.3702
 5420TIP3   OH240454   7.257   0.069  11.406 -0.3759 -0.2626 -0.8525
 5420TIP3    H140455   7.333   0.097  11.457 -0.7349 -1.1117  0.1687
 5420TIP3    H240456   7.237   0.145  11.351  0.5543  0.3583 -0.3704
 5421TIP3   OH240457   1.339   5.383  11.363  0.3399  0.4792 -0.8770
 5421TIP3    H140458   1.298   5.424  11.287  1.3227 -0.3109 -1.8458
 5421TIP3    H240459   1.318   5.290  11.356 -0.5301  0.5435  0.4537
 5422TIP3   OH240460   3.928   6.533  11.538  0.7361 -0.3491 -0.2502
 5422TIP3    H140461   3.905   6.509  11.449  2.4147 -2.2029 -0.2541
 5422TIP3    H240462   4.004   6.478  11.559  1.7855  1.6182  1.5436
 5423TIP3   OH240463   3.692   5.628  12.914  0.2944 -0.1608 -0.0228
 5423TIP3    H140464   3.722   5.607  13.002 -0.3110  1.4766  0.6208
 5423TIP3    H240465   3.685   5.724  12.913 -1.5519 -0.2499 -1.2130
 5424TIP3   OH240466   2.420   4.662  11.846  0.0106 -0.1244 -0.0111
 5424TIP3    H140467   2.418   4.694  11.936  0.7284 -3.6906  1.4691
 5424TIP3    H240468   2.513   4.642  11.830 -0.1645  0.1017 -1.4339
 5425TIP3   OH240469   6.344   7.442  10.702  0.1592  0.0606 -0.5365
 5425TIP3    H140470   6.351   7.537  10.706  0.8542 -0.0062  0.1301
 5425TIP3    H240471   6.412   7.416  10.639 -0.2394  0.0170 -0.9579
 5426TIP3   OH240472   4.779   1.838  11.909 -0.0639  0.1906  0.4437
 5426TIP3    H140473   4.711   1.856  11.844 -0.1383  0.1581  0.5125
 5426TIP3    H240474   4.783   1.918  11.962  1.1107  0.8437 -0.5965
 5427TIP3   OH240475   3.390   5.127  12.052  0.2438 -0.3336  0.2300
 5427TIP3    H140476   3.334   5.197  12.020 -0.2849 -0.4132  0.9439
 5427TIP3    H240477   3.368   5.051  11.999 -0.4906 -0.4184  0.6425
 5428TIP3   OH240478   5.485   7.080  11.867 -0.7212 -0.2890 -0.0663
 5428TIP3    H140479   5.416   7.031  11.911 -0.4174  0.1176  0.8827
 5428TIP3    H240480   5.479   7.169  11.903  0.6358 -0.3865  0.4473
 5429TIP3   OH240481   3.433   4.117  13.213  0.4127 -0.2829  0.1103
 5429TIP3    H140482   3.357   4.131  13.156 -0.1656 -0.9748  0.6808
 5429TIP3    H240483   3.497   4.073  13.157  0.4117  0.3287 -0.3844
 5430TIP3   OH240484   5.454   3.943  13.436  0.3932  0.7862  0.2653
 5430TIP3    H140485   5.417   3.901  13.358  0.1306  2.3372 -0.4751
 5430TIP3    H240486   5.425   3.887  13.508  0.3613 -0.4963 -0.7065
 5431TIP3   OH240487   1.155   5.341  10.948 -0.2738  0.7470 -0.3249
 5431TIP3    H140488   1.230   5.282  10.947 -0.0599  1.0228 -0.7946
 5431TIP3    H240489   1.168   5.396  11.026 -0.4412  0.2294  0.0778
 5432TIP3   OH240490   5.743   6.377  11.517 -0.3672 -0.1153  0.4139
 5432TIP3    H140491   5.703   6.346  11.597 -0.6471  1.5148  0.9489
 5432TIP3    H240492   5.737   6.303  11.456 -1.9043 -0.7359  1.2671
 5433TIP3   OH240493   7.586   3.247  12.197  0.1662 -0.8881 -0.4129
 5433TIP3    H140494   7.526   3.316  12.172  2.7408  2.0721  0.9530
 5433TIP3    H240495   7.648   3.240  12.124 -1.2132 -3.3827 -1.4840
 5434TIP3   OH240496   0.956   2.269  11.163  0.2830  0.4669  0.3969
 5434TIP3    H140497   0.887   2.330  11.136 -1.8283 -2.0728 -0.3747
 5434TIP3    H240498   0.915   2.216  11.232  1.9507 -0.2462  0.8838
 5435TIP3   OH240499   5.490   5.797  11.839 -0.0459  0.1243 -0.4682
 5435TIP3    H140500   5.557   5.786  11.907 -1.1309 -1.2359  0.4369
 5435TIP3    H240501   5.538   5.792  11.757  1.1406  0.6063  0.1712
 5436TIP3   OH240502   6.694   7.673  12.038 -0.0298  0.2191 -0.0486
 5436TIP3    H140503   6.673   7.711  11.953 -0.6865  0.5196  0.2379
 5436TIP3    H240504   6.782   7.636  12.027  0.8786  2.2601 -0.2045
 5437TIP3   OH240505   6.047   0.092  11.764 -0.1444 -0.0105 -0.0244
 5437TIP3    H140506   6.066   0.162  11.702 -1.6010  0.2604 -0.2111
 5437TIP3    H240507   5.995   0.029  11.714  1.7895 -1.6554 -0.0732
 5438TIP3   OH240508   0.739   0.262  10.707  0.1494  0.0692  0.6286
 5438TIP3    H140509   0.679   0.195  10.675  1.7298 -0.8796 -0.4618
 5438TIP3    H240510   0.691   0.345  10.694  0.2103 -0.3203 -3.2912
 5439TIP3   OH240511   2.762   3.403  10.437  0.4257 -0.5437 -0.3884
 5439TIP3    H140512   2.773   3.347  10.513 -1.1075 -1.0023 -0.4715
 5439TIP3    H240513   2.808   3.484  10.460 -1.3853 -0.0224  1.7721
 5440TIP3   OH240514   3.404   6.124  11.799 -0.4476  0.3142 -0.1422
 5440TIP3    H140515   3.405   6.035  11.834 -0.0178  0.0940 -0.6825
 5440TIP3    H240516   3.375   6.179  11.871  1.2467 -0.0025  0.8444
 5441TIP3   OH240517   3.224   5.287  11.869  0.3320  0.2287 -0.2023
 5441TIP3    H140518   3.242   5.375  11.835 -1.9646  0.6488 -0.4899
 5441TIP3    H240519   3.206   5.234  11.791 -0.1968 -0.0131  0.0797
 5442TIP3   OH240520   4.357   0.035  11.091 -0.1330  0.2909  0.2213
 5442TIP3    H140521   4.312   0.021  11.007 -0.6394 -1.7253  0.7654
 5442TIP3    H240522   4.354  -0.050  11.134 -0.2828  1.3764  2.5073
 5443TIP3   OH240523   0.311   0.907  11.712  0.1661  0.2636  0.5598
 5443TIP3    H140524   0.271   0.994  11.721 -2.3504 -0.8672  1.1526
 5443TIP3    H240525   0.245   0.846  11.745  1.5168 -1.9721 -0.5723
 5444TIP3   OH240526   2.828   3.490  11.649  0.0490  0.6545  0.5206
 5444TIP3    H140527   2.912   3.490  11.603  0.0732 -0.0828  0.5592
 5444TIP3    H240528   2.801   3.582  11.648  0.4644  0.7795 -0.2019
 5445TIP3   OH240529   7.375   5.253  11.702 -0.5025 -0.0459 -0.3690
 5445TIP3    H140530   7.445   5.242  11.639 -1.3965  0.1863 -1.4346
 5445TIP3    H240531   7.414   5.305  11.773  0.3259  0.2815 -1.0561
 5446TIP3   OH240532   1.858   7.623  10.934  0.8370  0.0839 -0.1136
 5446TIP3    H140533   1.794   7.557  10.963 -0.2158  2.0854  2.5659
 5446TIP3    H240534   1.805   7.688  10.888  1.3191  0.6279  0.1017
 5447TIP3   OH240535   7.491   7.326  12.137  0.4969  0.4904 -0.3840
 5447TIP3    H140536   7.491   7.420  12.120  0.0331  0.4939 -0.3600
 5447TIP3    H240537   7.451   7.317  12.224 -0.3364  0.1964 -0.7915
 5448TIP3   OH240538   0.528   4.932  11.965  0.6066  0.1435  0.6355
 5448TIP3    H140539   0.567   4.912  11.880  0.4515 -0.7203  0.7570
 5448TIP3    H240540   0.521   4.847  12.009  1.5818  0.6909  1.9073
 5449TIP3   OH240541   3.286   1.946  11.512 -0.2839  0.0058 -0.1049
 5449TIP3    H140542   3.223   2.017  11.525  1.0413  0.7349  3.9533
 5449TIP3    H240543   3.368   1.991  11.491 -0.0704 -0.5475 -0.4630
 5450TIP3   OH240544   6.665   0.687  11.121 -0.0998 -0.0430 -0.7450
 5450TIP3    H140545   6.745   0.652  11.160  0.9421  0.5077 -2.3025
 5450TIP3    H240546   6.677   0.782  11.123 -1.3879  0.1318  0.3197
 5451TIP3   OH240547   5.494   4.860  11.512  0.4226  0.9631 -0.3577
 5451TIP3    H140548   5.557   4.795  11.542 -0.0631  0.1041 -1.1592
 5451TIP3    H240549   5.528   4.889  11.427 -0.7366 -0.2213 -1.2586
 5452TIP3   OH240550   4.331   4.539  11.290 -0.2017  0.3114 -0.2283
 5452TIP3    H140551   4.329   4.584  11.374 -0.4986 -0.3219  0.1085
 5452TIP3    H240552   4.386   4.595  11.234  2.0666 -0.4775  1.0740
 5453TIP3   OH240553   7.098   0.327  10.917 -0.0638 -0.4866 -0.1102
 5453TIP3    H140554   7.169   0.264  10.929  0.4180 -0.2374 -1.4309
 5453TIP3    H240555   7.084   0.329  10.822 -1.5958 -0.2539  0.0865
 5454TIP3   OH240556   0.133   1.060  10.500 -0.2636  0.9497 -0.0669
 5454TIP3    H140557   0.092   1.128  10.554 -1.4696  2.3504 -2.5775
 5454TIP3    H240558   0.224   1.089  10.491 -0.3003  1.2213  0.3935
 5455TIP3   OH240559   5.698   3.697  11.435  0.4488  0.2935  0.2929
 5455TIP3    H140560   5.761   3.764  11.461  0.3795  0.3648  0.2753
 5455TIP3    H240561   5.752   3.619  11.420  0.7395  0.7256 -1.1418
 5456TIP3   OH240562   0.210   0.417  12.316 -0.0832 -0.4719  0.6999
 5456TIP3    H140563   0.138   0.354  12.328  1.8459 -2.3397  4.0549
 5456TIP3    H240564   0.287   0.362  12.302  1.0061  1.4270 -1.2362
 5457TIP3   OH240565   3.899   5.477  12.167  0.1156  0.2959  0.0920
 5457TIP3    H140566   3.927   5.430  12.088  0.1689  0.1227  0.2135
 5457TIP3    H240567   3.972   5.535  12.188  0.1733  0.2168  0.1120
 5458TIP3   OH240568   5.826   5.852  11.016 -0.4651  0.2229  0.3879
 5458TIP3    H140569   5.801   5.942  11.037 -1.1941 -0.0189  0.5792
 5458TIP3    H240570   5.795   5.800  11.090 -1.8274 -0.4502 -0.6100
 5459TIP3   OH240571   0.470   6.381  11.536  0.8120  0.1832  0.1510
 5459TIP3    H140572   0.444   6.323  11.464  1.2918  0.1766 -0.0199
 5459TIP3    H240573   0.389   6.425  11.562  0.8499  1.2068 -1.3126
 5460TIP3   OH240574   5.692   6.431  12.229  0.1698 -0.2903 -0.2482
 5460TIP3    H140575   5.604   6.398  12.243 -0.3544  0.8714 -0.6252
 5460TIP3    H240576   5.699   6.506  12.289  1.1409 -0.7716  0.2587
 5461TIP3   OH240577   0.721   6.475  12.704 -0.3407 -0.0232  0.4170
 5461TIP3    H140578   0.727   6.544  12.770  0.5398 -0.4607  0.8084
 5461TIP3    H240579   0.717   6.394  12.755 -0.5344 -0.3149 -0.0572
 5462TIP3   OH240580   4.454   2.075  12.684 -0.0983 -0.1589 -0.1137
 5462TIP3    H140581   4.456   2.164  12.719  0.9618 -0.3507  0.3391
 5462TIP3    H240582   4.428   2.020  12.757 -0.1857 -0.2929 -0.2446
 5463TIP3   OH240583   4.178   1.344  12.603 -0.1934  0.0433  0.3673
 5463TIP3    H140584   4.144   1.333  12.514 -0.8672  1.1201  0.4679
 5463TIP3    H240585   4.144   1.268  12.651  2.1249 -1.8427 -0.7928
 5464TIP3   OH240586   6.148   6.149  12.562  0.0910  0.2929 -0.3902
 5464TIP3    H140587   6.181   6.188  12.481 -0.4693  3.1673  0.6306
 5464TIP3    H240588   6.204   6.185  12.631 -1.7436  0.9628  0.8313
 5465TIP3   OH240589   6.066   3.780  13.513 -0.0374 -0.2128 -0.2979
 5465TIP3    H140590   6.152   3.743  13.530 -0.0732  0.1624  0.8211
 5465TIP3    H240591   6.005   3.707  13.526 -0.0668  0.0711  1.4014
 5466TIP3   OH240592   4.221   0.231  11.449  0.2474 -0.2265 -0.1325
 5466TIP3    H140593   4.257   0.319  11.465  2.6644 -1.0265 -0.8655
 5466TIP3    H240594   4.134   0.248  11.413  0.5527  1.8555 -0.0389
 5467TIP3   OH240595   3.304   0.505  11.288 -0.4550 -0.6127 -0.8371
 5467TIP3    H140596   3.318   0.411  11.294  2.6399 -0.1562  2.5785
 5467TIP3    H240597   3.239   0.524  11.356  1.5019 -0.0473  0.9882
 5468TIP3   OH240598   5.193   2.779  10.304 -0.4046  0.1683 -0.4432
 5468TIP3    H140599   5.155   2.692  10.318  0.3007  0.1522  1.6395
 5468TIP3    H240600   5.117   2.835  10.289 -0.9529 -0.5824 -0.5745
 5469TIP3   OH240601   1.182   1.520  12.596 -0.1076  0.4132 -0.3525
 5469TIP3    H140602   1.090   1.500  12.581 -0.4379  0.5356  1.3105
 5469TIP3    H240603   1.210   1.457  12.662  1.8005 -1.4510 -2.7583
 5470TIP3   OH240604   4.925   2.722  10.729  0.1590  0.5156 -0.0527
 5470TIP3    H140605   4.903   2.808  10.692 -2.4399  0.2498  0.7106
 5470TIP3    H240606   5.001   2.693  10.679 -0.1430  2.3793 -1.6945
 5471TIP3   OH240607   5.878   3.893  11.575  0.2612  0.1017 -0.3317
 5471TIP3    H140608   5.942   3.927  11.638  0.0850  0.5373 -0.3819
 5471TIP3    H240609   5.821   3.968  11.557 -0.0772 -0.2018 -0.5191
 5472TIP3   OH240610   2.545   4.322  11.630  0.2030 -0.0131 -0.0413
 5472TIP3    H140611   2.587   4.402  11.663  1.5280 -0.3105 -0.9425
 5472TIP3    H240612   2.453   4.347  11.618  0.9635  2.0565 -2.2924
 5473TIP3   OH240613   2.321   1.351  10.517 -0.1711 -0.0150 -0.1221
 5473TIP3    H140614   2.285   1.351  10.428 -0.0784 -0.2803 -0.1618
 5473TIP3    H240615   2.330   1.443  10.540  0.1732  0.0586 -0.5377
 5474TIP3   OH240616   0.439   5.285  13.025  0.4092 -0.1398 -0.3350
 5474TIP3    H140617   0.370   5.220  13.031 -0.5962  0.9843  0.6917
 5474TIP3    H240618   0.492   5.272  13.104  1.5343 -1.1193 -1.2042
 5475TIP3   OH240619   0.983   1.136  12.574 -0.1115  0.4029 -0.7653
 5475TIP3    H140620   1.040   1.065  12.606 -1.8117 -0.2751  1.0080
 5475TIP3    H240621   0.985   1.201  12.644 -2.3634 -0.1765 -0.0853
 5476TIP3   OH240622   7.466   5.489  11.539  0.2401  0.2148  0.1353
 5476TIP3    H140623   7.406   5.562  11.553  1.7208  1.1607  2.1795
 5476TIP3    H240624   7.409   5.412  11.534 -1.1785  0.9918  2.5333
 5477TIP3   OH240625   0.986   4.457  10.921  0.1454 -0.2374  0.3727
 5477TIP3    H140626   0.908   4.418  10.960  1.3651 -1.3181  1.8587
 5477TIP3    H240627   0.980   4.434  10.828 -1.2829 -0.2975  0.4580
 5478TIP3   OH240628   6.873   5.489  11.491  0.2633 -0.5178 -0.1602
 5478TIP3    H140629   6.905   5.573  11.524 -2.2689  0.4597  0.0459
 5478TIP3    H240630   6.933   5.424  11.529  3.3104  1.1947 -1.6375
 5479TIP3   OH240631   5.648   1.986  11.255 -0.0522  0.0854  0.5192
 5479TIP3    H140632   5.728   1.937  11.275  0.0250 -0.6134 -1.2889
 5479TIP3    H240633   5.592   1.973  11.331  1.2106 -0.1551  1.4365
 5480TIP3   OH240634   6.546   1.408  11.247 -0.1453  0.0393 -0.2309
 5480TIP3    H140635   6.475   1.471  11.236  0.8369  1.3630  0.6900
 5480TIP3    H240636   6.505   1.331  11.286 -0.9792  1.0277  0.8966
 5481TIP3   OH240637   6.631   4.863  13.863  0.2721 -0.0884 -0.0410
 5481TIP3    H140638   6.648   4.908  13.780  0.3702 -1.0968 -0.5774
 5481TIP3    H240639   6.713   4.869  13.912  0.2090  0.5218 -0.0065
 5482TIP3   OH240640   6.620   3.129  12.316  0.1756  0.3237 -0.1262
 5482TIP3    H140641   6.690   3.077  12.277 -0.2765 -0.2105 -0.2267
 5482TIP3    H240642   6.554   3.136  12.247  0.0249  0.6373  0.0468
 5483TIP3   OH240643   0.314   1.490  11.178  0.4040 -0.2866 -0.1494
 5483TIP3    H140644   0.283   1.455  11.095 -1.3902  0.4584  0.1732
 5483TIP3    H240645   0.354   1.574  11.155 -0.1141 -0.0684 -0.2716
 5484TIP3   OH240646   6.047   3.357  13.231  0.2139 -0.3158  0.1078
 5484TIP3    H140647   6.129   3.317  13.200  0.0979  0.2353 -0.9567
 5484TIP3    H240648   6.071   3.448  13.250 -0.0110 -0.3210  0.4160
 5485TIP3   OH240649   7.467   0.458  11.794  0.1712  0.0948 -0.1922
 5485TIP3    H140650   7.507   0.393  11.852 -0.5885 -0.4074 -0.2193
 5485TIP3    H240651   7.489   0.543  11.834  0.6170 -0.1994  0.2009
 5486TIP3   OH240652   0.248   5.865  10.807 -0.4107  0.0656 -0.0182
 5486TIP3    H140653   0.233   5.809  10.883  0.4336 -0.7307 -0.4182
 5486TIP3    H240654   0.221   5.812  10.732  1.0858 -0.1211 -0.4674
 5487TIP3   OH240655   4.621   7.610  11.461 -0.5458 -0.2611 -0.5658
 5487TIP3    H140656   4.652   7.610  11.552 -0.1754 -1.3308 -0.6766
 5487TIP3    H240657   4.663   7.686  11.422 -2.5137  1.6023  0.7154
 5488TIP3   OH240658   1.309   5.047  12.785 -0.5800 -0.0099 -0.5503
 5488TIP3    H140659   1.365   5.117  12.819  0.7240 -1.5482  0.6311
 5488TIP3    H240660   1.367   4.996  12.728 -1.0656 -0.9565 -0.2261
 5489TIP3   OH240661   7.507   2.480  12.479 -0.0642 -0.0839  0.0156
 5489TIP3    H140662   7.436   2.492  12.541  0.0983 -0.1138  0.2101
 5489TIP3    H240663   7.492   2.547  12.411 -0.2137 -0.0200  0.1123
 5490TIP3   OH240664   6.574   6.428  11.211 -0.1640  0.1443  0.2490
 5490TIP3    H140665   6.545   6.340  11.235  2.5135 -0.7348  0.5136
 5490TIP3    H240666   6.497   6.483  11.225 -1.7414 -2.0404  0.6390
 5491TIP3   OH240667   4.242   6.392  10.602  0.3966 -0.0280 -0.0954
 5491TIP3    H140668   4.306   6.320  10.601  0.4169 -0.0092 -0.7247
 5491TIP3    H240669   4.160   6.351  10.576  0.2067  0.0014  0.4536
 5492TIP3   OH240670   7.222   6.380  11.219  0.3394  0.3137  0.4102
 5492TIP3    H140671   7.199   6.451  11.278  1.6951  1.2228 -0.1017
 5492TIP3    H240672   7.147   6.372  11.160  0.2654  1.4859  0.3273
 5493TIP3   OH240673   3.461   6.204  12.656  0.0141 -0.0119 -0.7379
 5493TIP3    H140674   3.489   6.204  12.748 -0.3907  0.8462 -0.6074
 5493TIP3    H240675   3.485   6.291  12.624  0.0972 -0.2874 -1.4363
 5494TIP3   OH240676   6.092   1.985  10.537  0.3310 -0.4873 -0.6970
 5494TIP3    H140677   6.034   1.942  10.474 -0.8404  0.1630 -0.1003
 5494TIP3    H240678   6.088   2.078  10.513 -1.9846  0.1579  1.6314
 5495TIP3   OH240679   5.071   6.258  11.113  0.6441  0.1294 -0.1485
 5495TIP3    H140680   4.978   6.282  11.116 -0.2869 -3.0604  0.5485
 5495TIP3    H240681   5.117   6.335  11.146 -1.9723  0.9427  1.9563
 5496TIP3   OH240682   4.503   4.310  12.844 -0.0829 -0.3623 -0.4162
 5496TIP3    H140683   4.426   4.359  12.871 -2.3951 -2.6581 -2.2934
 5496TIP3    H240684   4.539   4.275  12.926 -1.8523 -0.3001  0.4343
 5497TIP3   OH240685   5.368   5.063  10.768 -0.8286 -0.0240  0.1010
 5497TIP3    H140686   5.446   5.109  10.798 -2.2664  0.7489  3.1203
 5497TIP3    H240687   5.364   4.985  10.824 -1.4534 -0.8450 -1.0431
 5498TIP3   OH240688   4.290   5.497  12.400  0.1344 -0.1418 -0.5130
 5498TIP3    H140689   4.358   5.467  12.341 -0.1330 -1.9782  0.0598
 5498TIP3    H240690   4.319   5.584  12.427  2.0525 -0.7139 -0.5741
 5499TIP3   OH240691   0.782   3.960  11.388 -0.4337 -0.1411  0.1985
 5499TIP3    H140692   0.802   3.942  11.480 -0.8456 -0.2942  0.2587
 5499TIP3    H240693   0.730   4.040  11.389 -1.9675 -1.0905  0.2618
 5500TIP3   OH240694   2.338   0.820  10.727 -0.5713  0.5445 -1.0534
 5500TIP3    H140695   2.245   0.810  10.705 -0.4604  0.8020 -1.6519
 5500TIP3    H240696   2.370   0.886  10.666  0.5637 -1.2305 -2.4871
 5501TIP3   OH240697   6.354   6.289  10.773  0.2454 -0.7003  0.1652
 5501TIP3    H140698   6.300   6.210  10.779  0.4120 -0.8572 -0.3656
 5501TIP3    H240699   6.305   6.355  10.823  0.9494 -1.5892  2.1311
 5502TIP3   OH240700   7.647   7.635  11.384  0.3390 -0.3115  0.0139
 5502TIP3    H140701   7.632   7.716  11.336  0.9915  0.1635  0.6068
 5502TIP3    H240702   7.739   7.638  11.409 -0.0695 -0.3797  1.6179
 5503TIP3   OH240703   3.426   6.930  11.855 -0.3720 -0.0988 -0.4700
 5503TIP3    H140704   3.395   6.943  11.945  0.8397  0.1008 -0.0601
 5503TIP3    H240705   3.474   6.847  11.859 -0.6914 -0.3166 -1.0514
 5504TIP3   OH240706   1.652   5.254  10.596  0.5041 -0.4095  0.5009
 5504TIP3    H140707   1.728   5.268  10.539 -0.0445  2.3585  0.3090
 5504TIP3    H240708   1.600   5.188  10.550  1.2180  0.0591 -1.0742
 5505TIP3   OH240709   7.282   6.659  11.991 -0.2987  0.5834  0.4531
 5505TIP3    H140710   7.263   6.607  12.069  0.6351 -0.3525  0.0877
 5505TIP3    H240711   7.373   6.687  12.003  0.5088 -1.1459 -1.1136
 5506TIP3   OH240712   0.687   2.239  12.036 -0.4444 -0.2370 -0.0673
 5506TIP3    H140713   0.699   2.162  12.091  1.9379 -0.1075 -0.2892
 5506TIP3    H240714   0.655   2.205  11.953 -0.5046 -0.8417  0.2007
 5507TIP3   OH240715   6.270   1.517  12.270 -0.1732  0.1936 -0.2759
 5507TIP3    H140716   6.271   1.519  12.366 -1.7619  0.4695 -0.2321
 5507TIP3    H240717   6.269   1.424  12.248  1.3005  0.1031 -0.0862
 5508TIP3   OH240718   1.433   0.077  12.122  0.6883  0.1384 -0.0175
 5508TIP3    H140719   1.520   0.110  12.146  1.1476 -0.6858 -0.4878
 5508TIP3    H240720   1.391   0.056  12.205  1.1540  0.0126  0.1882
 5509TIP3   OH240721   1.331   0.242  11.827 -0.2072  0.2355  0.0231
 5509TIP3    H140722   1.312   0.156  11.790  0.9071  0.5100 -1.2790
 5509TIP3    H240723   1.387   0.224  11.903 -2.8238 -0.3574  1.9292
 5510TIP3   OH240724   2.297   5.417  11.579  0.3202 -0.1269  0.2569
 5510TIP3    H140725   2.336   5.362  11.511 -1.0227  0.1322 -0.7742
 5510TIP3    H240726   2.222   5.366  11.611  0.4601  0.1033  0.9714
 5511TIP3   OH240727   7.475   6.412  12.870 -0.5075  0.4012  0.2425
 5511TIP3    H140728   7.406   6.395  12.934 -1.3653  0.6521 -0.5817
 5511TIP3    H240729   7.429   6.410  12.785  0.7705 -1.0209 -0.4731
 5512TIP3   OH240730   3.005   2.828  13.011 -0.2718  0.5508  0.2157
 5512TIP3    H140731   3.068   2.775  13.060 -0.0972  1.4612  1.0351
 5512TIP3    H240732   2.932   2.842  13.072  0.8300  3.3905  1.0867
 5513TIP3   OH240733   5.057   7.140  12.520 -0.6278 -0.3622 -0.3900
 5513TIP3    H140734   5.116   7.113  12.591 -0.6615 -1.8256 -0.8962
 5513TIP3    H240735   4.971   7.108  12.548 -0.6821 -0.7234 -0.9678
 5514TIP3   OH240736   4.206   7.278  12.412  0.0452  0.1935  0.2964
 5514TIP3    H140737   4.213   7.193  12.367 -1.5650  0.0738  0.2275
 5514TIP3    H240738   4.289   7.287  12.458  0.0445 -1.6941  0.7451
 5515TIP3   OH240739   7.670   3.976  12.612 -0.3293  0.2366 -0.1719
 5515TIP3    H140740   7.632   3.982  12.700 -0.9036 -1.0933 -0.3071
 5515TIP3    H240741   7.598   3.999  12.553 -0.0010  0.9176 -0.3282
 5516TIP3   OH240742   2.353   0.986  11.811 -0.4994 -0.5851  0.0697
 5516TIP3    H140743   2.356   0.898  11.848  0.6508 -1.0312 -1.0256
 5516TIP3    H240744   2.342   0.973  11.717  2.0342  0.3143 -0.4408
 5517TIP3   OH240745   4.213   4.905  16.579  0.1986  0.2297 -0.5184
 5517TIP3    H140746   4.163   4.983  16.606  0.4045  0.2833 -0.2905
 5517TIP3    H240747   4.146   4.839  16.560 -0.1592  1.2293 -3.2948
 5518TIP3   OH240748   6.453   3.202  11.125  0.0029  0.5976  0.3509
 5518TIP3    H140749   6.476   3.294  11.138  2.1333  0.0014  1.2627
 5518TIP3    H240750   6.399   3.180  11.201 -1.7308  1.4067 -0.5896
 5519TIP3   OH240751   7.123   2.729  10.929 -0.3032  0.3967  0.2068
 5519TIP3    H140752   7.077   2.667  10.872 -1.4801  2.1898 -0.9468
 5519TIP3    H240753   7.206   2.686  10.950 -0.0112 -0.6007 -2.4939
 5520TIP3   OH240754   7.427   4.303  12.262 -0.3062  0.1055  1.1552
 5520TIP3    H140755   7.460   4.377  12.211  1.6764 -0.2720  1.8018
 5520TIP3    H240756   7.356   4.266  12.209  0.5215  0.7764 -0.4710
 5521TIP3   OH240757   4.214   6.587  12.670  0.3095 -0.1091  0.3243
 5521TIP3    H140758   4.281   6.587  12.738 -1.3281 -1.8027  2.0148
 5521TIP3    H240759   4.138   6.629  12.710 -0.1153  0.5783 -1.1226
 5522TIP3   OH240760   1.814   4.993  12.940 -0.0817 -0.4265  0.1139
 5522TIP3    H140761   1.753   5.038  12.881 -1.2832 -0.6068  1.1678
 5522TIP3    H240762   1.857   5.064  12.988 -0.1590 -0.3249  0.0352
 5523TIP3   OH240763   2.562   5.045  11.568  0.4015 -0.1637  0.0643
 5523TIP3    H140764   2.626   5.074  11.503  1.3531 -0.0618  1.0210
 5523TIP3    H240765   2.582   5.097  11.646 -0.2238 -0.8343  0.6834
 5524TIP3   OH240766   5.503   4.775  12.394 -0.2724  0.6331 -0.5146
 5524TIP3    H140767   5.503   4.679  12.387 -0.1334  0.5972 -0.0526
 5524TIP3    H240768   5.556   4.793  12.471 -0.1163  1.0955 -0.7260
 5525TIP3   OH240769   3.550   4.485  11.310 -0.3188 -0.8265  0.4972
 5525TIP3    H140770   3.568   4.578  11.324 -0.7058 -0.7056  0.2437
 5525TIP3    H240771   3.575   4.469  11.219 -3.6000 -0.0554 -0.7022
 5526TIP3   OH240772   7.653   1.564  11.619 -0.5930 -0.0227  0.1526
 5526TIP3    H140773   7.561   1.536  11.612 -1.3501  2.4283 -1.1641
 5526TIP3    H240774   7.681   1.574  11.528  1.4285 -1.8343  0.4995
 5527TIP3   OH240775   7.453   0.340  12.262  0.1873 -0.1857 -0.4606
 5527TIP3    H140776   7.533   0.289  12.276  1.0479  1.2924  0.2278
 5527TIP3    H240777   7.445   0.394  12.340 -2.1749 -1.1343  0.0427
 5528TIP3   OH240778   0.191   0.342  12.047  0.0228 -0.0768  0.3880
 5528TIP3    H140779   0.145   0.419  12.014 -1.0795 -0.1114  1.7489
 5528TIP3    H240780   0.246   0.375  12.118 -0.7623 -0.5898  1.2463
 5529TIP3   OH240781   3.112   3.233  18.876 -0.0818  0.2643 -0.1197
 5529TIP3    H140782   3.028   3.278  18.866  0.3175  1.5040  1.6103
 5529TIP3    H240783   3.134   3.244  18.969  1.1644 -1.5619 -0.1433
 5530TIP3   OH240784   5.181   2.334  12.427  0.0472 -0.0648 -0.1244
 5530TIP3    H140785   5.092   2.326  12.394 -0.0091  1.7371 -0.5045
 5530TIP3    H240786   5.232   2.363  12.351  0.5657  0.8246  0.5364
 5531TIP3   OH240787   3.604   4.774  11.284  0.0463  0.4829 -0.3293
 5531TIP3    H140788   3.689   4.745  11.316 -0.4174 -0.6811 -0.1216
 5531TIP3    H240789   3.624   4.823  11.203  0.8493 -0.3509 -0.6459
 5532TIP3   OH240790   3.818   0.254  11.937  0.0654 -0.1537  0.1630
 5532TIP3    H140791   3.734   0.290  11.962 -0.2943 -1.5063  1.0164
 5532TIP3    H240792   3.881   0.324  11.953 -0.7527  0.5019  0.5461
 5533TIP3   OH240793   1.833   6.078  10.712  0.4342 -0.3065  0.0806
 5533TIP3    H140794   1.895   6.072  10.640 -0.8728 -0.0505 -1.0993
 5533TIP3    H240795   1.852   6.163  10.753  1.1747 -0.4538  0.0626
 5534TIP3   OH240796   5.413   3.970  12.112 -0.4186  0.3204  0.0521
 5534TIP3    H140797   5.448   3.919  12.186  1.5861  1.0413 -0.3230
 5534TIP3    H240798   5.411   3.908  12.039 -2.5837 -0.4459  0.6983
 5535TIP3   OH240799   6.111   5.939  12.219 -0.2446 -0.0269  0.5506
 5535TIP3    H140800   6.064   6.009  12.264 -0.2351  0.1784  0.2434
 5535TIP3    H240801   6.097   5.861  12.274 -1.9294 -0.2477 -0.1331
 5536TIP3   OH240802   7.580   3.036  13.228  0.0495 -0.3175  0.3524
 5536TIP3    H140803   7.514   3.043  13.159  0.9063 -0.2047 -0.4651
 5536TIP3    H240804   7.632   2.959  13.205  2.5432  1.6698 -1.1154
 5537TIP3   OH240805   3.921   4.991  13.245  0.4173  0.4282  0.2057
 5537TIP3    H140806   3.930   4.921  13.180 -1.0958  0.2015  0.1981
 5537TIP3    H240807   3.910   5.071  13.193  1.9355  0.6724  0.2147
 5538TIP3   OH240808   4.073   7.534  11.456  0.0648 -0.1394  0.2526
 5538TIP3    H140809   4.031   7.558  11.539 -0.5289 -1.2170  0.2881
 5538TIP3    H240810   4.165   7.558  11.468 -0.4579  2.0791  0.2545
 5539TIP3   OH240811   1.831   6.389  13.120 -0.2130  0.0274 -0.4212
 5539TIP3    H140812   1.917   6.352  13.104 -0.2324 -0.2593  0.1157
 5539TIP3    H240813   1.781   6.368  13.041 -0.0353 -0.5342 -0.3896
 5540TIP3   OH240814   2.738   5.727  12.525  0.1072 -0.6012  0.3984
 5540TIP3    H140815   2.729   5.681  12.442 -1.7739 -0.1628  0.3260
 5540TIP3    H240816   2.707   5.664  12.591 -0.4981 -0.1858  0.5191
 5541TIP3   OH240817   5.532   4.780  11.906 -0.4564  0.2100 -0.3831
 5541TIP3    H140818   5.576   4.850  11.858 -1.4772  0.1690 -1.4152
 5541TIP3    H240819   5.450   4.820  11.936 -0.6115 -0.2648 -0.1699
 5542TIP3   OH240820   0.652   4.763  11.247  0.5824 -0.3251 -0.1680
 5542TIP3    H140821   0.584   4.701  11.272  0.0156  1.2392  2.5191
 5542TIP3    H240822   0.731   4.710  11.237  0.0917 -1.5376  1.8831
 5543TIP3   OH240823   3.449   4.272  10.944 -0.2024  0.2627 -0.0023
 5543TIP3    H140824   3.428   4.201  11.004 -1.5378 -0.3742 -1.1647
 5543TIP3    H240825   3.533   4.306  10.975 -0.9609  0.1331  2.3456
 5544TIP3   OH240826   5.276   4.241  11.577  0.1166 -0.1912  0.1626
 5544TIP3    H140827   5.202   4.185  11.602 -0.1979 -0.3545 -1.0710
 5544TIP3    H240828   5.238   4.305  11.517  1.5186 -2.4467 -3.4576
 5545TIP3   OH240829   5.006   0.619  11.827  0.1271 -0.0112  0.0570
 5545TIP3    H140830   4.988   0.643  11.918  1.2150  0.1627  0.2341
 5545TIP3    H240831   4.919   0.606  11.789 -0.3430 -0.2658  1.1639
 5546TIP3   OH240832   5.595   6.088  11.771  0.1385 -0.1684 -0.0824
 5546TIP3    H140833   5.679   6.117  11.806 -0.9590  0.9423  1.7489
 5546TIP3    H240834   5.588   5.997  11.799 -0.0604  0.2720  1.3636
 5547TIP3   OH240835   0.153   1.455  10.625 -0.1512 -0.3115  0.2416
 5547TIP3    H140836   0.142   1.547  10.650  0.2606 -0.1596 -0.1272
 5547TIP3    H240837   0.245   1.436  10.642 -0.5148 -1.0192  1.4871
 5548TIP3   OH240838   7.615   4.199  11.948 -0.1575 -0.4681 -0.1182
 5548TIP3    H140839   7.689   4.167  11.999 -0.6192 -0.9691  0.2597
 5548TIP3    H240840   7.609   4.292  11.969 -0.0815 -0.5838  0.4168
 5549TIP3   OH240841   6.625   4.420  10.971  0.3298 -0.0377  0.8986
 5549TIP3    H140842   6.718   4.421  10.952  0.1025 -2.3715 -0.7921
 5549TIP3    H240843   6.585   4.384  10.891 -2.3947  3.7532  0.2861
 5550TIP3   OH240844   5.643   4.878  10.722 -0.4595 -0.1244 -0.0573
 5550TIP3    H140845   5.647   4.956  10.776  2.2592 -0.5796  0.5704
 5550TIP3    H240846   5.565   4.889  10.668 -0.4911  2.7001  0.4504
 5551TIP3   OH240847   6.186   3.413  10.783 -0.5631 -0.1236 -0.1252
 5551TIP3    H140848   6.110   3.372  10.824 -0.3744 -0.9265 -0.5495
 5551TIP3    H240849   6.175   3.396  10.689  0.5877 -1.0455 -0.1178
 5552TIP3   OH240850   7.516   2.184  12.222  0.2184 -0.3073 -0.3378
 5552TIP3    H140851   7.532   2.099  12.181  1.7192  0.1888 -0.8485
 5552TIP3    H240852   7.432   2.212  12.186 -0.0828 -1.3767 -0.4950
 5553TIP3   OH240853   4.124   2.313  10.382  0.4635 -0.4578 -0.6202
 5553TIP3    H140854   4.124   2.341  10.291  0.4891  0.8843 -0.2370
 5553TIP3    H240855   4.196   2.363  10.422 -0.0163 -0.4694  0.2801
 5554TIP3   OH240856   4.447   2.896  11.915  0.1902 -0.1173  0.2457
 5554TIP3    H140857   4.512   2.924  11.980  0.3269  1.1594 -0.3997
 5554TIP3    H240858   4.494   2.898  11.832  0.5709 -3.6036  0.2503
 5555TIP3   OH240859   0.447   1.030  11.326  0.0518  0.1257 -0.2587
 5555TIP3    H140860   0.437   1.064  11.237 -1.2585 -2.5043 -1.2232
 5555TIP3    H240861   0.426   1.105  11.382 -0.5528  1.4748 -2.1655
 5556TIP3   OH240862   5.065   2.577  12.143  0.9421  0.4018 -0.0367
 5556TIP3    H140863   5.121   2.501  12.161  1.0968  0.8642  1.6321
 5556TIP3    H240864   5.050   2.616  12.230  0.2723  1.8539 -0.7796
 5557TIP3   OH240865   5.749   6.940  12.688  0.3501 -0.8296  0.3132
 5557TIP3    H140866   5.832   6.905  12.721  0.6733 -0.6431 -0.2894
 5557TIP3    H240867   5.753   7.034  12.706  0.7032 -0.6588 -0.5898
 5558TIP3   OH240868   1.304   1.359  10.537 -0.7418  0.2337 -0.6396
 5558TIP3    H140869   1.385   1.391  10.578 -0.3236 -2.1944  0.6613
 5558TIP3    H240870   1.250   1.437  10.526 -0.3328  1.3455  3.4522
 5559TIP3   OH240871   3.136   0.061  11.528 -0.4164  0.8561 -0.2248
 5559TIP3    H140872   3.064   0.121  11.507  1.4701  3.1496 -0.4526
 5559TIP3    H240873   3.104   0.013  11.605 -2.3657  1.4387 -0.6019
 5560TIP3   OH240874   1.524   0.751  11.669 -0.4998  0.0154 -0.3263
 5560TIP3    H140875   1.478   0.806  11.733  0.1520  0.1170  0.0669
 5560TIP3    H240876   1.498   0.662  11.691  0.8016 -0.0787  1.0108
 5561TIP3   OH240877   5.833   3.914  12.397  0.1047 -0.7576 -0.5122
 5561TIP3    H140878   5.777   3.850  12.441 -1.0056  1.1566  1.0239
 5561TIP3    H240879   5.914   3.914  12.447  0.1792 -1.0743 -0.6290
 5562TIP3   OH240880   2.106   0.697  11.810  0.0847  0.1400  0.3287
 5562TIP3    H140881   2.179   0.711  11.871  0.2324  0.3362  0.1077
 5562TIP3    H240882   2.051   0.632  11.854  1.7663 -2.0778 -0.6498
 5563TIP3   OH240883   6.845   4.192  12.270  0.3927  0.3486 -0.0387
 5563TIP3    H140884   6.823   4.274  12.227  2.9940  1.3350  0.2976
 5563TIP3    H240885   6.900   4.146  12.207 -0.0824 -0.6003  0.2284
 5564TIP3   OH240886   4.561   5.342  12.402 -0.1357  0.2327 -0.6130
 5564TIP3    H140887   4.622   5.383  12.340 -0.3203  2.6263  0.6889
 5564TIP3    H240888   4.605   5.348  12.487 -1.7459  1.1799  0.2019
 5565TIP3   OH240889   3.653   5.409  11.269 -0.6791 -0.3352  0.2929
 5565TIP3    H140890   3.612   5.411  11.355  2.7748 -1.1037  2.1527
 5565TIP3    H240891   3.676   5.317  11.256 -0.2253 -0.0560 -0.9761
 5566TIP3   OH240892   7.198   4.351  12.455 -0.6638  0.4187 -0.8747
 5566TIP3    H140893   7.283   4.325  12.419 -1.3346 -1.6426 -1.0889
 5566TIP3    H240894   7.153   4.393  12.381 -0.1032  0.8779 -0.9616
 5567TIP3   OH240895   3.310   4.738  12.852  0.2080  0.0382 -0.5704
 5567TIP3    H140896   3.238   4.708  12.796  0.4716 -2.5093  0.3136
 5567TIP3    H240897   3.305   4.833  12.848 -1.2360 -0.0458 -3.0238
 5568TIP3   OH240898   2.007   3.682  10.995 -0.2104 -0.0469  0.2406
 5568TIP3    H140899   2.008   3.645  10.906  1.9381 -0.5129  0.4115
 5568TIP3    H240900   2.070   3.629  11.043  1.2584  2.3658  1.1280
 5569TIP3   OH240901   7.050   1.809  11.792 -0.2491  0.0016 -0.3299
 5569TIP3    H140902   7.073   1.819  11.700 -0.0320 -0.8180 -0.3672
 5569TIP3    H240903   7.126   1.767  11.832 -0.3878  0.2479  0.2061
 5570TIP3   OH240904   5.385   5.549  11.779 -0.1374  0.0667 -0.5602
 5570TIP3    H140905   5.410   5.630  11.823 -0.0803 -0.2656  0.0180
 5570TIP3    H240906   5.294   5.534  11.804  0.0137 -0.3278 -0.2404
 5571TIP3   OH240907   7.310   0.984  10.651 -0.0506  0.6951 -0.2293
 5571TIP3    H140908   7.278   1.073  10.634  1.6911  1.5183  0.6223
 5571TIP3    H240909   7.243   0.945  10.707 -0.5268  1.6715 -0.0987
 5572TIP3   OH240910   1.589   5.867  11.895  0.6650  0.4302 -0.3418
 5572TIP3    H140911   1.511   5.921  11.905  0.1603 -0.2822 -0.3135
 5572TIP3    H240912   1.559   5.778  11.915  1.0002 -0.1724 -2.2552
 5573TIP3   OH240913   7.615   6.845  11.711 -0.1929  0.4703  0.5595
 5573TIP3    H140914   7.547   6.894  11.756 -0.9649  0.4703 -0.5713
 5573TIP3    H240915   7.607   6.871  11.620  0.9491  0.0264  0.3152
 5574TIP3   OH240916   1.237   0.018  11.320 -0.3499 -0.0810 -0.4916
 5574TIP3    H140917   1.160   0.032  11.376  0.7851  0.7180  0.9432
 5574TIP3    H240918   1.278   0.104  11.315  1.0917 -0.7335 -0.2512
 5575TIP3   OH240919   5.233   5.892  11.815  0.7716  0.2808  0.1732
 5575TIP3    H140920   5.186   5.809  11.804 -1.5574  1.8284 -3.1120
 5575TIP3    H240921   5.322   5.865  11.840 -0.3025 -3.0843  0.9170
 5576TIP3   OH240922   2.300   3.185  11.016  0.2013  0.5859 -0.2877
 5576TIP3    H140923   2.341   3.268  10.991 -0.7896  0.9385 -0.7941
 5576TIP3    H240924   2.331   3.122  10.951  1.1624  0.4886  0.2490
 5577TIP3   OH240925   2.983   3.873  12.933 -0.4903 -0.0577 -0.3512
 5577TIP3    H140926   3.076   3.860  12.915 -1.1008 -1.4027 -3.1325
 5577TIP3    H240927   2.968   3.828  13.016  1.1033 -0.9903 -0.5241
 5578TIP3   OH240928   2.048   3.304  10.918  0.5509  0.2597 -0.4471
 5578TIP3    H140929   2.143   3.304  10.927  0.5740 -0.7174 -0.6178
 5578TIP3    H240930   2.015   3.319  11.006  0.8570 -0.4753 -0.2019
 5579TIP3   OH240931   1.069   4.102  10.821  0.2327  0.1088 -0.0262
 5579TIP3    H140932   1.034   4.014  10.830 -1.4273  0.6624 -0.6123
 5579TIP3    H240933   0.999   4.151  10.778  0.7867  1.9136  1.0255
 5580TIP3   OH240934   4.167   5.537  11.717 -0.2042  0.4700 -0.6067
 5580TIP3    H140935   4.109   5.561  11.788 -1.4949  0.1322 -1.5105
 5580TIP3    H240936   4.173   5.441  11.722 -0.3713  0.4377 -0.9936
 5581TIP3   OH240937   3.120   2.039  10.100 -0.4843 -0.4389 -0.0907
 5581TIP3    H140938   3.153   2.029  10.190  0.1716 -1.3481 -0.4142
 5581TIP3    H240939   3.186   1.995  10.046 -0.2293  1.1956 -1.1516
 5582TIP3   OH240940   6.810   0.526  11.287 -0.3271  0.5753  0.1238
 5582TIP3    H140941   6.743   0.560  11.346 -0.7136 -0.0006  0.0210
 5582TIP3    H240942   6.868   0.475  11.345 -0.6703  0.0635  0.0237
 5583TIP3   OH240943   3.635   1.588  11.392 -0.1193  0.8905 -0.6961
 5583TIP3    H140944   3.552   1.541  11.404  1.1518 -1.1358  0.7974
 5583TIP3    H240945   3.609   1.672  11.354 -2.9917  0.9311  1.0374
 5584TIP3   OH240946   6.575   4.816  11.108  0.1820 -0.3624 -0.0965
 5584TIP3    H140947   6.643   4.807  11.041 -0.8827  1.5509 -1.5297
 5584TIP3    H240948   6.583   4.907  11.137 -0.1034 -0.8512  1.6181
 5585TIP3   OH240949   7.166   4.567  12.297  0.2086  0.1589  0.5417
 5585TIP3    H140950   7.168   4.662  12.294  2.8106  0.1380 -1.1222
 5585TIP3    H240951   7.136   4.540  12.210 -2.6243 -0.6481  1.6287
 5586TIP3   OH240952   0.466   6.541  11.195 -0.4456  0.2972  0.2863
 5586TIP3    H140953   0.383   6.495  11.184  0.4024 -0.8533 -1.9050
 5586TIP3    H240954   0.532   6.472  11.197  0.6213  1.2698 -0.0758
 5587TIP3   OH240955   4.414   1.563  11.584 -0.5607 -0.0095  0.5933
 5587TIP3    H140956   4.334   1.611  11.565  0.0268  1.2279  1.1195
 5587TIP3    H240957   4.415   1.491  11.521 -2.2808 -0.2931  0.8494
 5588TIP3   OH240958   6.898   7.484  11.125  0.2472  0.3900 -0.6185
 5588TIP3    H140959   6.975   7.437  11.094 -0.0551 -0.4530 -0.1170
 5588TIP3    H240960   6.928   7.574  11.137  1.1627  0.0628 -0.3947
 5589TIP3   OH240961   7.636   6.214  11.587  0.0026 -0.1031 -0.1950
 5589TIP3    H140962   7.613   6.278  11.654  0.0638  0.2356 -0.4994
 5589TIP3    H240963   7.718   6.176  11.618 -0.6501 -0.9224  0.6128
 5590TIP3   OH240964   1.964   0.980  11.980 -0.0726  0.1653  0.2269
 5590TIP3    H140965   1.911   1.011  12.054 -0.9589 -1.7900  0.4696
 5590TIP3    H240966   1.909   0.914  11.937  1.6806 -1.0546 -0.2488
 5591TIP3   OH240967   6.907   1.920  11.110  0.3322  0.1343  0.1295
 5591TIP3    H140968   6.999   1.947  11.113  0.5948 -0.8164  1.4885
 5591TIP3    H240969   6.886   1.895  11.200  0.0424 -3.7929 -0.8485
 5592TIP3   OH240970   7.281   2.553  12.625 -0.3247  0.3057 -0.0516
 5592TIP3    H140971   7.234   2.618  12.573 -0.2167  0.3332 -0.1148
 5592TIP3    H240972   7.263   2.470  12.582 -0.0329  0.3585 -0.2789
 5593TIP3   OH240973   5.913   2.137  11.087 -0.1091 -0.1956  0.0251
 5593TIP3    H140974   5.914   2.044  11.066 -0.5674 -0.2991  0.4401
 5593TIP3    H240975   5.898   2.180  11.003  0.5608 -0.4701 -0.2397
 5594TIP3   OH240976   7.637   1.531  11.324  0.0300 -0.3422 -0.7128
 5594TIP3    H140977   7.702   1.591  11.288 -0.1069 -0.3856 -1.0415
 5594TIP3    H240978   7.607   1.480  11.248  0.9800 -1.6383 -0.2559
 5595TIP3   OH240979   5.210   7.369  12.429 -0.3207 -0.4342  0.2280
 5595TIP3    H140980   5.174   7.294  12.477  0.4374 -0.2382  1.1465
 5595TIP3    H240981   5.246   7.426  12.497  1.0585 -0.2801 -0.5956
 5596TIP3   OH240982   1.166   2.760  11.400 -0.5868 -0.4137  0.0831
 5596TIP3    H140983   1.250   2.716  11.389 -1.0220 -0.6368 -3.2357
 5596TIP3    H240984   1.179   2.848  11.365 -1.5031 -0.1141  0.4364
 5597TIP3   OH240985   7.094   0.724  10.957 -0.3740  0.1731 -0.7257
 5597TIP3    H140986   7.060   0.763  10.877 -2.2346  0.1398 -0.0231
 5597TIP3    H240987   7.029   0.657  10.980  0.2910 -0.0460  0.6138
 5598TIP3   OH240988   6.894   3.981  11.960  0.2215 -0.2394 -0.5797
 5598TIP3    H140989   6.882   4.073  11.981  0.8867 -0.1330 -0.6321
 5598TIP3    H240990   6.939   3.981  11.875  0.3587 -0.6014 -0.5121
 5599TIP3   OH240991   2.467   0.796  11.540 -0.3427  0.2502 -0.1198
 5599TIP3    H140992   2.499   0.708  11.522 -0.9705  0.3690 -2.0109
 5599TIP3    H240993   2.375   0.784  11.566  0.4060  0.1268  2.8618
 5600TIP3   OH240994   6.629   2.728  11.623 -0.1186 -0.3816 -0.1154
 5600TIP3    H140995   6.607   2.635  11.615 -1.8280 -0.0729  0.5310
 5600TIP3    H240996   6.686   2.746  11.548 -1.3075 -1.5393 -1.3620
 5601TIP3   OH240997   6.454   2.067  10.400 -0.5056  0.6482 -0.0853
 5601TIP3    H140998   6.514   2.121  10.450 -1.6600 -0.2587  2.4710
 5601TIP3    H240999   6.397   2.129  10.354  0.5834  1.5156 -0.2999
 5602TIP3   OH241000   0.857   4.452  13.415 -0.0111 -0.8218 -0.1812
 5602TIP3    H141001   0.770   4.436  13.380  0.2449 -0.4880 -0.9873
 5602TIP3    H241002   0.844   4.514  13.487 -0.3845 -0.4014 -0.6069
 5603TIP3   OH241003   6.649   3.885  11.972 -0.0111 -0.4755  0.2270
 5603TIP3    H141004   6.658   3.806  12.027  1.4114 -0.4105  0.1303
 5603TIP3    H241005   6.737   3.921  11.968 -0.3568  0.2790 -1.0151
 5604TIP3   OH241006   6.304   1.275  12.534  0.2730 -0.1904 -0.1635
 5604TIP3    H141007   6.270   1.365  12.532 -0.7786 -0.5402  0.7981
 5604TIP3    H241008   6.364   1.274  12.609 -1.1819 -0.7367  1.0654
 5605TIP3   OH241009   3.923   6.851  11.801 -0.2480 -0.5374  0.2316
 5605TIP3    H141010   3.881   6.892  11.877 -0.5275 -1.6048  0.6803
 5605TIP3    H241011   4.017   6.856  11.821 -0.0431  2.2507 -0.9786
 5606TIP3   OH241012   1.541   2.444  13.231  0.0157  0.2114  0.3183
 5606TIP3    H141013   1.486   2.370  13.256  1.1894 -0.6830  0.2988
 5606TIP3    H241014   1.614   2.405  13.183  1.7217  1.1372  2.0261
 5607TIP3   OH241015   6.714   5.078  11.978  0.3580  0.8324 -0.0688
 5607TIP3    H141016   6.697   5.094  11.885  0.8993  1.0051 -0.1377
 5607TIP3    H241017   6.809   5.073  11.985  0.3716  1.8202  0.6419
 5608TIP3   OH241018   0.572   3.752  11.310  0.0262  0.0769 -0.2960
 5608TIP3    H141019   0.488   3.789  11.338  0.8631  2.3088 -0.5190
 5608TIP3    H241020   0.637   3.819  11.333  1.9387 -2.0629  0.9046
 5609TIP3   OH241021   0.299   2.530  12.601  0.2691 -0.5972 -0.3826
 5609TIP3    H141022   0.223   2.527  12.543 -0.4219 -0.0785  0.4621
 5609TIP3    H241023   0.311   2.623  12.620 -0.2458 -0.8067  1.1878
 5610TIP3   OH241024   2.751   5.689  13.102  0.6149 -0.7262 -0.5507
 5610TIP3    H141025   2.751   5.695  13.198  0.6552  0.4353 -0.6176
 5610TIP3    H241026   2.659   5.675  13.079  0.3782  0.5154 -0.4179
 5611TIP3   OH241027   4.397   5.046  11.584  0.2378  0.5914  0.2224
 5611TIP3    H141028   4.321   4.992  11.565 -1.2626  2.9254 -0.9717
 5611TIP3    H241029   4.455   4.990  11.636 -0.6935 -2.4148 -1.7333
 5612TIP3   OH241030   5.419   4.102  12.373  0.0510 -0.3319 -0.1083
 5612TIP3    H141031   5.457   4.110  12.285 -2.5928  1.6532 -1.1994
 5612TIP3    H241032   5.429   4.189  12.411 -1.0153 -0.4889  0.5719
 5613TIP3   OH241033   2.297   2.114  11.777 -0.0923  0.3216  0.2806
 5613TIP3    H141034   2.287   2.020  11.794  1.4582  0.4471  2.2537
 5613TIP3    H241035   2.207   2.146  11.768 -0.6138 -1.5727 -2.0573
 5614TIP3   OH241036   4.098   3.251  12.235  0.4180  0.4402  0.5330
 5614TIP3    H141037   4.061   3.312  12.300 -1.8379 -0.3265  0.0559
 5614TIP3    H241038   4.056   3.167  12.255  1.9140 -0.4972 -0.1122
 5615TIP3   OH241039   0.661   0.419  12.772  0.1981 -0.2604 -0.8246
 5615TIP3    H141040   0.743   0.371  12.756  1.4168  1.3913  0.1166
 5615TIP3    H241041   0.630   0.385  12.856  0.0232 -0.7442 -1.0823
 5616TIP3   OH241042   0.319   3.763  11.453 -0.1407  0.4334  0.3535
 5616TIP3    H141043   0.224   3.773  11.451 -0.1440  0.3189 -1.3064
 5616TIP3    H241044   0.334   3.671  11.429  0.4176  0.9815 -1.6239
 5617TIP3   OH241045   2.668   3.555   9.968 -0.1507  0.0894  0.4275
 5617TIP3    H141046   2.731   3.496  10.010  0.0199  0.2422  0.3907
 5617TIP3    H241047   2.586   3.506   9.967 -0.1999  0.1527  1.0893
 5618TIP3   OH241048   6.412   4.044  11.000  0.2099 -0.4551  0.0040
 5618TIP3    H141049   6.377   4.128  11.029  0.6217 -0.2374 -0.1241
 5618TIP3    H241050   6.502   4.063  10.972  0.5159 -1.0421  0.5444
 5619TIP3   OH241051   7.528   2.029  10.852 -0.1615 -0.3270  0.0787
 5619TIP3    H141052   7.453   2.044  10.794 -0.8401 -0.5512  0.8618
 5619TIP3    H241053   7.534   2.108  10.905 -1.5041 -1.2692  1.7767
 5620TIP3   OH241054   1.994   5.782  12.858 -0.3645  0.3131  0.3388
 5620TIP3    H141055   2.068   5.748  12.808 -0.9921  0.2646 -0.5812
 5620TIP3    H241056   2.032   5.849  12.914  0.3669  0.3305 -0.1627
 5621TIP3   OH241057   0.283   4.756  11.945 -0.1328  0.3107  0.1917
 5621TIP3    H141058   0.216   4.751  11.877  0.3853 -0.7288 -0.2668
 5621TIP3    H241059   0.262   4.835  11.994 -1.1051  0.5320 -0.5589
 5622TIP3   OH241060   5.964   6.116  12.959  0.1123  0.0858  0.0600
 5622TIP3    H141061   6.015   6.072  12.890  0.4839  0.1069  0.3165
 5622TIP3    H241062   6.004   6.203  12.966 -1.3613  0.9292 -1.2709
 5623TIP3   OH241063   3.978   6.975  12.373 -0.1643 -0.0695  0.0616
 5623TIP3    H141064   3.910   6.948  12.435 -1.2670  0.7864 -0.7320
 5623TIP3    H241065   4.060   6.958  12.419 -0.8710 -1.8218  0.7679
 5624TIP3   OH241066   1.175   4.474  13.090 -0.0206  0.9223  0.4888
 5624TIP3    H141067   1.135   4.435  13.168  1.4414  2.0362  1.8699
 5624TIP3    H241068   1.150   4.566  13.095 -0.6458  0.8483 -0.8838
 5625TIP3   OH241069   4.894   3.468  10.712  0.1016  0.3672  0.1214
 5625TIP3    H141070   4.892   3.496  10.804 -2.4127  0.8125  0.0019
 5625TIP3    H241071   4.924   3.546  10.664  2.5365 -0.1978  0.5829
 5626TIP3   OH241072   4.422   1.325  12.454 -0.1606 -0.3441 -0.3017
 5626TIP3    H141073   4.335   1.320  12.495  0.3579  0.0301  0.8893
 5626TIP3    H241074   4.460   1.406  12.487  0.8461 -0.7633 -0.3842
 5627TIP3   OH241075   3.846   1.179  12.530  0.2200 -0.0497 -0.6736
 5627TIP3    H141076   3.786   1.248  12.555 -0.5042 -0.9586  0.1749
 5627TIP3    H241077   3.885   1.149  12.612 -0.2657 -1.3354 -0.8853
 5628TIP3   OH241078   6.907   3.071  12.197  0.2848  0.4265  0.0503
 5628TIP3    H141079   6.938   3.156  12.228  0.6966  0.5746 -0.7456
 5628TIP3    H241080   6.879   3.087  12.106 -2.1842  0.3047  0.7111
 5629TIP3   OH241081   3.243   2.725  13.115  0.0569  0.6381 -0.6725
 5629TIP3    H141082   3.280   2.693  13.197  1.0117  1.2427 -0.8602
 5629TIP3    H241083   3.272   2.816  13.108  2.4083 -0.1517 -3.0167
 5630TIP3   OH241084   5.505   3.708  13.104 -0.5772 -0.4908 -0.1040
 5630TIP3    H141085   5.438   3.752  13.156 -1.5339  0.2505 -1.8804
 5630TIP3    H241086   5.550   3.651  13.166  0.6544  2.8219  2.3444
 5631TIP3   OH241087   0.314   7.281  10.769 -0.2164  0.2863  0.4912
 5631TIP3    H141088   0.349   7.224  10.838  0.8015  1.4286  0.9780
 5631TIP3    H241089   0.282   7.221  10.702  2.8207 -0.9471 -0.0475
 5632TIP3   OH241090   0.718   3.594  10.386 -0.3234 -0.2993 -0.0735
 5632TIP3    H141091   0.745   3.502  10.398  0.7832 -0.3115 -2.2673
 5632TIP3    H241092   0.789   3.644  10.426 -0.2597 -0.3944 -0.0653
 5633TIP3   OH241093   3.171   2.762  12.509 -0.0759 -0.3841 -0.2694
 5633TIP3    H141094   3.231   2.694  12.539  0.0875 -0.2289 -0.2448
 5633TIP3    H241095   3.097   2.713  12.471 -0.4444 -0.5947  0.6686
 5634TIP3   OH241096   2.597   2.452  11.233 -0.0487  0.2524 -0.1519
 5634TIP3    H141097   2.538   2.406  11.292  1.0912 -0.7915  0.2090
 5634TIP3    H241098   2.627   2.528  11.282 -0.7335  0.5337 -0.1715
 5635TIP3   OH241099   7.289   3.562  11.723  0.7544 -0.3041 -0.1966
 5635TIP3    H141100   7.234   3.489  11.695 -0.9682  0.4400  1.1101
 5635TIP3    H241101   7.325   3.597  11.641  1.1889 -2.2407 -0.8899
 5636TIP3   OH241102   7.345   4.630  12.056 -0.0574  0.0803 -0.1460
 5636TIP3    H141103   7.377   4.678  12.132  0.9994 -0.4670 -0.2213
 5636TIP3    H241104   7.286   4.692  12.012 -0.8133  0.3463  1.1784
 5637TIP3   OH241105   4.705   6.809  10.776 -0.1075  0.4505  0.2873
 5637TIP3    H141106   4.771   6.859  10.728 -1.3467  1.6879 -0.1926
 5637TIP3    H241107   4.622   6.853  10.755 -1.3180 -2.0018 -0.4107
 5638TIP3   OH241108   0.425   0.619  12.064 -0.4463 -0.2088  0.2426
 5638TIP3    H141109   0.356   0.652  12.122 -0.6338 -0.7732  0.3516
 5638TIP3    H241110   0.454   0.696  12.015 -0.6535  0.1745  0.7093
 5639TIP3   OH241111   3.923   2.002  11.724 -0.0838 -0.2862 -0.3637
 5639TIP3    H141112   4.006   1.958  11.707  0.5354  1.3572 -1.8788
 5639TIP3    H241113   3.857   1.948  11.679 -0.0243 -1.9875  1.4264
 5640TIP3   OH241114   1.436   4.448  10.154  0.0841 -0.0793 -0.2119
 5640TIP3    H141115   1.397   4.523  10.109  0.5439 -0.0102 -0.5119
 5640TIP3    H241116   1.526   4.475  10.171 -0.6352  0.7849  2.7988
 5641TIP3   OH241117   2.057   0.188  11.748 -0.5776  0.4478  0.0703
 5641TIP3    H141118   2.136   0.149  11.785 -0.6697  1.8449  1.8851
 5641TIP3    H241119   1.987   0.159  11.806 -0.9023  1.7620  0.3660
 5642TIP3   OH241120   7.512   7.252  11.102  0.4863  0.0589 -0.3296
 5642TIP3    H141121   7.503   7.301  11.184  1.3990  1.0844 -0.8183
 5642TIP3    H241122   7.425   7.257  11.061  0.1545 -0.0532  0.3517
 5643TIP3   OH241123   6.433   7.382  12.303  0.3800  0.2336 -0.0544
 5643TIP3    H141124   6.402   7.439  12.233  0.8248  0.1893 -0.2952
 5643TIP3    H241125   6.440   7.440  12.380 -1.5005 -0.0255  0.3562
 5644TIP3   OH241126   2.135   1.986  12.192 -0.6811 -0.5066 -0.3124
 5644TIP3    H141127   2.119   1.895  12.216 -0.1855 -0.1143  1.7493
 5644TIP3    H241128   2.105   2.036  12.268 -1.8152  1.1486 -1.7529
 5645TIP3   OH241129   3.548   2.007  13.092 -0.0229 -0.4363  0.0419
 5645TIP3    H141130   3.559   2.035  13.001  0.9932 -0.3142  0.1961
 5645TIP3    H241131   3.514   2.084  13.137  0.0459 -0.3151 -0.1132
 5646TIP3   OH241132   5.539   6.047  10.932  0.3283 -0.1222  0.5885
 5646TIP3    H141133   5.625   6.063  10.894  1.0350 -0.4199  2.0267
 5646TIP3    H241134   5.478   6.076  10.864  1.5429  1.3146  0.0445
 5647TIP3   OH241135   6.855   2.602  13.273  0.0972 -0.4244 -0.4944
 5647TIP3    H141136   6.808   2.677  13.236  1.1832 -0.1615 -1.4229
 5647TIP3    H241137   6.843   2.532  13.210 -1.0286 -1.1086  0.4388
 5648TIP3   OH241138   5.834   0.446  10.581 -0.2307 -0.3190  0.4350
 5648TIP3    H141139   5.866   0.369  10.627  0.0064 -0.4245  0.0947
 5648TIP3    H241140   5.913   0.499  10.567 -0.4376  0.1487  0.9669
 5649TIP3   OH241141   1.957   1.786  11.018 -0.3943 -0.4381 -1.0509
 5649TIP3    H141142   1.933   1.878  11.012 -1.4796 -0.6943 -0.7888
 5649TIP3    H241143   2.022   1.782  11.088  0.5307  0.2837 -1.8444
 5650TIP3   OH241144   4.300   4.706  11.492  0.2998  0.1910  0.9480
 5650TIP3    H141145   4.252   4.706  11.574  2.3437  0.4337  2.2051
 5650TIP3    H241146   4.250   4.765  11.435 -1.4688 -0.4449  1.7716
 5651TIP3   OH241147   2.719   2.616  11.037 -0.0555 -0.2720  0.5974
 5651TIP3    H141148   2.638   2.655  11.005  0.6855  1.1023  0.3209
 5651TIP3    H241149   2.694   2.570  11.117 -1.1355 -0.0432  0.4034
 5652TIP3   OH241150   1.652   5.086  12.716 -0.3632 -0.2095 -0.2666
 5652TIP3    H141151   1.598   5.160  12.745  0.5429  0.6678 -0.7604
 5652TIP3    H241152   1.667   5.102  12.623  0.1542 -0.8115 -0.2928
 5653TIP3   OH241153   4.784   2.350  12.080 -0.2246 -0.4478  0.1528
 5653TIP3    H141154   4.807   2.347  12.172  1.6619 -1.7542 -0.3062
 5653TIP3    H241155   4.831   2.426  12.045 -0.3412 -0.3927  0.1132
 5654TIP3   OH241156   4.467   2.607  11.644  0.2918  0.1012  0.2113
 5654TIP3    H141157   4.527   2.670  11.683  3.1837 -1.5467 -1.2653
 5654TIP3    H241158   4.523   2.548  11.593 -2.6253 -1.4527 -1.4884
 5655TIP3   OH241159   6.995   5.977  11.621  0.2811 -0.3601 -0.1473
 5655TIP3    H141160   6.958   6.050  11.671  1.9530  0.1512  0.4323
 5655TIP3    H241161   6.947   5.977  11.538 -0.0359  1.1558  0.0061
 5656TIP3   OH241162   7.057   2.164  11.770 -0.2294 -0.2837  0.1797
 5656TIP3    H141163   6.974   2.163  11.817 -0.8443  0.0623 -0.8702
 5656TIP3    H241164   7.106   2.089  11.805 -1.4249 -1.1512  0.0268
 5657TIP3   OH241165   2.021   2.071  12.734  0.1255  0.3567  0.3955
 5657TIP3    H141166   1.933   2.065  12.698 -0.4542 -1.6631  1.9571
 5657TIP3    H241167   2.078   2.044  12.662 -0.6164  0.6716 -0.3223
 5658TIP3   OH241168   0.271   0.824  12.485 -0.0242 -0.0907 -0.6017
 5658TIP3    H141169   0.279   0.813  12.390 -2.1470  1.7425 -1.0801
 5658TIP3    H241170   0.274   0.735  12.520  0.7336 -0.8109 -2.3645
 5659TIP3   OH241171   2.905   1.796  12.360 -0.9399 -0.3301  0.0469
 5659TIP3    H141172   3.000   1.789  12.375 -0.8305 -0.8301 -0.8014
 5659TIP3    H241173   2.894   1.878  12.312 -0.9836 -0.0667  0.5079
 5660TIP3   OH241174   1.711   2.239  11.711 -0.3713  0.4251  0.0210
 5660TIP3    H141175   1.729   2.315  11.766 -1.1163  0.0887  0.7656
 5660TIP3    H241176   1.644   2.269  11.649 -0.0281  0.6139 -0.2619
 5661TIP3   OH241177   4.943   2.020  10.190 -0.3260  0.0490  0.4825
 5661TIP3    H141178   4.853   1.995  10.170 -0.3092  0.9010 -0.8097
 5661TIP3    H241179   4.935   2.106  10.233 -0.1678 -0.2217  1.0568
 5662TIP3   OH241180   3.708   1.287  11.572  0.0008 -0.2881 -0.2868
 5662TIP3    H141181   3.653   1.342  11.629  1.0264 -1.2603  1.7599
 5662TIP3    H241182   3.787   1.339  11.557  0.4726 -0.7044  0.6754
 5663TIP3   OH241183   2.442   3.433  11.584 -0.0412 -0.3009 -0.0414
 5663TIP3    H141184   2.371   3.383  11.544 -1.0844  1.1647 -0.1008
 5663TIP3    H241185   2.418   3.524  11.570  0.4228  0.2709  2.3826
 5664TIP3   OH241186   5.800   6.127  11.062 -0.2312 -0.4791  0.0306
 5664TIP3    H141187   5.720   6.179  11.068  0.2330  0.2435  0.1419
 5664TIP3    H241188   5.863   6.185  11.020 -0.3317 -1.7483 -1.9766
 5665TIP3   OH241189   4.441   3.234  13.067 -0.1721  0.2265 -0.4982
 5665TIP3    H141190   4.349   3.258  13.066 -0.3267 -0.2803  0.5300
 5665TIP3    H241191   4.455   3.186  12.985 -0.8974  0.0284 -0.5080
 5666TIP3   OH241192   7.013   5.388  12.417  0.0860  0.2456 -0.1418
 5666TIP3    H141193   7.028   5.376  12.511  0.3484  0.7189 -0.1234
 5666TIP3    H241194   6.920   5.371  12.406 -0.0575  0.7149  0.2947
 5667TIP3   OH241195   3.472   3.751  13.015 -0.5031 -0.3971 -0.1281
 5667TIP3    H141196   3.512   3.721  12.933  0.6637  1.2280 -0.1919
 5667TIP3    H241197   3.545   3.788  13.065 -2.0377  5.3798 -1.4312
 5668TIP3   OH241198   3.167   0.523  11.522  0.0933 -0.6160 -0.4720
 5668TIP3    H141199   3.198   0.532  11.612  2.7960 -0.3059 -1.3322
 5668TIP3    H241200   3.111   0.599  11.507  0.7356  0.0627  0.5329
 5669TIP3   OH241201   5.285   2.917  10.764  0.7953 -0.3080 -0.2628
 5669TIP3    H141202   5.270   2.900  10.857 -2.0013  1.0411 -0.3530
 5669TIP3    H241203   5.226   2.857  10.719 -0.9951  1.7873 -0.9169
 5670TIP3   OH241204   0.970   0.174  10.584  0.8588 -0.5144  0.8032
 5670TIP3    H141205   0.998   0.243  10.522 -0.2350 -1.6251 -1.0162
 5670TIP3    H241206   0.891   0.209  10.625  0.2480 -0.6885 -0.1914
 5671TIP3   OH241207   2.649   1.941  10.169  0.1225  0.3347  0.5451
 5671TIP3    H141208   2.616   2.022  10.207 -0.7839 -0.4156  1.4372
 5671TIP3    H241209   2.572   1.899  10.131  0.4628 -0.4045  0.6527
 5672TIP3   OH241210   2.479   2.035  10.368  0.0732 -0.3530  0.1256
 5672TIP3    H141211   2.427   2.014  10.290 -0.2530  1.0967 -0.0710
 5672TIP3    H241212   2.534   1.958  10.382  0.4928 -0.4492 -1.8239
 5673TIP3   OH241213   2.146   2.127   9.989  0.0423 -0.3285 -0.0160
 5673TIP3    H141214   2.127   2.090  10.075 -0.1998  0.0169  0.0836
 5673TIP3    H241215   2.124   2.058   9.927 -2.3619  0.3079  0.0369
 5674TIP3   OH241216   3.789   2.492  11.658  0.2953  0.0726 -0.1971
 5674TIP3    H141217   3.773   2.424  11.723 -1.0373 -0.0041 -0.5827
 5674TIP3    H241218   3.880   2.519  11.674  0.2823 -0.5603  1.0955
 5675TIP3   OH241219   3.136   1.621  12.628  0.0673  0.1571 -0.2741
 5675TIP3    H141220   3.074   1.604  12.557  1.3366 -1.0997 -1.1429
 5675TIP3    H241221   3.147   1.536  12.670  1.5160  0.2346 -0.4327
 5676TIP3   OH241222   0.788   7.501  10.846 -0.2931 -0.5503 -0.3418
 5676TIP3    H141223   0.708   7.499  10.898 -1.3341 -0.9146 -1.8949
 5676TIP3    H241224   0.827   7.415  10.858  1.0096  0.2586  2.0168
 5677TIP3   OH241225   5.040   4.627  10.973  0.3118 -0.3344  0.3604
 5677TIP3    H141226   4.971   4.675  11.020  0.2545 -0.7932  0.7494
 5677TIP3    H241227   5.121   4.670  11.000  0.4098 -1.4496  1.9742
 5678TIP3   OH241228   1.168   0.182  12.556  0.1466 -0.0759  1.0326
 5678TIP3    H141229   1.129   0.253  12.505 -2.9366 -2.4023 -0.1414
 5678TIP3    H241230   1.203   0.122  12.490 -2.1686 -2.1897  1.6008
 5679TIP3   OH241231   7.377   4.665  10.633 -0.2543 -0.7019  0.0570
 5679TIP3    H141232   7.348   4.672  10.724  1.2040  0.9911  0.4405
 5679TIP3    H241233   7.413   4.751  10.612 -0.5706 -1.0419 -2.1496
 5680TIP3   OH241234   6.995   3.052  12.622 -0.4318  0.3923 -0.0662
 5680TIP3    H141235   7.004   2.998  12.543 -2.3643 -1.2981  0.7840
 5680TIP3    H241236   6.903   3.075  12.625  0.2427  3.5378 -0.1485
 5681TIP3   OH241237   5.469   2.872  10.299  0.2076 -0.4486  0.0350
 5681TIP3    H141238   5.405   2.813  10.259  1.0657 -0.0481 -2.0276
 5681TIP3    H241239   5.416   2.930  10.354 -1.0689 -0.8644 -0.6985
 5682TIP3   OH241240   5.468   1.169  10.568 -0.3966  0.1104  0.3253
 5682TIP3    H141241   5.398   1.204  10.622 -0.3558 -1.2156  1.2781
 5682TIP3    H241242   5.425   1.145  10.486 -1.1492 -0.9476  1.0019
 5683TIP3   OH241243   2.608   1.860  12.521  0.2187 -0.0160  0.4716
 5683TIP3    H141244   2.633   1.785  12.574 -1.6862 -1.2393 -0.2729
 5683TIP3    H241245   2.621   1.831  12.430  1.8236  1.4645  0.1565
 5684TIP3   OH241246   1.487   5.339  10.795  0.1601  0.2020 -0.6871
 5684TIP3    H141247   1.480   5.246  10.817 -2.2619  0.4864  0.0257
 5684TIP3    H241248   1.548   5.342  10.722  2.2109 -1.6653  0.7969
 5685TIP3   OH241249   0.952   0.043  11.325 -0.3718 -0.1064  0.1106
 5685TIP3    H141250   0.886  -0.026  11.335 -0.1352 -0.6166 -1.5482
 5685TIP3    H241251   0.946   0.094  11.406 -3.4416  0.4460 -0.3430
 5686TIP3   OH241252   2.162   6.623  11.068  0.2875 -0.2115  0.0098
 5686TIP3    H141253   2.132   6.543  11.111 -0.0889 -1.8310 -3.0136
 5686TIP3    H241254   2.256   6.611  11.056  0.2746 -0.0894 -0.2285
 5687TIP3   OH241255   0.835   5.058  11.862  0.0422  0.4561 -0.0434
 5687TIP3    H141256   0.849   4.999  11.787 -2.2691 -1.0279  0.5948
 5687TIP3    H241257   0.827   5.145  11.823  0.0412 -0.1271 -1.4010
 5688TIP3   OH241258   3.300   0.216  12.472 -0.2755 -0.0425  0.2779
 5688TIP3    H141259   3.360   0.191  12.402  1.1858 -1.8385  2.0291
 5688TIP3    H241260   3.271   0.305  12.449  1.5089  0.1167 -1.6545
 5689TIP3   OH241261   0.874   0.737  10.687 -0.1934 -0.2467  0.0513
 5689TIP3    H141262   0.951   0.793  10.676  1.3083 -2.3928 -1.0352
 5689TIP3    H241263   0.800   0.797  10.678  1.3034  1.5735 -1.0512
 5690TIP3   OH241264   7.519   0.470  10.686  0.1202 -0.1118  0.4357
 5690TIP3    H141265   7.540   0.561  10.663 -3.2206  0.3726 -1.3371
 5690TIP3    H241266   7.467   0.477  10.766  0.2892 -0.5041  0.5798
 5691TIP3   OH241267   5.176   6.656  10.694 -0.3917  0.4013 -0.5341
 5691TIP3    H141268   5.199   6.715  10.623  0.5121  0.4060 -0.2474
 5691TIP3    H241269   5.106   6.701  10.741 -0.4914  0.7238 -0.9872
 5692TIP3   OH241270   1.755   1.791  10.461  0.0054  0.1468  0.6664
 5692TIP3    H141271   1.732   1.755  10.375  1.1628 -1.6485  1.0413
 5692TIP3    H241272   1.673   1.792  10.509 -0.7741  1.6886 -0.5790
 5693TIP3   OH241273   7.473   5.373  12.892 -0.1287  0.0345 -0.2570
 5693TIP3    H141274   7.428   5.372  12.977  0.7707  0.6436  0.2394
 5693TIP3    H241275   7.468   5.282  12.862 -0.7571 -0.1218  0.2856
 5694TIP3   OH241276   1.303   1.293  12.773 -0.1914 -0.2257 -0.0232
 5694TIP3    H141277   1.296   1.243  12.692  0.6064  0.7267 -0.7146
 5694TIP3    H241278   1.213   1.317  12.795 -0.4326 -0.6817 -0.5067
 5695TIP3   OH241279   6.694   5.665  12.001 -0.3142  0.4809  0.3060
 5695TIP3    H141280   6.632   5.608  11.956  0.1201 -0.4987  0.9274
 5695TIP3    H241281   6.772   5.611  12.014  0.2294  1.3167  0.6241
 5696TIP3   OH241282   2.130   6.020  11.488  0.1603 -0.1684 -0.2232
 5696TIP3    H141283   2.168   6.059  11.567 -0.1516 -0.7114  0.2046
 5696TIP3    H241284   2.132   5.926  11.505 -1.7496 -0.2062  0.0031
 5697TIP3   OH241285   0.403   4.782  13.299 -0.6070 -0.4518  0.3371
 5697TIP3    H141286   0.478   4.841  13.289 -0.7728 -0.1238  0.9516
 5697TIP3    H241287   0.429   4.702  13.254  0.7217 -0.8983  1.8116
 5698TIP3   OH241288   0.053   2.299  11.238  0.3144 -0.1793  0.2387
 5698TIP3    H141289   0.050   2.377  11.293 -0.7487 -0.6039  0.8131
 5698TIP3    H241290   0.129   2.251  11.269  0.8794  0.5363 -0.0067
 5699TIP3   OH241291   4.853   3.100  12.448  0.0712 -0.2880 -0.0024
 5699TIP3    H141292   4.923   3.077  12.509  0.8789  1.6455 -0.1244
 5699TIP3    H241293   4.818   3.183  12.482 -1.7609 -0.8923 -0.2998
 5700TIP3   OH241294   4.038   1.144  11.548  0.1889  0.2631 -0.3500
 5700TIP3    H141295   4.110   1.090  11.580  0.0592  0.1242 -0.2920
 5700TIP3    H241296   3.966   1.082  11.533 -1.0830  0.7706  2.8140
 5701TIP3   OH241297   4.196   3.398  11.897 -0.6390 -0.0120 -0.6437
 5701TIP3    H141298   4.254   3.403  11.972 -1.8214 -0.0381  0.3043
 5701TIP3    H241299   4.108   3.386  11.935 -1.1459 -1.0553 -2.0518
 5702TIP3   OH241300   5.734   1.185  12.247  0.2776 -0.2531 -0.2967
 5702TIP3    H141301   5.809   1.192  12.307  1.8718 -0.8710 -2.1042
 5702TIP3    H241302   5.692   1.270  12.251  2.6172  1.0322 -1.1073
 5703TIP3   OH241303   6.336   6.111  12.347  0.2345 -0.2414  0.7255
 5703TIP3    H141304   6.370   6.069  12.426 -0.0803  1.5090  1.8537
 5703TIP3    H241305   6.297   6.041  12.296  0.5465 -1.4250  2.0756
 5704TIP3   OH241306   4.668   5.993  12.267  0.1759 -0.6145 -0.3470
 5704TIP3    H141307   4.624   5.995  12.182 -1.1003  1.8284  0.2551
 5704TIP3    H241308   4.629   5.918  12.312 -1.2372 -0.2846 -0.9422
 5705TIP3   OH241309   4.370   0.209  10.766  0.1916 -0.2146  0.7154
 5705TIP3    H141310   4.404   0.121  10.781 -0.4214 -0.8124 -1.1032
 5705TIP3    H241311   4.431   0.267  10.813  0.9779 -1.5510  1.3967
 5706TIP3   OH241312   3.028   3.319  11.195  0.0090 -0.6201 -0.3430
 5706TIP3    H141313   3.008   3.404  11.156 -2.9241 -0.1694  1.8582
 5706TIP3    H241314   3.119   3.327  11.224  0.9815  0.3832 -3.2954
 5707TIP3   OH241315   4.104   4.260  11.648  0.0837  0.0824  0.3843
 5707TIP3    H141316   4.068   4.277  11.561  0.3969 -2.0376 -0.2037
 5707TIP3    H241317   4.192   4.225  11.631  0.9411  1.4864  1.6593
 5708TIP3   OH241318   0.936   0.782  12.585 -0.6253 -0.4968  0.1574
 5708TIP3    H141319   0.863   0.755  12.641 -1.3434 -0.8455 -0.9092
 5708TIP3    H241320   0.923   0.733  12.504  1.0021 -0.8229  0.0601
 5709TIP3   OH241321   0.989   4.805  11.423 -0.0169  0.0535  0.0860
 5709TIP3    H141322   0.919   4.869  11.431 -0.4836 -0.3405 -0.6737
 5709TIP3    H241323   0.995   4.765  11.510  0.0325  0.8642  0.4644
 5710TIP3   OH241324   7.087   5.325  11.328 -0.0013 -0.1700 -0.1939
 5710TIP3    H141325   7.175   5.293  11.349 -0.5656 -0.8329  1.3192
 5710TIP3    H241326   7.030   5.252  11.351 -1.1674  1.1962  1.4346
 5711TIP3   OH241327   3.756   2.918  12.825  0.3763 -0.5210 -0.9880
 5711TIP3    H141328   3.736   2.941  12.916  0.8609 -0.1998 -0.9564
 5711TIP3    H241329   3.834   2.863  12.831 -0.4711 -1.7929 -1.1024
 5712TIP3   OH241330   5.272   4.743  10.672  0.3896  0.5429  0.3120
 5712TIP3    H141331   5.304   4.661  10.708 -0.6900  0.5998  1.5164
 5712TIP3    H241332   5.264   4.801  10.748  1.6083  1.9545 -0.5692
 5713TIP3   OH241333   4.868   3.445  12.834 -0.1421 -0.0172 -0.5389
 5713TIP3    H141334   4.901   3.355  12.838  4.2022  1.3442  2.4098
 5713TIP3    H241335   4.824   3.458  12.918 -2.3334  0.2483 -1.6563
 5714TIP3   OH241336   6.005   4.825  11.918  0.0504 -0.1009 -0.3951
 5714TIP3    H141337   6.011   4.732  11.900  0.1647 -0.3717  0.8955
 5714TIP3    H241338   5.949   4.860  11.849 -0.1370 -1.1502 -0.7879
 5715TIP3   OH241339   2.775   2.961  12.467  0.4670 -0.6854 -0.3095
 5715TIP3    H141340   2.791   3.051  12.439  0.8954  0.2670  2.6534
 5715TIP3    H241341   2.848   2.911  12.429  1.9076  0.7920  0.3563
 5716TIP3   OH241342   5.843   4.569  10.606  0.1512 -0.1689 -0.1892
 5716TIP3    H141343   5.793   4.591  10.527  0.2688 -0.1353 -0.2539
 5716TIP3    H241344   5.928   4.539  10.573 -0.1534 -1.1435 -0.1292
 5717TIP3   OH241345   6.832   0.700  12.121 -0.3113 -0.6763  0.0260
 5717TIP3    H141346   6.881   0.650  12.186  0.7053  0.3239  0.0707
 5717TIP3    H241347   6.899   0.740  12.066 -1.1326 -0.6305 -0.9707
 5718TIP3   OH241348   3.476   0.114  12.012  0.0817  0.4008 -0.3548
 5718TIP3    H141349   3.407   0.124  12.076  1.1454  1.3352  0.6882
 5718TIP3    H241350   3.537   0.186  12.029  1.8950 -1.0134 -0.4780
 5719TIP3   OH241351   1.212   4.925  11.911  0.3440  0.1578 -0.4306
 5719TIP3    H141352   1.143   4.859  11.906 -0.2070  0.6202  0.6775
 5719TIP3    H241353   1.177   4.999  11.862 -0.2570  0.6338  0.6824
 5720TIP3   OH241354   5.953   5.796  11.332 -0.6330  0.0084 -0.4421
 5720TIP3    H141355   5.935   5.737  11.260  0.9924 -1.0150 -0.0538
 5720TIP3    H241356   5.992   5.873  11.291 -1.6071  0.3165 -0.8238
 5721TIP3   OH241357   1.454   2.817  12.330  0.1730  0.3618  0.1497
 5721TIP3    H141358   1.400   2.780  12.260  0.6203 -0.0007 -0.0084
 5721TIP3    H241359   1.544   2.799  12.303  0.3569 -2.4036  2.2089
 5722TIP3   OH241360   5.262   7.480  10.901 -0.2192  0.0351 -0.6885
 5722TIP3    H141361   5.321   7.548  10.869 -1.1624  0.5653 -1.3440
 5722TIP3    H241362   5.204   7.462  10.827 -0.0347 -1.4402 -0.5077
 5723TIP3   OH241363   0.302   3.991  12.897 -0.3141  0.3282 -0.1594
 5723TIP3    H141364   0.330   3.949  12.816  2.0012 -0.0366  0.7608
 5723TIP3    H241365   0.307   3.923  12.963 -0.6481  1.0073  0.5896
 5724TIP3   OH241366   7.119   7.354  11.009  0.1824  0.2390 -0.0640
 5724TIP3    H141367   7.201   7.394  10.982  0.4171 -0.8109 -1.0004
 5724TIP3    H241368   7.064   7.356  10.930 -0.2268 -0.1710  0.2050
 5725TIP3   OH241369   1.482   4.572  11.620 -0.1985 -0.2145  0.7451
 5725TIP3    H141370   1.399   4.610  11.649 -0.1160  1.1018 -0.6724
 5725TIP3    H241371   1.494   4.495  11.677 -2.5931 -0.6941  0.6794
 5726TIP3   OH241372   3.830   0.172  10.831 -0.0505  0.1815 -1.1525
 5726TIP3    H141373   3.793   0.085  10.817 -1.8642  0.6405  0.4527
 5726TIP3    H241374   3.867   0.168  10.920 -0.6271  1.1766 -0.8536
 5727TIP3   OH241375   0.135   0.359  10.993 -0.4065 -0.6731 -0.1785
 5727TIP3    H141376   0.192   0.338  11.067  0.4033  0.0615 -0.5773
 5727TIP3    H241377   0.058   0.303  11.005 -1.1784  0.7762  2.2857
 5728TIP3   OH241378   0.046   5.683  12.329 -0.0429 -0.2679 -0.2915
 5728TIP3    H141379   0.138   5.694  12.352 -0.1373 -0.3964  0.1618
 5728TIP3    H241380   0.047   5.660  12.236  0.3247  0.6635 -0.5201
 5729TIP3   OH241381   7.104   5.602  13.467  0.2190  0.4904  0.2018
 5729TIP3    H141382   7.163   5.552  13.524  0.8388 -1.9751 -2.3961
 5729TIP3    H241383   7.105   5.690  13.504  3.3221 -0.1125  1.9232
 5730TIP3   OH241384   4.729   1.200  10.239  0.4949 -0.0977  0.2964
 5730TIP3    H141385   4.693   1.163  10.158 -0.3898 -1.7720  1.3841
 5730TIP3    H241386   4.731   1.294  10.223 -0.1186 -0.3296 -1.4899
 5731TIP3   OH241387   7.503   0.679  11.984  0.0547  0.2984  0.0004
 5731TIP3    H141388   7.529   0.771  11.988  1.1696 -0.0394  2.2064
 5731TIP3    H241389   7.569   0.634  12.036 -0.3510 -1.8115 -1.1929
 5732TIP3   OH241390   7.044   3.761  12.721 -0.2561  0.4444  0.3696
 5732TIP3    H141391   7.039   3.831  12.657 -0.4588 -0.4146 -0.5847
 5732TIP3    H241392   6.991   3.792  12.795 -1.4859  0.7425 -0.5994
 5733TIP3   OH241393   1.523   6.807  13.271 -0.3791  0.2468 -0.1326
 5733TIP3    H141394   1.565   6.737  13.221 -1.6510 -0.2594 -0.5233
 5733TIP3    H241395   1.573   6.811  13.353 -0.7098 -1.6065  0.2021
 5734TIP3   OH241396   3.315   6.409  10.297 -0.0489  0.0535  0.2905
 5734TIP3    H141397   3.226   6.433  10.323 -0.1016 -1.7376  2.0042
 5734TIP3    H241398   3.303   6.332  10.241  0.3918  0.2835 -0.1228
 5735TIP3   OH241399   5.644   4.212  11.800  0.0157  0.0489  0.2728
 5735TIP3    H141400   5.736   4.216  11.825  0.9293  2.9944 -2.7807
 5735TIP3    H241401   5.638   4.135  11.744 -0.3693 -2.2262  3.1878
 5736TIP3   OH241402   6.555   7.021  11.152  0.1806  0.5062  0.2835
 5736TIP3    H141403   6.540   7.007  11.058 -3.3834  0.7938  0.6759
 5736TIP3    H241404   6.637   7.069  11.156  1.9331 -1.9013 -2.4473
 5737TIP3   OH241405   6.265   2.384  11.912  0.0993 -0.8274  0.4465
 5737TIP3    H141406   6.335   2.379  11.846  1.4077 -2.9166  1.8942
 5737TIP3    H241407   6.188   2.410  11.862  1.3977 -0.6758 -1.6187
 5738TIP3   OH241408   6.361   6.640  11.573 -0.6877 -0.2620  0.4070
 5738TIP3    H141409   6.446   6.596  11.584  0.0779  1.1482  0.3481
 5738TIP3    H241410   6.379   6.711  11.511 -1.8164  0.3267  0.7405
 5739TIP3   OH241411   1.625   6.999  12.078  0.3632 -0.0013  0.0708
 5739TIP3    H141412   1.541   7.022  12.119  0.4813 -0.2877  0.4745
 5739TIP3    H241413   1.600   6.947  12.001  0.1587  0.1544  0.0300
 5740TIP3   OH241414   4.037   7.479  12.333 -0.4185  0.0695 -0.0347
 5740TIP3    H141415   3.947   7.449  12.348 -0.1254 -0.8883 -0.1494
 5740TIP3    H241416   4.090   7.400  12.339  0.0702  0.0319 -3.1844
 5741TIP3   OH241417   6.496   1.764  12.326  0.5311  1.2528  0.1579
 5741TIP3    H141418   6.507   1.686  12.381  0.1585  1.7103  0.8882
 5741TIP3    H241419   6.586   1.788  12.302  0.5923 -0.1735 -1.1925
 5742TIP3   OH241420   2.397   2.268  10.748  0.4947 -0.3317 -0.2244
 5742TIP3    H141421   2.353   2.344  10.786 -1.4724 -0.6049 -1.8021
 5742TIP3    H241422   2.396   2.202  10.818 -0.4383  0.1300  0.2091
 5743TIP3   OH241423   5.293   3.270  18.066 -0.2207 -0.1542  0.1842
 5743TIP3    H141424   5.332   3.192  18.026  0.4035 -0.5848  1.5465
 5743TIP3    H241425   5.330   3.271  18.154 -0.6052  1.4241  0.3444
 5744TIP3   OH241426   4.210   0.711  12.913 -0.4231  0.0024 -0.0373
 5744TIP3    H141427   4.268   0.728  12.839 -0.7707 -0.4230 -0.4055
 5744TIP3    H241428   4.180   0.621  12.901 -2.0729  0.5847 -0.4794
 5745TIP3   OH241429   1.224   4.340  12.227  0.1622 -0.5657 -0.1733
 5745TIP3    H141430   1.174   4.325  12.147  0.1545 -0.8047 -0.1269
 5745TIP3    H241431   1.190   4.421  12.263  0.7644  0.0101 -0.8672
 5746TIP3   OH241432   3.720   5.851  10.942 -0.1631 -0.1038  0.2155
 5746TIP3    H141433   3.720   5.783  11.009 -0.2301 -0.1213  0.1982
 5746TIP3    H241434   3.755   5.809  10.864  1.6215  0.4003  0.7133
 5747TIP3   OH241435   5.386   1.689  11.034 -0.6865 -0.2780 -0.0983
 5747TIP3    H141436   5.338   1.660  11.112  1.0653 -0.0979  1.1124
 5747TIP3    H241437   5.452   1.622  11.020 -0.8687 -0.2173 -1.3556
 5748TIP3   OH241438   0.604   1.933  10.742  0.3100  0.2257  0.4519
 5748TIP3    H141439   0.598   2.028  10.740  1.3867  0.3024  0.4776
 5748TIP3    H241440   0.694   1.913  10.715  0.2992 -0.7486  1.0709
 5749TIP3   OH241441   6.837   4.597  10.733 -0.6519 -0.7956 -0.0645
 5749TIP3    H141442   6.904   4.591  10.665  0.8445  1.3187  1.1322
 5749TIP3    H241443   6.865   4.535  10.800 -0.4710 -0.7134 -0.0622
 5750TIP3   OH241444   2.361   3.411  12.273 -0.0780  0.0828  0.8170
 5750TIP3    H141445   2.266   3.398  12.266 -0.3403  0.6005  2.8715
 5750TIP3    H241446   2.374   3.448  12.360  2.0094  0.2285  0.4911
 5751TIP3   OH241447   3.591   1.821  12.580  0.1649  0.6488 -0.2973
 5751TIP3    H141448   3.604   1.738  12.625 -3.3146  0.0068 -0.1903
 5751TIP3    H241449   3.585   1.798  12.487 -2.2980  0.4624 -0.1466
 5752TIP3   OH241450   3.541   2.346  11.713  0.1381  0.2860 -0.1334
 5752TIP3    H141451   3.478   2.279  11.686 -0.1146  0.6233 -0.3934
 5752TIP3    H241452   3.498   2.429  11.692  0.0479  0.5559  1.0388
 5753TIP3   OH241453   7.020   5.852  12.062  0.2765  0.3445  0.3386
 5753TIP3    H141454   6.942   5.902  12.039 -0.0962 -0.1101  0.5756
 5753TIP3    H241455   6.987   5.781  12.118  0.9912  0.7067  1.2443
 5754TIP3   OH241456   6.923   1.207  10.299 -0.2789  0.6295 -0.5862
 5754TIP3    H141457   6.904   1.188  10.207  0.1035  1.5667 -0.8695
 5754TIP3    H241458   6.864   1.279  10.321 -0.3097  0.4640 -0.1136
 5755TIP3   OH241459   5.967   1.650  11.855 -0.1505  0.2104 -0.2027
 5755TIP3    H141460   5.889   1.595  11.849 -0.1111  0.0105  0.9040
 5755TIP3    H241461   5.953   1.703  11.934  1.8113 -1.3921  1.3218
 5756TIP3   OH241462   6.157   0.928  11.965 -0.1661 -0.4032  0.0641
 5756TIP3    H141463   6.251   0.917  11.973 -0.1951 -1.1077 -0.5478
 5756TIP3    H241464   6.120   0.845  11.995 -0.5106 -0.8290 -1.4788
 5757TIP3   OH241465   6.882   0.145  10.813  0.1350  0.3378  0.0582
 5757TIP3    H141466   6.922   0.204  10.750  2.2560 -0.6573  0.4083
 5757TIP3    H241467   6.874   0.198  10.893 -0.1765  0.8335 -0.2971
 5758TIP3   OH241468   0.431   3.671  12.319  0.4221  0.0349  0.9324
 5758TIP3    H141469   0.394   3.640  12.402 -2.9304 -1.0186 -0.7679
 5758TIP3    H241470   0.413   3.765  12.318 -2.2011 -0.3834  0.3260
 5759TIP3   OH241471   7.439   6.984  11.845  0.5106 -0.3606  0.1614
 5759TIP3    H141472   7.410   6.971  11.935  0.0927  0.3712  0.1422
 5759TIP3    H241473   7.469   7.075  11.842  0.4082 -0.3409 -0.4717
 5760TIP3   OH241474   3.414   2.495  10.913  0.4996 -0.0611 -0.1678
 5760TIP3    H141475   3.350   2.564  10.924 -0.5113 -0.8585 -0.8554
 5760TIP3    H241476   3.411   2.474  10.820 -1.4072 -3.0234  0.4375
 5761TIP3   OH241477   2.750   1.762  13.248  0.8618 -0.5240  0.0395
 5761TIP3    H141478   2.676   1.782  13.305 -0.1243 -1.4342 -0.8670
 5761TIP3    H241479   2.796   1.845  13.236 -1.3172  0.5687 -1.1689
 5762TIP3   OH241480   0.443   7.079  10.922  0.4627  0.0333 -0.2835
 5762TIP3    H141481   0.523   7.110  10.965 -0.0854 -0.3687  1.1041
 5762TIP3    H241482   0.468   6.995  10.883  0.7157 -0.1023  0.1620
 5763TIP3   OH241483   0.702   7.550  12.487  0.1157 -0.4541  0.1453
 5763TIP3    H141484   0.621   7.498  12.491  0.6739 -1.3891 -0.3535
 5763TIP3    H241485   0.741   7.540  12.573  0.2675 -0.9483  0.0225
 5764TIP3   OH241486   3.517   5.271  11.749  0.4531 -0.1442 -0.3487
 5764TIP3    H141487   3.533   5.330  11.822  1.1928 -1.2635  0.4104
 5764TIP3    H241488   3.597   5.220  11.740  0.4288  0.0607 -2.0380
 5765TIP3   OH241489   4.788   6.351  11.097 -0.9050  0.2343  0.4233
 5765TIP3    H141490   4.693   6.360  11.107 -0.7829  2.1426  0.3108
 5765TIP3    H241491   4.802   6.362  11.003 -0.5373  0.4740  0.5050
 5766TIP3   OH241492   0.846   1.089  12.088 -0.1287 -0.1516  0.0955
 5766TIP3    H141493   0.913   1.140  12.044  1.2774 -0.5248  1.7117
 5766TIP3    H241494   0.791   1.056  12.017  1.9473 -0.6160 -1.3899
 5767TIP3   OH241495   2.636   2.753   9.870 -0.0365  0.0629 -0.5357
 5767TIP3    H141496   2.689   2.728   9.794  1.3607 -1.2595  0.7918
 5767TIP3    H241497   2.685   2.824   9.911 -1.9218  2.3705 -2.0111
 5768TIP3   OH241498   7.660   1.232  10.994 -0.0879  0.0707 -0.1803
 5768TIP3    H141499   7.610   1.261  10.918 -0.9263 -2.6017 -0.7331
 5768TIP3    H241500   7.606   1.258  11.069 -1.4083 -1.0954 -0.6974
 5769TIP3   OH241501   2.084   0.065  10.741 -0.5465 -0.6225  0.3368
 5769TIP3    H141502   2.049  -0.001  10.801 -1.2894  0.2773  0.9379
 5769TIP3    H241503   2.038   0.051  10.659  0.0444 -1.4899  0.1449
 5770TIP3   OH241504   5.445   1.354  12.357 -0.0922 -0.1824  0.0564
 5770TIP3    H141505   5.525   1.405  12.344 -0.4569  0.2484 -0.5922
 5770TIP3    H241506   5.412   1.339  12.268 -0.4473 -0.8141  0.2921
 5771TIP3   OH241507   4.049   5.498  11.133  0.3196 -0.7511  0.8421
 5771TIP3    H141508   3.989   5.437  11.090 -1.3536  1.4043 -0.1044
 5771TIP3    H241509   4.020   5.500  11.224 -0.1561 -0.7363  0.6928
 5772TIP3   OH241510   6.370   4.094  13.326  0.5184  0.2761 -0.0989
 5772TIP3    H141511   6.279   4.121  13.340  0.4046 -0.2598  0.2443
 5772TIP3    H241512   6.385   4.026  13.392  1.0051 -0.0115 -0.4985
 5773TIP3   OH241513   3.449   2.219  13.221  0.1379 -0.0729  0.2966
 5773TIP3    H141514   3.524   2.255  13.268 -0.1039 -1.5581  1.9194
 5773TIP3    H241515   3.375   2.273  13.248  0.3413  0.4141 -0.0928
 5774TIP3   OH241516   6.597   3.872  11.177  0.7223 -0.4171 -0.6748
 5774TIP3    H141517   6.635   3.824  11.103  0.7394  0.6499 -1.3846
 5774TIP3    H241518   6.545   3.942  11.136  0.2799 -0.1454  0.3214
 5775TIP3   OH241519   5.506   3.900  12.905 -0.2221  0.8004  0.1991
 5775TIP3    H141520   5.492   3.978  12.959 -1.8397  0.4168  0.3974
 5775TIP3    H241521   5.515   3.828  12.967  2.6878  0.9598  0.0671
 5776TIP3   OH241522   4.574   5.965  11.575  0.1111 -0.1066  0.1425
 5776TIP3    H141523   4.624   5.968  11.494 -0.2526  1.4000 -0.0544
 5776TIP3    H241524   4.524   6.046  11.576  0.8331  0.3918  2.3228
 5777TIP3   OH241525   0.952   5.197  12.457 -0.0372 -0.0123  0.4549
 5777TIP3    H141526   0.920   5.255  12.526  1.5336  1.9113 -0.3062
 5777TIP3    H241527   0.995   5.125  12.504 -0.9445  0.0648  1.4444
 5778TIP3   OH241528   1.156   0.430  10.730 -0.0400  0.1610  0.5554
 5778TIP3    H141529   1.117   0.455  10.646 -0.1883  1.7147  1.0645
 5778TIP3    H241530   1.082   0.396  10.781 -0.0734 -0.1244  0.3246
 5779TIP3   OH241531   2.485   3.735  10.539 -0.0570 -0.0438 -0.5654
 5779TIP3    H141532   2.442   3.819  10.556  0.2892 -0.0804  0.6033
 5779TIP3    H241533   2.578   3.751  10.558  0.4615 -0.0258 -2.8328
 5780TIP3   OH241534   0.435   1.986  12.296 -0.2870 -0.9324 -0.3468
 5780TIP3    H141535   0.376   2.053  12.329 -1.2771 -1.2241 -1.4439
 5780TIP3    H241536   0.427   1.914  12.358  0.0976 -0.3934  0.3449
 5781TIP3   OH241537   5.619   2.414  12.876 -0.2474  0.1500 -0.1587
 5781TIP3    H141538   5.691   2.371  12.921  1.3727  0.2884 -2.4581
 5781TIP3    H241539   5.556   2.344  12.859 -0.2278 -0.1680  1.0100
 5782TIP3   OH241540   1.128   3.448  12.987 -0.3091  0.7172 -0.1828
 5782TIP3    H141541   1.171   3.373  13.029 -1.1957 -0.9546 -2.0914
 5782TIP3    H241542   1.194   3.518  12.990  0.6359 -0.1678  1.4474
 5783TIP3   OH241543   0.591   2.721  10.843 -0.0424  0.0271 -0.5621
 5783TIP3    H141544   0.526   2.792  10.835  1.1255  1.1783 -0.1360
 5783TIP3    H241545   0.557   2.666  10.913 -1.1199 -0.0266 -1.0985
 5784TIP3   OH241546   3.143   1.164  11.084 -0.6894  0.4474 -0.1745
 5784TIP3    H141547   3.209   1.098  11.106 -0.8936  0.3741  0.2177
 5784TIP3    H241548   3.132   1.156  10.989 -0.3099  0.2952 -0.2056
 5785TIP3   OH241549   7.111   5.508  12.890 -1.0331  0.0211 -0.3117
 5785TIP3    H141550   7.040   5.571  12.901 -0.9000  0.5485 -2.0586
 5785TIP3    H241551   7.155   5.536  12.810  0.7251 -0.7088  0.3560
 5786TIP3   OH241552   3.438   4.499  12.852  0.2916  0.1757 -0.1314
 5786TIP3    H141553   3.380   4.576  12.854 -0.1614 -0.1769  1.2098
 5786TIP3    H241554   3.519   4.531  12.812  0.7299  1.8212  1.9064
 5787TIP3   OH241555   4.995   6.393  11.338 -0.2844 -0.1299  0.0233
 5787TIP3    H141556   4.950   6.455  11.396 -1.7848 -0.0837 -1.1231
 5787TIP3    H241557   4.958   6.308  11.361  1.9824 -0.7434  1.7966
 5788TIP3   OH241558   2.437   6.980  12.056 -0.1623  0.3937 -0.3288
 5788TIP3    H141559   2.470   7.064  12.025 -0.1193  0.3412 -0.4249
 5788TIP3    H241560   2.446   6.985  12.152  2.0306 -0.3738 -0.4235
 5789TIP3   OH241561   3.110   2.065  11.770 -0.2731  0.3302 -0.2142
 5789TIP3    H141562   3.134   1.991  11.826 -1.4713 -0.0264 -0.1612
 5789TIP3    H241563   3.015   2.061  11.763 -0.2504  1.1407 -1.2300
 5790TIP3   OH241564   1.675   4.485  11.192 -0.0192 -0.0339  0.0734
 5790TIP3    H141565   1.601   4.532  11.155  0.0461  0.0415  0.0371
 5790TIP3    H241566   1.687   4.524  11.279  0.2623  0.2684 -0.0954
 5791TIP3   OH241567   3.498   0.845  11.521 -0.0497 -0.3646 -0.0045
 5791TIP3    H141568   3.502   0.934  11.485 -0.1785 -0.7735 -1.0640
 5791TIP3    H241569   3.579   0.836  11.571 -1.1659  1.2092  2.2281
 5792TIP3   OH241570   4.626   0.229  12.216  0.6223  0.3660 -0.1356
 5792TIP3    H141571   4.650   0.140  12.240 -0.2252  0.2398  0.2974
 5792TIP3    H241572   4.606   0.223  12.122 -3.5902 -0.9442  0.6200
 5793TIP3   OH241573   5.590   6.005  12.301  0.2407 -0.0494  0.1453
 5793TIP3    H141574   5.592   5.913  12.275 -0.7026 -0.1167  0.3064
 5793TIP3    H241575   5.678   6.038  12.280  0.8538 -1.1943  0.8521
 5794TIP3   OH241576   4.105   2.200  12.936  0.2194  0.2212  0.5199
 5794TIP3    H141577   4.067   2.247  13.010  0.2286  1.6952 -0.3633
 5794TIP3    H241578   4.152   2.127  12.976 -1.0801  0.0622  1.8388
 5795TIP3   OH241579   0.647   1.592  11.914 -0.5210  0.0246  0.7529
 5795TIP3    H141580   0.591   1.574  11.838 -0.2100  0.5159  0.3960
 5795TIP3    H241581   0.587   1.620  11.982 -0.6802  1.0673  0.2099
 5796TIP3   OH241582   2.930   4.445  11.444 -0.1630  0.2458  0.4591
 5796TIP3    H141583   2.849   4.471  11.400  0.3805 -0.9262 -1.3557
 5796TIP3    H241584   2.992   4.514  11.423  0.0913 -0.3027 -0.7040
 5797TIP3   OH241585   3.139   1.840  11.954  1.0794 -0.2657  0.4334
 5797TIP3    H141586   3.217   1.828  12.008  0.3403  0.3941  1.6825
 5797TIP3    H241587   3.080   1.770  11.981  0.9686 -0.3548 -0.0254
 5798TIP3   OH241588   3.032   5.974  11.955  0.3366  0.6545 -0.2009
 5798TIP3    H141589   3.079   6.022  12.024  0.7536  2.3047 -1.5776
 5798TIP3    H241590   3.083   5.894  11.943  1.2999  1.2008  0.1472
 5799TIP3   OH241591   4.620   5.465  12.890  0.0943 -0.4885  0.2667
 5799TIP3    H141592   4.579   5.500  12.969 -1.2002 -0.5398 -0.3531
 5799TIP3    H241593   4.659   5.541  12.847  0.5405 -0.4147  0.7764
 5800TIP3   OH241594   3.456   2.952  12.114 -0.7784 -0.6597  0.4128
 5800TIP3    H141595   3.476   2.884  12.050  3.6192  1.4198 -0.8248
 5800TIP3    H241596   3.429   2.904  12.192 -1.2895 -3.5783 -1.3973
 5801TIP3   OH241597   6.410   1.222  11.370 -0.2656  0.2839 -0.0782
 5801TIP3    H141598   6.357   1.142  11.375 -1.3451  0.8244 -2.0573
 5801TIP3    H241599   6.356   1.289  11.411  0.2261  0.2417  0.6752
 5802TIP3   OH241600   4.470   6.175  10.565  0.7237 -0.4050  0.4717
 5802TIP3    H141601   4.511   6.255  10.534  1.1326 -0.2062  1.4713
 5802TIP3    H241602   4.491   6.110  10.498  0.7631  0.2184 -0.1299
 5803TIP3   OH241603   4.465   0.798  11.523  0.6777 -0.0547 -0.3149
 5803TIP3    H141604   4.504   0.805  11.436 -1.0372 -1.5413 -1.2541
 5803TIP3    H241605   4.489   0.710  11.554 -0.9177 -0.5677 -0.4443
 5804TIP3   OH241606   4.437   1.979  12.237 -0.3402 -0.2978 -0.2653
 5804TIP3    H141607   4.385   2.052  12.204 -0.9603 -1.5664 -2.2962
 5804TIP3    H241608   4.444   1.919  12.162 -0.0240 -2.4067  1.3502
 5805TIP3   OH241609   5.237   2.334  12.164  0.1540 -0.0622 -0.0131
 5805TIP3    H141610   5.229   2.348  12.069 -1.4632 -0.6941  0.0004
 5805TIP3    H241611   5.228   2.240  12.175 -1.6175  0.1722  0.9043
 5806TIP3   OH241612   3.859   5.900  10.556 -0.0214 -0.5834  0.4222
 5806TIP3    H141613   3.930   5.871  10.613 -0.2695 -2.7078 -0.2349
 5806TIP3    H241614   3.889   5.984  10.520  1.9149 -1.1561  0.5910
 5807TIP3   OH241615   4.954   7.652  10.811 -0.1748 -0.7916  0.1908
 5807TIP3    H141616   4.940   7.567  10.853  1.2242 -0.2255  1.9202
 5807TIP3    H241617   5.000   7.630  10.729 -0.8387 -1.7611  0.0604
 5808TIP3   OH241618   6.893   7.393  11.641 -0.5586  0.7836 -0.5314
 5808TIP3    H141619   6.970   7.443  11.615 -1.1156  1.9446 -0.0389
 5808TIP3    H241620   6.885   7.408  11.735 -1.7540  1.2407 -0.6843
 5809TIP3   OH241621   3.645   4.637  12.700 -0.1387  0.3292  0.2099
 5809TIP3    H141622   3.715   4.574  12.683 -0.3685  0.3390 -0.8441
 5809TIP3    H241623   3.687   4.708  12.749  0.4695  0.0880  0.0373
 5810TIP3   OH241624   4.545   4.236  10.979 -0.2839  0.0763  0.0824
 5810TIP3    H141625   4.476   4.249  11.045 -0.0527  1.0772  0.1374
 5810TIP3    H241626   4.564   4.324  10.946  1.6071 -0.0330  0.7254
 5811TIP3   OH241627   2.874   7.302  11.579 -0.0896  0.3630  0.3295
 5811TIP3    H141628   2.807   7.246  11.540  0.3816  2.0079 -3.1951
 5811TIP3    H241629   2.945   7.242  11.603 -0.0890 -0.7739 -2.2349
 5812TIP3   OH241630   6.395   0.723  11.707 -0.0496  0.0130 -0.2297
 5812TIP3    H141631   6.362   0.806  11.673 -0.0569 -0.2258 -0.8247
 5812TIP3    H241632   6.331   0.658  11.677 -0.3117 -0.1495  0.6514
 5813TIP3   OH241633   4.393   2.379  10.694 -0.3396 -1.0558 -0.4806
 5813TIP3    H141634   4.383   2.400  10.601  0.0512 -1.4741 -0.6223
 5813TIP3    H241635   4.304   2.381  10.729 -0.2623  1.9545 -0.2107
 5814TIP3   OH241636   6.200   1.380  11.497  0.1595  0.2475 -0.1710
 5814TIP3    H141637   6.168   1.467  11.521  1.4214  0.8770 -0.6530
 5814TIP3    H241638   6.156   1.320  11.557 -0.7072  1.2149  0.1883
 5815TIP3   OH241639   3.611   2.889  11.439 -0.3432 -0.4005 -0.3301
 5815TIP3    H141640   3.518   2.874  11.421 -0.1980 -0.7963 -0.7805
 5815TIP3    H241641   3.636   2.959  11.380 -0.7724  0.9590  1.0461
 5816TIP3   OH241642   3.053   3.718  13.161 -0.4211  0.1119 -0.3045
 5816TIP3    H141643   3.029   3.643  13.216 -1.2254  1.1806  0.8512
 5816TIP3    H241644   3.045   3.794  13.219  0.5650  1.0863 -1.3960
 5817TIP3   OH241645   0.597   1.650  10.782 -0.2355  0.5393 -0.4249
 5817TIP3    H141646   0.590   1.739  10.747  0.5168 -0.3088 -2.9486
 5817TIP3    H241647   0.673   1.613  10.737 -0.8527 -1.5526  0.1570
 5818TIP3   OH241648   5.946   1.122  11.954 -0.2030  0.2321  0.0534
 5818TIP3    H141649   6.004   1.056  11.916 -0.2561  0.1403  0.1306
 5818TIP3    H241650   5.980   1.134  12.043 -0.7723 -0.3910  0.3646
 5819TIP3   OH241651   4.329   1.249  12.978 -0.6525  0.2574  0.5569
 5819TIP3    H141652   4.256   1.187  12.972  0.0905 -0.6248  0.4194
 5819TIP3    H241653   4.407   1.194  12.981  0.0000  1.1751  1.0022
 5820TIP3   OH241654   6.543   2.860  10.317 -0.0327 -0.2098  0.2098
 5820TIP3    H141655   6.570   2.946  10.349  0.7429 -0.7833  1.1493
 5820TIP3    H241656   6.453   2.874  10.286  0.2014  1.0079  0.0234
 5821TIP3   OH241657   2.348   5.713  11.258  0.2848 -0.3762 -0.1018
 5821TIP3    H141658   2.313   5.626  11.239 -0.9442 -0.4480  2.0845
 5821TIP3    H241659   2.320   5.730  11.348  0.3950  2.3411 -0.5063
 5822TIP3   OH241660   4.730   1.216  12.055 -0.4936 -0.2003 -0.5622
 5822TIP3    H141661   4.739   1.199  11.961  2.1292 -2.7474  0.0167
 5822TIP3    H241662   4.653   1.165  12.081 -2.3598  1.9592 -1.5189
 5823TIP3   OH241663   7.533   4.469  10.763  0.2489  0.9428  0.5026
 5823TIP3    H141664   7.486   4.513  10.692  0.0056 -1.1475 -0.7314
 5823TIP3    H241665   7.626   4.480  10.740  0.2246  1.6259  0.7282
 5824TIP3   OH241666   1.947   5.237  12.742  0.1312 -0.6619 -0.0971
 5824TIP3    H141667   1.981   5.309  12.795  0.2228 -1.3049  0.7417
 5824TIP3    H241668   1.999   5.161  12.769  0.4010 -0.9464 -1.3530
 5825TIP3   OH241669   6.742   3.509  12.801 -0.5278 -0.1472 -0.0176
 5825TIP3    H141670   6.689   3.562  12.861  0.8950 -0.6815  1.8096
 5825TIP3    H241671   6.727   3.419  12.831  0.5467 -0.3845 -0.1857
 5826TIP3   OH241672   2.589   2.302  12.045 -0.1589 -0.3810  0.8983
 5826TIP3    H141673   2.604   2.325  11.953  0.1078  0.1987  1.0811
 5826TIP3    H241674   2.553   2.213  12.042  1.5576 -1.0968  0.3439
 5827TIP3   OH241675   5.366   6.259  11.954 -0.1829 -0.0424 -0.0881
 5827TIP3    H141676   5.281   6.215  11.960 -0.8347  1.1104 -0.6212
 5827TIP3    H241677   5.410   6.217  11.880 -1.5799  1.4266 -1.8388
 5828TIP3   OH241678   6.051   0.676  12.020 -0.1498 -0.1700 -0.3247
 5828TIP3    H141679   6.094   0.595  12.050 -2.1335 -1.2722 -0.2880
 5828TIP3    H241680   6.008   0.650  11.939  0.5989  1.3525 -1.2485
 5829TIP3   OH241681   4.230   2.457  12.226 -0.4837  0.0556  0.2735
 5829TIP3    H141682   4.287   2.428  12.298 -0.4428  1.1271  0.6805
 5829TIP3    H241683   4.207   2.376  12.180  0.9523 -0.4662  0.4084
 5830TIP3   OH241684   4.150   6.142  10.382 -0.1935 -0.2829 -0.0439
 5830TIP3    H141685   4.093   6.149  10.305 -1.6804  1.3175  1.1363
 5830TIP3    H241686   4.097   6.175  10.455  2.0656  0.7959  1.2229
 5831TIP3   OH241687   1.538   5.498  12.298  0.2314 -0.2301  0.1386
 5831TIP3    H141688   1.608   5.525  12.357  0.3283 -1.4032  0.5844
 5831TIP3    H241689   1.489   5.578  12.280  0.1695  0.1515  1.8549
 5832TIP3   OH241690   2.989   3.901  12.170 -0.2177 -0.1890  0.4157
 5832TIP3    H141691   2.960   3.932  12.084 -1.4246  0.8784  1.1664
 5832TIP3    H241692   3.062   3.843  12.151 -1.2875 -1.0225 -1.4298
 5833TIP3   OH241693   6.732   3.235  12.868  0.3152 -0.1271 -0.5144
 5833TIP3    H141694   6.817   3.199  12.895  0.4655  0.9744  0.6109
 5833TIP3    H241695   6.671   3.205  12.935  0.5086  1.8865  0.6525
 5834TIP3   OH241696   6.252   1.617  11.894 -0.3953 -0.1988 -0.2042
 5834TIP3    H141697   6.233   1.697  11.942 -2.3345 -0.3234 -0.7210
 5834TIP3    H241698   6.175   1.601  11.839  0.4627 -1.7397 -1.0548
 5835TIP3   OH241699   3.817   0.612  11.414 -0.0035  0.0901  0.5770
 5835TIP3    H141700   3.735   0.591  11.370 -1.0782 -0.2825  2.6225
 5835TIP3    H241701   3.801   0.590  11.506  2.4959 -0.2768  0.9997
 5836TIP3   OH241702   6.324   7.660  11.616  0.0796 -0.5596 -0.2829
 5836TIP3    H141703   6.315   7.718  11.691 -0.1776 -0.0512 -0.6958
 5836TIP3    H241704   6.367   7.714  11.550 -2.5306  0.0640 -1.6224
 5837TIP3   OH241705   0.082   3.948  13.205  0.6448  0.1120  0.7199
 5837TIP3    H141706   0.147   3.901  13.152  0.8558 -0.4995  1.5085
 5837TIP3    H241707   0.114   3.940  13.295 -1.4521 -1.7743  1.3661
 5838TIP3   OH241708   2.785   1.692  11.861 -0.0368  0.5038  0.3543
 5838TIP3    H141709   2.838   1.688  11.941 -1.3356  1.6841  1.3355
 5838TIP3    H241710   2.697   1.666  11.890 -0.2919 -0.1602 -0.9544
 5839TIP3   OH241711   2.349   0.041  10.833 -0.1561 -0.4143  0.4891
 5839TIP3    H141712   2.409   0.094  10.780  0.5982 -0.9879  0.7510
 5839TIP3    H241713   2.263   0.059  10.797  0.3594 -1.0067 -1.1273
 5840TIP3   OH241714   6.669   0.841  11.433  0.1133  0.0524 -0.0388
 5840TIP3    H141715   6.667   0.748  11.455 -1.0502 -0.0365 -0.4581
 5840TIP3    H241716   6.587   0.857  11.385 -0.0397  1.4229  0.6061
 5841TIP3   OH241717   6.603   0.003  11.472  0.3341 -0.1814  0.2369
 5841TIP3    H141718   6.603   0.072  11.407  1.3725 -0.6650 -0.2907
 5841TIP3    H241719   6.551  -0.067  11.432 -1.3035  0.5140  1.0500
 5842TIP3   OH241720   0.029   5.275  11.066  0.0686  0.5652  0.0326
 5842TIP3    H141721   0.060   5.356  11.107  0.8345  0.6100 -0.6024
 5842TIP3    H241722  -0.026   5.304  10.994 -0.4251  0.5037  0.3842
 5843TIP3   OH241723   1.867   1.505  11.210 -0.3216  0.2365  0.5566
 5843TIP3    H141724   1.913   1.588  11.219  0.7851 -0.3868  0.7903
 5843TIP3    H241725   1.870   1.466  11.298 -1.3844  0.2228  0.6020
 5844TIP3   OH241726   1.203   6.211  12.203 -0.2759  0.4138 -0.1361
 5844TIP3    H141727   1.191   6.119  12.226 -0.4173  0.4795  0.0495
 5844TIP3    H241728   1.285   6.236  12.247 -0.6581  0.6009  0.4874
 5845TIP3   OH241729   3.748   0.771  11.964 -0.6244  0.2479  0.4158
 5845TIP3    H141730   3.656   0.781  11.987 -1.1184 -1.4517 -0.5754
 5845TIP3    H241731   3.781   0.705  12.025 -1.0283 -1.6669 -1.2887
 5846TIP3   OH241732   2.337   5.895  10.505  0.0254 -0.6325 -0.2598
 5846TIP3    H141733   2.324   5.956  10.578 -1.2342 -0.5830 -0.4984
 5846TIP3    H241734   2.430   5.903  10.483  0.3549 -0.4027  1.1126
 5847TIP3   OH241735   3.806   2.147  13.053  0.2673 -0.0627 -0.3003
 5847TIP3    H141736   3.879   2.084  13.055 -0.8962 -1.5574 -2.0346
 5847TIP3    H241737   3.747   2.117  13.123 -0.2727 -0.9244 -1.1070
 5848TIP3   OH241738   4.172   3.239  13.353 -0.2519 -0.7636 -0.2377
 5848TIP3    H141739   4.105   3.171  13.361 -2.0877  1.0482  0.8561
 5848TIP3    H241740   4.153   3.282  13.270 -2.2665  1.4027  1.1898
 5849TIP3   OH241741   3.950   4.001  13.267 -0.6722  0.3492  0.3646
 5849TIP3    H141742   3.994   4.044  13.340  0.1101 -0.6159  0.4837
 5849TIP3    H241743   3.947   3.909  13.291 -0.2031 -0.0245 -0.9046
 5850TIP3   OH241744   5.110   2.350  12.880  0.0887  0.2927 -0.3848
 5850TIP3    H141745   5.025   2.369  12.842 -1.2771 -1.0248  1.8167
 5850TIP3    H241746   5.127   2.259  12.858 -0.0182 -0.0351  0.8336
 5851TIP3   OH241747   5.283   4.869  10.957 -0.5659 -0.4260  0.0863
 5851TIP3    H141748   5.196   4.907  10.970 -0.8941 -1.1544  0.0242
 5851TIP3    H241749   5.324   4.872  11.044  0.2142  1.9818 -0.2868
 5852TIP3   OH241750   0.657   2.852  11.809  0.4864  0.8510  0.3089
 5852TIP3    H141751   0.717   2.778  11.802 -1.3470 -0.8028  1.3176
 5852TIP3    H241752   0.647   2.883  11.718  1.8728  0.3952 -0.0226
 5853TIP3   OH241753   7.336   2.203  12.708 -0.0776 -0.0776 -0.1860
 5853TIP3    H141754   7.396   2.130  12.693 -0.6684 -0.5016 -0.5442
 5853TIP3    H241755   7.383   2.261  12.768  1.3474  0.3850 -1.6467
 5854TIP3   OH241756   7.392   2.307  10.468  0.1196 -0.1765  0.7772
 5854TIP3    H141757   7.439   2.386  10.441  0.7543 -0.5966  0.6220
 5854TIP3    H241758   7.324   2.295  10.402  0.6067 -0.2690  0.2860
 5855TIP3   OH241759   3.622   0.271  12.215  0.3091  0.0101  0.3409
 5855TIP3    H141760   3.711   0.279  12.249 -0.4109  0.8077  2.2403
 5855TIP3    H241761   3.579   0.209  12.274 -0.2658 -0.8039 -0.8893
 5856TIP3   OH241762   0.061   7.665  13.355  0.4533  0.0291 -0.7661
 5856TIP3    H141763   0.091   7.755  13.370  0.1578  0.1220 -0.7395
 5856TIP3    H241764   0.119   7.612  13.410  1.4394  0.0901 -1.7107
 5857TIP3   OH241765   6.028   3.891  11.824  0.0033 -0.1517  0.0670
 5857TIP3    H141766   5.939   3.916  11.850 -0.4477 -0.0900 -1.4384
 5857TIP3    H241767   6.068   3.971  11.791  0.5127 -0.2434  0.4540
 5858TIP3   OH241768   3.308   5.156  11.307 -0.0989  0.0261  0.0575
 5858TIP3    H141769   3.244   5.159  11.378  0.2209  1.0044  0.3199
 5858TIP3    H241770   3.386   5.118  11.345 -0.0446  0.2166  0.1376
 5859TIP3   OH241771   2.425   4.916  12.546  0.7108 -0.0644 -0.4460
 5859TIP3    H141772   2.483   4.942  12.617  0.2246 -0.3004  0.0482
 5859TIP3    H241773   2.363   4.855  12.587  1.2004 -1.1937 -1.3610
 5860TIP3   OH241774   6.760   2.774  11.380 -0.4722 -0.3223 -0.5864
 5860TIP3    H141775   6.825   2.710  11.348  0.8255  1.1780 -1.0909
 5860TIP3    H241776   6.746   2.832  11.305 -0.6093  0.7578  0.2534
 5861TIP3   OH241777   5.218   2.392  11.898 -0.1568 -0.4484 -0.2194
 5861TIP3    H141778   5.128   2.393  11.864 -0.2255 -0.6715 -0.0457
 5861TIP3    H241779   5.260   2.320  11.850  0.0975  0.0285 -0.7271
 5862TIP3   OH241780   3.511   4.510  10.613 -0.2050  0.4370 -0.1339
 5862TIP3    H141781   3.463   4.593  10.614  0.0851  0.6136  1.2287
 5862TIP3    H241782   3.443   4.444  10.598 -1.1887  0.5665  2.9619
 5863TIP3   OH241783   3.070   5.297  10.849  0.0093 -0.4053  0.0271
 5863TIP3    H141784   3.028   5.383  10.854  1.1545  0.2232 -0.6727
 5863TIP3    H241785   3.068   5.264  10.939  0.1589  0.6652  0.4472
 5864TIP3   OH241786   2.397   3.679  10.799  0.6113 -0.2837 -0.4067
 5864TIP3    H141787   2.414   3.679  10.705  0.8172 -1.9737 -0.3974
 5864TIP3    H241788   2.480   3.707  10.838  0.3182  1.1084 -0.7290
 5865TIP3   OH241789   7.107   5.465  10.560  0.1192  0.5149 -0.2442
 5865TIP3    H141790   7.168   5.536  10.539  1.3256 -0.2436  0.5515
 5865TIP3    H241791   7.047   5.503  10.625 -1.0937  1.6433 -1.9271
 5866TIP3   OH241792   0.425   6.277  12.938  0.3626 -0.3940 -0.1768
 5866TIP3    H141793   0.399   6.366  12.964  2.4349  0.3750 -0.4683
 5866TIP3    H241794   0.386   6.265  12.852 -0.7150 -0.1554  0.2613
 5867TIP3   OH241795   7.195   6.580  12.285  0.2105 -0.4444 -0.6765
 5867TIP3    H141796   7.144   6.510  12.245 -0.9795  0.7679 -1.3712
 5867TIP3    H241797   7.131   6.635  12.330  1.2300 -0.3408  0.7315
 5868TIP3   OH241798   7.207   6.070  11.755  0.1041 -0.4101  0.0552
 5868TIP3    H141799   7.151   5.998  11.729  0.6219 -0.3108 -1.3760
 5868TIP3    H241800   7.184   6.141  11.695  1.9453 -0.4585 -0.7503
 5869TIP3   OH241801   1.629   0.512  11.039 -0.4945  0.3941 -0.3946
 5869TIP3    H141802   1.670   0.555  11.114  0.0835 -1.2371  0.2737
 5869TIP3    H241803   1.701   0.495  10.979 -0.6698  0.1233 -0.5315
 5870TIP3   OH241804   2.604   3.461  12.087 -0.1820  0.2299  0.3591
 5870TIP3    H141805   2.523   3.426  12.125 -0.1035  1.9107  2.2142
 5870TIP3    H241806   2.581   3.485  11.998 -1.5700  0.1944  0.6936
 5871TIP3   OH241807   3.607   2.844  10.558  0.2645  0.3737 -0.1624
 5871TIP3    H141808   3.657   2.778  10.510 -1.3189 -0.7323 -0.3665
 5871TIP3    H241809   3.548   2.881  10.493 -0.4398  0.3626  0.4583
 5872TIP3   OH241810   6.780   6.388  11.933  0.5906  0.5491 -0.0017
 5872TIP3    H141811   6.713   6.441  11.890  0.4274  0.6665  0.3980
 5872TIP3    H241812   6.863   6.423  11.900  0.4624  0.3683 -0.5370
 5873TIP3   OH241813   0.362   1.975  12.762 -0.0747 -0.2999 -0.4187
 5873TIP3    H141814   0.365   1.946  12.671 -0.3224  0.4478 -0.6722
 5873TIP3    H241815   0.404   2.062  12.761 -1.6914  0.5151 -0.1436
 5874TIP3   OH241816   2.808   2.059  12.192  0.1587  0.2217 -0.1351
 5874TIP3    H141817   2.740   2.034  12.129 -2.0327  2.8995  0.9706
 5874TIP3    H241818   2.861   2.125  12.147  1.5170 -1.1492 -0.6487
 5875TIP3   OH241819   0.112   4.497  12.375  0.2406 -0.5962 -0.4678
 5875TIP3    H141820   0.185   4.446  12.340  1.0820  1.0173 -1.1418
 5875TIP3    H241821   0.150   4.550  12.444  0.1543  1.5741 -1.9928
 5876TIP3   OH241822   3.441   6.507  11.142 -0.4058  0.2673 -0.5018
 5876TIP3    H141823   3.374   6.442  11.119  0.8029 -1.1869 -0.0307
 5876TIP3    H241824   3.424   6.527  11.234 -2.3160  2.5731 -1.2355
 5877TIP3   OH241825   2.493   5.377  10.772 -0.0864  0.5297  0.3127
 5877TIP3    H141826   2.422   5.427  10.732 -0.4536  0.2995  0.6774
 5877TIP3    H241827   2.572   5.427  10.750 -0.4406  1.2362  0.6076
 5878TIP3   OH241828   5.880   5.769  12.408 -0.3417  0.2351 -0.6462
 5878TIP3    H141829   5.938   5.693  12.397 -0.5115  0.2795 -2.0358
 5878TIP3    H241830   5.829   5.750  12.487 -0.1033 -0.9106 -0.7584
 5879TIP3   OH241831   0.608   0.190  11.023  0.1589  0.8610 -0.2915
 5879TIP3    H141832   0.534   0.156  10.971 -0.6147  1.0112  0.6788
 5879TIP3    H241833   0.638   0.267  10.975  1.3782 -0.6219 -2.0720
 5880TIP3   OH241834   2.788   7.055  11.874  0.0870  0.3899 -0.0991
 5880TIP3    H141835   2.842   6.990  11.921 -2.1045 -0.6053  1.2129
 5880TIP3    H241836   2.780   7.020  11.786  1.3980  0.4753 -0.2783
 5881TIP3   OH241837   2.974   0.112  12.024  0.2465 -0.2971  0.1817
 5881TIP3    H141838   2.880   0.101  12.038  0.3464 -1.1217  0.2850
 5881TIP3    H241839   2.982   0.193  11.974 -0.4654  0.1579  0.7805
 5882TIP3   OH241840   1.506   3.539  11.936  0.0212  0.1119 -0.4303
 5882TIP3    H141841   1.430   3.580  11.977  0.4447 -0.7718  1.3226
 5882TIP3    H241842   1.582   3.577  11.981  0.7555  1.6661 -2.7518
 5883TIP3   OH241843   5.525   2.109  11.029  0.1140  0.3709  0.1747
 5883TIP3    H141844   5.443   2.060  11.030  0.9181 -1.0511  1.9085
 5883TIP3    H241845   5.579   2.067  11.096  1.9411  1.8266 -0.3008
 5884TIP3   OH241846   6.236   6.594  11.835 -0.6028 -0.2179  0.5010
 5884TIP3    H141847   6.288   6.545  11.899  0.3649  0.7551  0.4841
 5884TIP3    H241848   6.274   6.572  11.750 -0.7813 -0.1734  0.4075
 5885TIP3   OH241849   2.389   3.542  12.513 -0.2044 -0.4052  0.3624
 5885TIP3    H141850   2.362   3.486  12.586  0.3997 -0.2500  0.7137
 5885TIP3    H241851   2.460   3.595  12.549 -0.2883  0.0767 -0.1781
 5886TIP3   OH241852   3.290   3.175  11.981 -0.1436  0.4788 -0.4848
 5886TIP3    H141853   3.331   3.089  11.994 -2.0201 -0.2098  1.5549
 5886TIP3    H241854   3.340   3.234  12.037 -1.7866 -0.3799  2.0926
 5887TIP3   OH241855   1.192   4.066  10.257 -0.0622  0.1733  0.1659
 5887TIP3    H141856   1.256   4.133  10.232 -0.0627  0.8617  1.8322
 5887TIP3    H241857   1.236   4.016  10.326 -1.3949  0.8525  1.5597
 5888TIP3   OH241858   5.969   3.373  10.479 -0.2753 -0.0968 -0.7795
 5888TIP3    H141859   5.898   3.355  10.418 -0.7075 -1.1069 -0.0014
 5888TIP3    H241860   5.934   3.439  10.539  0.5265  1.7596 -2.2346
 5889TIP3   OH241861   3.295   2.744  10.653  0.7926  0.1238  0.3165
 5889TIP3    H141862   3.246   2.764  10.574  1.6753  0.6715 -0.1040
 5889TIP3    H241863   3.321   2.653  10.643  1.5656  0.4137 -0.3954
 5890TIP3   OH241864   0.219   4.434  13.420  0.0774 -0.2564 -0.1423
 5890TIP3    H141865   0.226   4.398  13.509 -0.1266 -0.0895 -0.0589
 5890TIP3    H241866   0.212   4.356  13.364  0.3953 -0.3679 -0.0328
 5891TIP3   OH241867   2.352   7.370  12.772  0.1180 -0.5308 -0.2726
 5891TIP3    H141868   2.424   7.431  12.754 -0.3570 -0.1022 -0.7639
 5891TIP3    H241869   2.321   7.343  12.685 -1.4786  0.6972 -0.1368
 5892TIP3   OH241870   4.346   3.413  11.681  0.2819 -0.8517  0.4563
 5892TIP3    H141871   4.280   3.402  11.750 -2.4405  2.2238 -1.3829
 5892TIP3    H241872   4.394   3.492  11.706 -1.4935  0.9882 -1.4867
 5893TIP3   OH241873   5.675   3.501  13.195  0.3479  0.1512  0.4783
 5893TIP3    H141874   5.736   3.536  13.130  0.0058 -0.8571 -0.4215
 5893TIP3    H241875   5.645   3.419  13.157 -0.4373 -0.0944  1.5913
 5894TIP3   OH241876   7.526   2.186  11.694  0.0629  0.0464  0.0377
 5894TIP3    H141877   7.577   2.239  11.756  1.7122 -0.5441 -0.7682
 5894TIP3    H241878   7.456   2.245  11.665  0.2621  0.8822  1.1685
 5895TIP3   OH241879   0.341   6.733  12.510 -0.2711  0.0050 -0.4821
 5895TIP3    H141880   0.314   6.687  12.590  1.0080  0.2179  0.0909
 5895TIP3    H241881   0.431   6.706  12.495 -0.3007  0.4370 -1.5223
 5896TIP3   OH241882   1.582   3.269  11.260 -0.1728  0.1386  0.3156
 5896TIP3    H141883   1.635   3.190  11.267 -2.8587 -2.0681 -1.9115
 5896TIP3    H241884   1.602   3.304  11.173  0.9843  2.0313  1.2678
 5897TIP3   OH241885   6.717   2.405  12.130 -0.2926 -0.0354 -0.4949
 5897TIP3    H141886   6.630   2.402  12.171  0.2840  1.8213  0.9747
 5897TIP3    H241887   6.712   2.478  12.069  0.3518  0.3882 -0.0566
 5898TIP3   OH241888   3.899   4.090  12.519  0.4401  0.6944 -0.7324
 5898TIP3    H141889   3.884   4.000  12.487  0.0908  0.1023  1.0174
 5898TIP3    H241890   3.815   4.133  12.506 -0.1615  0.0145  0.7112
 5899TIP3   OH241891   3.520   1.734  12.864 -0.3916 -0.1358  1.0190
 5899TIP3    H141892   3.498   1.686  12.944 -0.0892  0.2662  1.3444
 5899TIP3    H241893   3.545   1.666  12.801 -0.9264 -0.4762  1.1679
 5900TIP3   OH241894   2.345   0.711  11.974  0.3913  0.5622  0.5824
 5900TIP3    H141895   2.389   0.731  12.057  1.3715 -0.3705  0.3136
 5900TIP3    H241896   2.415   0.680  11.917 -0.3103  0.9433 -0.5260
 5901TIP3   OH241897   1.230   0.743  11.317  0.4999 -0.0002  0.3291
 5901TIP3    H141898   1.137   0.734  11.296  0.3276  0.1718  0.9982
 5901TIP3    H241899   1.244   0.684  11.391  1.1725 -0.8581 -0.4394
 5902TIP3   OH241900   2.539   1.298  10.647  0.7490 -0.6788 -0.4114
 5902TIP3    H141901   2.487   1.332  10.574  1.0866 -0.4037 -0.5281
 5902TIP3    H241902   2.494   1.329  10.725  0.7304 -0.4405 -0.5134
 5903TIP3   OH241903   1.536   2.232  12.120  0.1769 -0.1131  0.2618
 5903TIP3    H141904   1.572   2.143  12.117  2.4955  0.7629  0.5470
 5903TIP3    H241905   1.469   2.233  12.052  0.5027 -1.9161 -0.1271
 5904TIP3   OH241906   2.965   0.428  12.370 -0.4204  0.4991  0.0864
 5904TIP3    H141907   2.949   0.340  12.335 -2.0808  0.2565  1.3510
 5904TIP3    H241908   3.013   0.413  12.452  0.3929  0.8647 -0.3100
 5905TIP3   OH241909   7.058   2.133  12.344 -0.4796 -0.2547 -0.1487
 5905TIP3    H141910   7.103   2.053  12.372  0.0217  0.4483  1.1010
 5905TIP3    H241911   6.966   2.118  12.367 -0.8260 -1.4038 -2.0670
 5906TIP3   OH241912   1.795   4.362  12.497 -0.1569  0.0754  0.3710
 5906TIP3    H141913   1.733   4.299  12.532 -0.4353  0.2599  0.2189
 5906TIP3    H241914   1.748   4.405  12.426  0.9119 -1.3692 -1.3011
 5907TIP3   OH241915   2.317   0.205  12.364  0.2707 -0.6605 -0.2899
 5907TIP3    H141916   2.324   0.141  12.435 -1.4701  0.1724  0.6878
 5907TIP3    H241917   2.330   0.290  12.406  1.2716 -0.2477 -1.3577
 5908TIP3   OH241918   3.501   3.175  11.007 -0.0698 -0.2285 -0.3645
 5908TIP3    H141919   3.549   3.256  10.994 -1.4524  0.8746  0.9886
 5908TIP3    H241920   3.473   3.178  11.098 -0.8921 -1.8221 -0.5256
 5909TIP3   OH241921   5.262   4.164  10.623 -0.4467  0.5945 -0.3319
 5909TIP3    H141922   5.316   4.228  10.578 -0.0148 -0.1226 -0.8622
 5909TIP3    H241923   5.312   4.142  10.702  0.1729 -0.2315 -0.9306
 5910TIP3   OH241924   1.808   0.737  11.528  0.0679  0.1336 -0.3696
 5910TIP3    H141925   1.898   0.761  11.551  0.1262  1.4817 -1.8293
 5910TIP3    H241926   1.812   0.716  11.434 -1.4366  2.0364 -0.9283
 5911TIP3   OH241927   5.842   1.803  12.052 -0.1135 -0.0963  0.0279
 5911TIP3    H141928   5.778   1.863  12.091 -0.1761 -0.3844  0.3730
 5911TIP3    H241929   5.902   1.783  12.125  0.1860 -0.0743 -0.2111
 5912TIP3   OH241930   4.155   2.094  12.604  0.1628 -0.0815  0.1977
 5912TIP3    H141931   4.237   2.065  12.643  0.3121  1.2245  0.8900
 5912TIP3    H241932   4.135   2.176  12.648 -1.6131 -0.4585  0.1791
 5913TIP3   OH241933   3.687   6.136  11.197  0.6000 -0.5833 -0.3516
 5913TIP3    H141934   3.673   6.222  11.238 -0.6421 -0.7952 -0.3163
 5913TIP3    H241935   3.783   6.130  11.189  0.7599  0.4082  0.4826
 5914TIP3   OH241936   2.690   1.600  12.613  0.3550  0.5609 -0.2911
 5914TIP3    H141937   2.716   1.610  12.704 -1.1544  1.3129  0.1041
 5914TIP3    H241938   2.699   1.506  12.595  0.1330  0.3135  0.8132
 5915TIP3   OH241939   5.796   2.661  11.162  0.2194  0.2439 -0.4470
 5915TIP3    H141940   5.773   2.754  11.151  0.3328  0.2249 -0.8556
 5915TIP3    H241941   5.816   2.631  11.073  0.3479 -0.1297 -0.2911
 5916TIP3   OH241942   2.117   3.005  11.988 -0.3999 -0.0227  0.2376
 5916TIP3    H141943   2.205   3.043  11.989  0.1944 -1.3061 -0.7414
 5916TIP3    H241944   2.124   2.931  11.928 -1.9422 -0.6620  0.8140
 5917TIP3   OH241945   1.782   2.723  11.371 -0.2215 -0.2863 -0.0284
 5917TIP3    H141946   1.775   2.817  11.354 -1.9782 -0.4722 -0.6027
 5917TIP3    H241947   1.798   2.685  11.284  1.3215 -0.4693  0.3208
 5918TIP3   OH241948   0.276   4.731  11.577 -0.1024  0.5013 -0.1038
 5918TIP3    H141949   0.229   4.792  11.635  1.5865  1.4933  0.2946
 5918TIP3    H241950   0.260   4.765  11.489  1.9860  2.5057  0.1879
 5919TIP3   OH241951   3.970   6.104  11.846 -0.7712 -0.6029  0.0442
 5919TIP3    H141952   3.945   6.061  11.927  0.9012  1.5756  1.8434
 5919TIP3    H241953   3.998   6.033  11.789 -2.2702 -2.2209  1.2250
 5920TIP3   OH241954   5.386   4.516  10.784 -0.3335 -0.4938  0.2399
 5920TIP3    H141955   5.464   4.516  10.728 -0.0895  1.2638  0.5256
 5920TIP3    H241956   5.402   4.448  10.849  0.9939 -0.1344  0.3089
 5921TIP3   OH241957   6.965   4.975  12.401  0.0715 -0.0689  0.7967
 5921TIP3    H141958   6.989   4.908  12.465 -1.5717 -1.3483  0.1478
 5921TIP3    H241959   6.870   4.986  12.413  0.0580  1.0171 -0.1730
 5922TIP3   OH241960   7.306   6.842  12.866  0.1068  0.0426  0.1726
 5922TIP3    H141961   7.213   6.823  12.875 -0.0646  0.8184  0.0453
 5922TIP3    H241962   7.346   6.804  12.944 -0.1528 -1.2696 -0.3012
 5923TIP3   OH241963   3.275   5.613  10.850 -0.2802 -0.1667  0.1800
 5923TIP3    H141964   3.307   5.683  10.908 -1.0690 -0.8709  1.5212
 5923TIP3    H241965   3.350   5.553  10.843 -0.2621 -0.2116  0.7062
 5924TIP3   OH241966   1.712   2.153  12.658  0.1742 -0.1858  0.0509
 5924TIP3    H141967   1.632   2.119  12.697  0.1234  0.3702  0.4491
 5924TIP3    H241968   1.742   2.221  12.719  1.5670 -1.1537  0.5099
 5925TIP3   OH241969   4.429   4.599  11.799 -0.8036 -0.8519 -0.5096
 5925TIP3    H141970   4.453   4.532  11.863  0.6477  0.2598  0.1739
 5925TIP3    H241971   4.480   4.578  11.722  0.9472  0.3554  0.2622
 5926TIP3   OH241972   5.422   5.397  11.535  0.7390 -0.0440 -0.3658
 5926TIP3    H141973   5.366   5.447  11.594  1.4995  0.6357 -0.2030
 5926TIP3    H241974   5.510   5.408  11.571  1.0262 -0.8214 -0.8054
 5927TIP3   OH241975   6.724   1.456  11.029  0.0488 -0.4327 -0.9099
 5927TIP3    H141976   6.677   1.425  11.107  3.6405  1.3780  2.2771
 5927TIP3    H241977   6.680   1.538  11.007 -0.5444 -0.5859 -0.3555
 5928TIP3   OH241978   3.270   7.347  11.758 -0.0912  0.7918 -0.2355
 5928TIP3    H141979   3.272   7.442  11.745 -1.0499  0.6711 -1.5038
 5928TIP3    H241980   3.196   7.318  11.705  0.2897 -0.6888  0.0136
 5929TIP3   OH241981   0.699   2.958  11.530  0.0407  0.0555  0.2402
 5929TIP3    H141982   0.727   3.041  11.569  0.8023 -0.3911  0.6797
 5929TIP3    H241983   0.779   2.922  11.491 -0.1708 -0.7024  0.4957
 5930TIP3   OH241984   0.126   1.277  11.981  0.7537  0.2463 -0.1695
 5930TIP3    H141985   0.172   1.354  11.949 -1.7780  1.4976 -1.0712
 5930TIP3    H241986   0.035   1.290  11.955 -0.5444 -1.1733  3.0295
 5931TIP3   OH241987   0.355   1.405  12.592  1.0682 -0.3581  0.2317
 5931TIP3    H141988   0.337   1.460  12.668  1.8430 -1.2079  1.0553
 5931TIP3    H241989   0.447   1.379  12.602  0.7341 -1.7743 -0.1346
 5932TIP3   OH241990   3.755   1.108  11.790 -0.2409  0.0896  0.0921
 5932TIP3    H141991   3.806   1.041  11.744 -1.0962  0.0070 -0.7479
 5932TIP3    H241992   3.807   1.188  11.779 -0.2500 -0.0042 -0.7033
 5933TIP3   OH241993   0.884   6.870  12.987 -0.4240 -0.0337 -0.0313
 5933TIP3    H141994   0.854   6.857  13.078  0.7102  0.2317  0.3972
 5933TIP3    H241995   0.969   6.912  12.996  0.1656 -0.9217 -1.2020
 5934TIP3   OH241996   4.272   2.384  11.057 -0.1100 -1.0446  0.2328
 5934TIP3    H141997   4.273   2.314  11.122 -0.2105 -0.3699  0.9803
 5934TIP3    H241998   4.186   2.378  11.016  0.3477 -2.1631 -0.6383
 5935TIP3   OH241999   7.149   7.367  12.591  0.2897 -0.4294  0.0780
 5935TIP3    H142000   7.148   7.455  12.627 -0.8985 -0.8985  1.2738
 5935TIP3    H242001   7.078   7.367  12.526  2.7923  0.5948 -2.9191
 5936TIP3   OH242002   6.515   0.682  10.554  0.0078  0.0430 -0.1373
 5936TIP3    H142003   6.469   0.754  10.510 -0.3272 -0.1993 -0.1893
 5936TIP3    H242004   6.456   0.657  10.625  0.5919  0.4996  0.5234
 5937TIP3   OH242005   1.605   1.931  11.082 -0.1339 -0.2000  0.0283
 5937TIP3    H142006   1.641   1.891  11.161  0.8561  2.1647  0.8842
 5937TIP3    H242007   1.673   1.992  11.053 -1.1611  0.2112 -1.6996
 5938TIP3   OH242008   4.653   0.070  11.161 -0.1169  0.2569  0.1201
 5938TIP3    H142009   4.710  -0.006  11.164 -0.3369  0.1346  2.4370
 5938TIP3    H242010   4.592   0.051  11.089  0.6753 -1.1087 -0.2187
 5939TIP3   OH242011   2.339   2.721  10.246 -0.0278  0.3907  0.0409
 5939TIP3    H142012   2.353   2.804  10.201  1.0640  0.1358 -0.1224
 5939TIP3    H242013   2.350   2.655  10.178 -0.7452  0.1010  0.2005
 5940TIP3   OH242014   6.239   3.681  12.431  0.5768  0.3777 -0.2383
 5940TIP3    H142015   6.217   3.634  12.350  0.1955  0.2017 -0.0328
 5940TIP3    H242016   6.334   3.696  12.425  0.4262  1.0784 -1.0957
 5941TIP3   OH242017   4.316   5.431  11.160 -0.5556  0.0614 -0.0552
 5941TIP3    H142018   4.224   5.456  11.154 -0.2495  1.0077 -1.1483
 5941TIP3    H242019   4.326   5.395  11.248 -2.4857 -2.2581 -0.6629
 5942TIP3   OH242020   0.460   4.439  12.574  0.0600 -0.2312  0.1277
 5942TIP3    H142021   0.456   4.486  12.490 -0.2235  1.4730  1.0515
 5942TIP3    H242022   0.551   4.411  12.581  0.0895 -0.3842 -0.7437
 5943TIP3   OH242023   6.259   1.866  12.247 -0.3036  0.5731  0.2464
 5943TIP3    H142024   6.265   1.849  12.153 -0.6431  1.2933  0.0826
 5943TIP3    H242025   6.335   1.823  12.285 -2.0423 -2.9099  0.1524
 5944TIP3   OH242026   1.664   6.192  11.153  0.4695 -0.6862  0.9244
 5944TIP3    H142027   1.668   6.134  11.076 -0.1023 -0.3214  0.6133
 5944TIP3    H242028   1.573   6.187  11.182  0.0941  0.9918  0.1539
 5945TIP3   OH242029   7.130   4.946  12.974 -0.0028 -0.0274  0.4845
 5945TIP3    H142030   7.158   5.028  12.935 -0.3450 -0.0427  0.2042
 5945TIP3    H242031   7.168   4.947  13.062  0.5950  0.0962  0.2259
 5946TIP3   OH242032   4.924   0.738  12.085 -0.4333  0.0371 -0.1819
 5946TIP3    H142033   4.870   0.739  12.164 -0.2299  1.1709 -0.0409
 5946TIP3    H242034   4.997   0.796  12.105 -1.2463  1.7327 -1.7753
 5947TIP3   OH242035   7.335   4.166  10.964 -0.5080 -0.4682 -0.5647
 5947TIP3    H142036   7.298   4.220  10.894  0.4967 -0.9162 -1.4548
 5947TIP3    H242037   7.348   4.080  10.925 -0.9985 -1.0545  0.5137
 5948TIP3   OH242038   6.686   5.627  12.783  0.5403  0.5624  0.4237
 5948TIP3    H142039   6.622   5.560  12.810  0.0815  1.4946  1.7502
 5948TIP3    H242040   6.637   5.683  12.723  0.1427  1.1452  1.2652
 5949TIP3   OH242041   5.194   3.414  12.809 -0.2126  0.0306 -0.0045
 5949TIP3    H142042   5.286   3.435  12.826  0.0712 -1.3345  0.3276
 5949TIP3    H242043   5.151   3.424  12.894  0.1738 -1.8115  0.4542
 5950TIP3   OH242044   6.424   3.039  12.581  0.1724 -0.6297 -0.7661
 5950TIP3    H142045   6.329   3.040  12.572 -0.1825 -4.3632  0.9070
 5950TIP3    H242046   6.440   3.060  12.673  1.1816  1.4261 -1.3358
 5951TIP3   OH242047   1.059   0.952  10.648  0.2022  0.1170 -0.2927
 5951TIP3    H142048   1.130   0.985  10.593 -0.7759 -0.3682 -1.9319
 5951TIP3    H242049   1.099   0.938  10.734  1.9360  0.3719 -1.0180
 5952TIP3   OH242050   6.997   6.780  10.711 -0.2517 -0.3983 -0.0727
 5952TIP3    H142051   7.018   6.688  10.694 -2.5902 -0.9137 -0.5482
 5952TIP3    H242052   6.915   6.778  10.760 -0.9444  1.4320 -1.0401
 5953TIP3   OH242053   3.680   4.744  10.631 -0.3701  0.0789  0.8148
 5953TIP3    H142054   3.648   4.653  10.625 -0.6100  0.0404  2.4269
 5953TIP3    H242055   3.637   4.788  10.557 -1.0036 -0.9042  0.5659
 5954TIP3   OH242056   3.478   4.036  12.361  0.8232 -0.5908  0.2842
 5954TIP3    H142057   3.536   3.980  12.309  1.2598  0.7591 -0.7410
 5954TIP3    H242058   3.533   4.110  12.386 -0.3408  0.4950 -0.3089
 5955TIP3   OH242059   0.442   2.726  12.143  0.2533  0.0550 -0.1285
 5955TIP3    H142060   0.488   2.670  12.081  0.1874 -1.3070  0.9989
 5955TIP3    H242061   0.408   2.798  12.090  0.7887 -0.6980 -1.5396
 5956TIP3   OH242062   3.138   1.181  17.914 -0.5378  1.3755 -0.1262
 5956TIP3    H142063   3.139   1.276  17.920  1.1593  1.3088  1.6995
 5956TIP3    H242064   3.138   1.151  18.005 -0.5692 -0.3691 -0.6594
 5957TIP3   OH242065   6.765   1.709  12.789  0.1994 -0.2564  0.1569
 5957TIP3    H142066   6.787   1.642  12.724 -1.0302 -1.0270  0.5022
 5957TIP3    H242067   6.693   1.758  12.750  1.6913  1.5512 -0.5053
 5958TIP3   OH242068   3.949   2.428  12.287  0.0814 -0.1562  0.0703
 5958TIP3    H142069   3.908   2.469  12.210  0.6577  1.8925  0.8014
 5958TIP3    H242070   4.036   2.403  12.256 -0.6620 -1.9762 -0.7005
 5959TIP3   OH242071   3.422   5.068  10.831  1.0377 -0.0937 -0.4702
 5959TIP3    H142072   3.461   4.981  10.825  2.4086  0.3283  1.4414
 5959TIP3    H242073   3.411   5.083  10.925 -2.4557  0.4448 -0.8330
 5960TIP3   OH242074   5.848   0.854  10.788  0.0833  0.3410  0.0680
 5960TIP3    H142075   5.939   0.844  10.761  0.7445  1.4910  1.7098
 5960TIP3    H242076   5.803   0.887  10.710  0.7730 -1.3900 -1.1317
 5961TIP3   OH242077   5.100   5.284  10.942  0.0643 -0.1384  0.4216
 5961TIP3    H142078   5.056   5.345  10.883 -1.3387 -2.5473 -1.1927
 5961TIP3    H242079   5.179   5.258  10.895  0.1969 -0.2302  0.6936
 5962TIP3   OH242080   2.644   2.175  11.472 -0.3657  0.1521  0.3062
 5962TIP3    H142081   2.731   2.166  11.433 -0.8682  0.3766 -0.9130
 5962TIP3    H242082   2.615   2.085  11.489  0.3782  0.0932  1.4129
 5963TIP3   OH242083   2.497   4.214  11.392 -0.6703  0.7902 -0.2658
 5963TIP3    H142084   2.534   4.260  11.468 -0.1388  1.8478 -1.1386
 5963TIP3    H242085   2.449   4.281  11.344 -3.5085 -0.4582  0.6122
 5964TIP3   OH242086   6.743   5.357  12.481  0.1804 -0.1496  0.1030
 5964TIP3    H142087   6.671   5.301  12.509  0.4039 -0.7046 -0.4014
 5964TIP3    H242088   6.714   5.393  12.397  1.3884 -2.2257 -1.3188
 5965TIP3   OH242089   4.776   6.152  10.868 -0.2211  0.1819  0.1786
 5965TIP3    H142090   4.836   6.226  10.868  0.2385 -0.1712  0.9525
 5965TIP3    H242091   4.817   6.088  10.927 -0.9803 -0.3789  0.1173
 5966TIP3   OH242092   2.223   5.888  12.468  0.6017 -0.0876 -0.1564
 5966TIP3    H142093   2.172   5.899  12.388  0.5173  2.7202  0.1806
 5966TIP3    H242094   2.233   5.794  12.477 -3.0848 -0.7442 -1.1563
 5967TIP3   OH242095   1.169   0.285  11.159 -0.3443 -0.0490 -0.3024
 5967TIP3    H142096   1.136   0.208  11.114  1.1207  0.0168 -1.5495
 5967TIP3    H242097   1.128   0.359  11.115  0.0173 -0.0357 -0.6184
 5968TIP3   OH242098   2.585   4.778  11.030  0.1643  0.2498  0.1022
 5968TIP3    H142099   2.527   4.769  10.954  0.0704  0.2531  0.1724
 5968TIP3    H242100   2.528   4.815  11.098 -0.3493 -1.7428  0.8356
 5969TIP3   OH242101   5.481   6.993  11.584 -0.3614  0.1709 -0.1716
 5969TIP3    H142102   5.493   7.013  11.677  0.8539 -1.9116  0.1983
 5969TIP3    H242103   5.526   7.063  11.538  1.8319 -0.4040  0.9547
 5970TIP3   OH242104   3.582   6.692  11.941  0.0599  0.8603 -0.4505
 5970TIP3    H142105   3.656   6.661  11.994 -0.0338  0.6141 -0.4637
 5970TIP3    H242106   3.561   6.619  11.883 -1.8975 -0.0904  1.3283
 5971TIP3   OH242107   0.175   2.928  11.503  0.1807  0.4012  0.2290
 5971TIP3    H142108   0.211   3.001  11.553  1.4541 -0.4498  0.6159
 5971TIP3    H242109   0.234   2.855  11.523 -0.2507 -0.3724 -1.2305
 5972TIP3   OH242110   3.392   2.598  12.600 -0.0227 -0.2796  0.3430
 5972TIP3    H142111   3.448   2.674  12.620  2.8566 -2.0967 -0.1541
 5972TIP3    H242112   3.359   2.570  12.685  0.2562  0.5460  0.7371
 5973TIP3   OH242113   5.731   3.376  11.986  0.5188 -0.4105  0.3324
 5973TIP3    H142114   5.790   3.439  11.945 -0.7514  1.2477  0.9667
 5973TIP3    H242115   5.691   3.329  11.912 -1.2250  2.0569 -0.4207
 5974TIP3   OH242116   3.440   3.304  11.697  0.0249  0.5222  0.4115
 5974TIP3    H142117   3.513   3.314  11.636 -0.9321  1.1093 -0.6757
 5974TIP3    H242118   3.426   3.210  11.703  0.3483  0.4438 -0.0130
 5975TIP3   OH242119   6.271   3.318  12.172 -0.2784  0.2407  0.0716
 5975TIP3    H142120   6.230   3.402  12.195 -1.3679 -0.5394  1.0719
 5975TIP3    H242121   6.246   3.259  12.243  1.8681 -0.5230  0.2659
 5976TIP3   OH242122   7.529   2.798  11.988  0.2410 -0.3501 -1.0810
 5976TIP3    H142123   7.471   2.781  12.062  2.8858 -1.2432  0.9551
 5976TIP3    H242124   7.530   2.893  11.978 -1.2645 -0.3062 -0.9651
 5977TIP3   OH242125   3.940   5.288  11.912 -0.1219 -0.3208 -0.4601
 5977TIP3    H142126   3.900   5.364  11.869  0.0755 -0.2312 -0.4901
 5977TIP3    H242127   4.027   5.282  11.872  1.1677  1.4526  1.8541
 5978TIP3   OH242128   6.422   1.235  10.782  0.1785  0.3634  0.6459
 5978TIP3    H142129   6.433   1.280  10.698  0.6316  0.0347  0.5201
 5978TIP3    H242130   6.512   1.211  10.807 -0.0860 -0.8110  0.5154
 5979TIP3   OH242131   3.300   4.530  11.437  0.1613 -0.7965 -0.0334
 5979TIP3    H142132   3.228   4.565  11.384  0.8622  1.9084  0.6559
 5979TIP3    H242133   3.368   4.510  11.373  0.6225  1.4848 -0.3710
 5980TIP3   OH242134   1.879   7.138  11.669 -0.1011  0.1593  0.0473
 5980TIP3    H142135   1.787   7.120  11.687  0.1593 -1.2526  0.0851
 5980TIP3    H242136   1.912   7.058  11.627  1.3585  0.2033  1.0105
 5981TIP3   OH242137   4.592   7.532  10.920  0.1235 -0.7102  0.5058
 5981TIP3    H142138   4.566   7.441  10.910 -0.9500 -0.3774  0.1949
 5981TIP3    H242139   4.522   7.582  10.878 -0.7875  0.3921  3.1537
 5982TIP3   OH242140   6.684   2.151  11.124  0.0351  0.0276 -0.2866
 5982TIP3    H142141   6.704   2.059  11.144 -1.7917  0.1469  2.9252
 5982TIP3    H242142   6.616   2.146  11.057  1.1257 -0.8668 -1.3612
 5983TIP3   OH242143   6.118   4.576  11.019  0.2502  0.5778 -0.1402
 5983TIP3    H142144   6.201   4.587  10.973 -0.6741 -0.1632 -2.0842
 5983TIP3    H242145   6.063   4.528  10.958 -2.0732  2.2042  0.5537
 5984TIP3   OH242146   4.021   1.883  12.119  1.0170 -0.3703 -1.0163
 5984TIP3    H142147   3.947   1.909  12.064  0.3981  0.7073  0.2602
 5984TIP3    H242148   4.065   1.966  12.140 -1.1341 -0.0921  3.3762
 5985TIP3   OH242149   4.326   5.629  11.951  0.4672  0.3441  0.3941
 5985TIP3    H142150   4.365   5.701  11.902  0.3887  0.2862  0.2462
 5985TIP3    H242151   4.265   5.588  11.890 -1.9163  2.1236  1.4303
 5986TIP3   OH242152   0.795   4.118  11.066  0.3711  0.7807 -0.0828
 5986TIP3    H142153   0.879   4.119  11.112  0.1364 -0.4831  0.4098
 5986TIP3    H242154   0.753   4.201  11.091  1.6503  1.6574 -0.7241
 5987TIP3   OH242155   5.906   1.160  12.480 -0.6683  0.0511  0.2141
 5987TIP3    H142156   5.836   1.096  12.486 -1.0236  0.4834  0.8094
 5987TIP3    H242157   5.982   1.111  12.448 -1.4012 -0.2894 -1.0400
 5988TIP3   OH242158   4.703   2.355  11.756  0.1787  0.7955  0.1808
 5988TIP3    H142159   4.621   2.345  11.804  0.9054  1.9063  1.7171
 5988TIP3    H242160   4.676   2.372  11.665 -1.2683  1.0203  0.6322
 5989TIP3   OH242161   4.297   0.528  12.557  0.0890 -0.0509  0.0149
 5989TIP3    H142162   4.281   0.469  12.631  0.3711 -1.1641 -0.7803
 5989TIP3    H242163   4.210   0.544  12.520  0.0884 -0.7293 -0.3066
 5990TIP3   OH242164   6.751   2.840  12.563  0.0530 -0.0525  0.0141
 5990TIP3    H142165   6.756   2.750  12.594 -2.1155  0.4683  2.1185
 5990TIP3    H242166   6.664   2.847  12.523  0.6883  0.8038 -1.2906
 5991TIP3   OH242167   3.926   6.573  11.000 -0.2386  0.5221 -0.4479
 5991TIP3    H142168   4.008   6.525  10.993 -0.7263 -0.2795 -0.7247
 5991TIP3    H242169   3.935   6.647  10.940 -0.8241 -1.1637 -2.7345
 5992TIP3   OH242170   7.372   7.354  12.410 -0.2782 -0.4032 -0.5879
 5992TIP3    H142171   7.310   7.398  12.468  1.0154  0.6576  0.0551
 5992TIP3    H242172   7.410   7.285  12.464 -0.9115 -1.0763 -0.9915
 5993TIP3   OH242173   5.038   4.984  11.017 -0.7079 -0.4238 -0.5498
 5993TIP3    H142174   5.006   5.071  11.042  0.1085 -0.3891  0.4353
 5993TIP3    H242175   4.995   4.966  10.933 -0.9569  0.8899 -0.7246
 5994TIP3   OH242176   0.572   6.160  13.336  0.3532  0.3807  0.3721
 5994TIP3    H142177   0.571   6.064  13.343 -0.8894  0.3910  0.7047
 5994TIP3    H242178   0.613   6.178  13.252 -0.6134 -0.5152 -0.3092
 5995TIP3   OH242179   4.891   5.749  10.839 -0.0243  0.4702 -0.1374
 5995TIP3    H142180   4.796   5.751  10.830 -0.0149  1.0755 -0.1174
 5995TIP3    H242181   4.910   5.810  10.910  0.1090 -2.3711  2.5164
 5996TIP3   OH242182   4.806   3.483  13.116  0.2038 -0.0752  0.2907
 5996TIP3    H142183   4.772   3.531  13.192  0.7153 -0.7050  0.9327
 5996TIP3    H242184   4.763   3.398  13.120  1.0585 -0.5095  0.5159
 5997TIP3   OH242185   6.253   0.491  12.100  0.3679  0.0947 -0.2192
 5997TIP3    H142186   6.300   0.571  12.074 -0.2885  0.3479 -0.6455
 5997TIP3    H242187   6.318   0.422  12.092  1.2867  0.7309  1.2519
 5998TIP3   OH242188   6.670   3.160  11.701 -0.0549 -0.3155 -0.3779
 5998TIP3    H142189   6.743   3.162  11.640 -0.5387 -1.6560 -1.0318
 5998TIP3    H242190   6.596   3.128  11.650 -0.7214 -0.5004  0.6567
 5999TIP3   OH242191   5.939   4.950  11.645 -0.0923  0.9188 -0.0604
 5999TIP3    H142192   5.921   4.927  11.554  1.2463  2.2453 -0.6839
 5999TIP3    H242193   6.019   5.002  11.642  1.3801 -1.0272  2.1256
 6000TIP3   OH242194   7.478   5.957  11.877  0.2577  0.1205  0.8443
 6000TIP3    H142195   7.565   5.995  11.892  1.3068  0.1264 -3.7582
 6000TIP3    H242196   7.428   6.028  11.836  0.0343 -1.3853 -1.6691
 6001TIP3   OH242197   0.999   5.169  11.429 -0.0475 -0.3484 -0.5598
 6001TIP3    H142198   0.976   5.261  11.426 -1.5668 -0.5878  1.4145
 6001TIP3    H242199   0.921   5.124  11.396 -0.2229 -0.9662  0.6228
 6002TIP3   OH242200   4.160   5.267  11.762  0.1364 -0.3396 -0.2428
 6002TIP3    H142201   4.200   5.192  11.806  3.7505  0.6634 -1.4164
 6002TIP3    H242202   4.135   5.233  11.675  2.2785 -0.1730 -0.9812
 6003TIP3   OH242203   5.524   7.575  11.943  0.5671 -0.0055 -0.4233
 6003TIP3    H142204   5.611   7.543  11.917  1.1120  0.9699  0.1282
 6003TIP3    H242205   5.531   7.670  11.934 -1.0037  0.0061 -2.0334
 6004TIP3   OH242206   3.780   2.252  11.809  0.0503  0.0677  0.6593
 6004TIP3    H142207   3.826   2.185  11.760  0.9490  2.2889 -1.7535
 6004TIP3    H242208   3.694   2.257  11.768 -0.0581  0.2769  0.9112
 6005TIP3   OH242209   4.281   2.541  12.929  0.5366 -0.7010  0.5543
 6005TIP3    H142210   4.329   2.582  13.001  0.4109 -1.0595  0.8455
 6005TIP3    H242211   4.189   2.550  12.953  0.4925 -0.7960  0.4231
 6006TIP3   OH242212   3.168   3.044  11.233 -0.5644  0.2424 -1.0411
 6006TIP3    H142213   3.198   2.994  11.156 -1.7730 -0.7977 -0.8709
 6006TIP3    H242214   3.245   3.049  11.289 -0.4177 -1.5618 -1.0209
 6007TIP3   OH242215   2.381   4.720  11.472 -0.7234 -0.3626  0.4331
 6007TIP3    H142216   2.308   4.713  11.534 -1.2620 -0.6289 -0.2214
 6007TIP3    H242217   2.457   4.739  11.527 -1.1775 -0.6639  1.1818
 6008TIP3   OH242218   0.743   3.249  11.664  0.4772  0.1674  0.0390
 6008TIP3    H142219   0.810   3.270  11.730  1.2674 -0.5762 -0.5106
 6008TIP3    H242220   0.670   3.212  11.715  0.8328  0.1601  0.5519
 6009TIP3   OH242221   7.255   0.522  10.593  0.3706 -0.2270 -0.4397
 6009TIP3    H142222   7.288   0.524  10.683 -1.1221 -0.8161  0.1668
 6009TIP3    H242223   7.331   0.543  10.539  1.0016  1.5270  1.0177
 6010TIP3   OH242224   1.295   3.571  10.666  0.3305  0.1272  0.1972
 6010TIP3    H142225   1.254   3.657  10.677  0.5749  0.1040  1.4726
 6010TIP3    H242226   1.309   3.540  10.755 -0.7469 -1.7236 -0.2188
 6011TIP3   OH242227   5.732   5.725  11.969  0.0996  0.2655  0.2429
 6011TIP3    H142228   5.783   5.775  11.905 -0.3388  0.5913  0.1505
 6011TIP3    H242229   5.765   5.635  11.960 -1.9635 -0.3379 -2.5807
 6012TIP3   OH242230   0.732   4.211  11.778  0.6933  0.1617 -0.2252
 6012TIP3    H142231   0.748   4.171  11.693  0.7617 -1.0832  0.3409
 6012TIP3    H242232   0.802   4.275  11.788  1.2403 -0.3400 -0.7184
 6013TIP3   OH242233   3.309   4.146  11.511  0.5514 -0.5613 -0.3744
 6013TIP3    H142234   3.225   4.161  11.467  0.1889 -0.9594  0.1738
 6013TIP3    H242235   3.363   4.220  11.484  1.0684 -1.8194 -3.2013
 6014TIP3   OH242236   2.296   2.168  10.513  0.1444 -0.3041  0.0780
 6014TIP3    H142237   2.379   2.141  10.473  0.3299  3.4646 -2.6967
 6014TIP3    H242238   2.320   2.197  10.601  1.0929 -2.2374  0.5188
 6015TIP3   OH242239   6.600   3.146  10.671  0.9337 -0.5052 -0.1656
 6015TIP3    H142240   6.567   3.234  10.692 -0.8943 -1.2958  0.5040
 6015TIP3    H242241   6.543   3.087  10.721 -0.1590 -2.2647 -3.2414
 6016TIP3   OH242242   2.702   4.041  11.034  1.1179  0.1366 -0.1758
 6016TIP3    H142243   2.791   4.065  11.062  0.4233  0.6171  1.8141
 6016TIP3    H242244   2.664   4.001  11.112  0.5566 -2.9355 -1.8694
 6017TIP3   OH242245   2.718   1.638  12.889  0.2555 -0.0563 -0.2341
 6017TIP3    H142246   2.717   1.544  12.903 -0.2217  0.1103  1.0433
 6017TIP3    H242247   2.629   1.667  12.909  0.0364  0.5279 -1.8554
 6018TIP3   OH242248   6.238   6.482  10.957 -0.1962  0.0658  0.2399
 6018TIP3    H142249   6.223   6.565  10.912  0.7458 -0.2374 -0.6885
 6018TIP3    H242250   6.211   6.498  11.048 -2.2586  0.6533 -0.4429
 6019TIP3   OH242251   7.095   1.529  12.835  0.6280  0.3033  0.4131
 6019TIP3    H142252   7.186   1.499  12.826  0.6144 -0.0427  1.2847
 6019TIP3    H242253   7.048   1.452  12.867 -0.2587  0.0966 -1.3016
 6020TIP3   OH242254   7.465   6.074  12.970 -0.1859  0.2833  0.5319
 6020TIP3    H142255   7.371   6.079  12.955 -0.0845  0.9632  0.0922
 6020TIP3    H242256   7.480   5.983  12.995 -0.7738 -0.1831 -0.7307
 6021TIP3   OH242257   0.470   4.107  10.373  0.3384 -0.0012 -0.9755
 6021TIP3    H142258   0.518   4.067  10.300  1.2361  1.8015 -1.4497
 6021TIP3    H242259   0.536   4.121  10.441 -0.1750 -0.3105 -0.4099
 6022TIP3   OH242260   6.631   6.732  11.854  0.4195 -0.4307 -0.1570
 6022TIP3    H142261   6.624   6.826  11.869 -0.8306 -0.2467 -1.6108
 6022TIP3    H242262   6.544   6.706  11.822  1.0787 -1.8472 -0.9061
 6023TIP3   OH242263   1.693   7.260  10.773  0.6078  0.6724 -0.3168
 6023TIP3    H142264   1.749   7.244  10.849 -0.2545 -0.5959  0.0981
 6023TIP3    H242265   1.606   7.277  10.811  0.3137  0.6986 -0.9937
 6024TIP3   OH242266   3.134   2.581  10.169 -0.7145 -0.5804 -0.1699
 6024TIP3    H142267   3.081   2.518  10.217 -1.1432 -0.0078  0.1296
 6024TIP3    H242268   3.109   2.568  10.077 -1.0177 -0.6429 -0.0799
 6025TIP3   OH242269   5.680   3.140  12.472 -0.2674 -0.2453 -0.3539
 6025TIP3    H142270   5.624   3.207  12.511 -0.6244  1.4658 -3.5252
 6025TIP3    H242271   5.750   3.127  12.537 -1.2149  1.7714  1.1780
 6026TIP3   OH242272   3.812   1.874  11.342  0.6077 -0.2435 -0.1262
 6026TIP3    H142273   3.724   1.860  11.308  0.4249 -0.3087  0.3682
 6026TIP3    H242274   3.802   1.870  11.437  0.7432  2.0301  0.0264
 6027TIP3   OH242275   1.696   2.749  11.972  0.4873  0.1503  0.8436
 6027TIP3    H142276   1.625   2.699  12.014  0.8522 -0.7026  0.4548
 6027TIP3    H242277   1.677   2.840  11.995  0.5842 -0.2614  2.7422
 6028TIP3   OH242278   1.884   2.702  10.350 -0.2600  0.3121 -0.0914
 6028TIP3    H142279   1.867   2.795  10.334 -0.1318  0.1148 -1.5724
 6028TIP3    H242280   1.979   2.695  10.357 -0.0748  0.0351 -2.1932
 6029TIP3   OH242281   5.960   2.752  10.380 -0.3066 -0.1676 -0.4671
 6029TIP3    H142282   5.982   2.806  10.304  1.0852 -1.1213 -0.7797
 6029TIP3    H242283   5.907   2.809  10.435  0.7550  1.3877 -0.9849
 6030TIP3   OH242284   5.515   1.452  11.124 -0.4899 -0.1294  0.2333
 6030TIP3    H142285   5.555   1.388  11.183  0.3233  1.6475  1.7252
 6030TIP3    H242286   5.421   1.440  11.136 -0.3418 -0.3852  1.2813
 6031TIP3   OH242287   1.459   0.528  11.807  0.5193  0.0791 -0.2783
 6031TIP3    H142288   1.485   0.473  11.881  1.6547  1.3403  0.2908
 6031TIP3    H242289   1.426   0.465  11.742  0.0094 -1.0921  1.0645
 6032TIP3   OH242290   1.240   4.367  12.748 -0.1068  0.2913 -0.2436
 6032TIP3    H142291   1.305   4.341  12.683 -0.7973 -1.2638 -0.3408
 6032TIP3    H242292   1.203   4.448  12.713  1.4557  0.9994 -0.3870
 6033TIP3   OH242293   4.527   6.712  11.999  0.1747 -0.3020  0.2591
 6033TIP3    H142294   4.446   6.664  12.016 -1.4277  2.1094 -0.0628
 6033TIP3    H242295   4.536   6.711  11.904  0.8211 -1.0207  0.3271
 6034TIP3   OH242296   2.413   2.772  11.851  0.4972 -0.1732  0.0205
 6034TIP3    H142297   2.319   2.770  11.832  0.8887  0.7555 -2.4099
 6034TIP3    H242298   2.419   2.745  11.943 -2.4910  3.5969  1.6284
 6035TIP3   OH242299   1.447   1.461  11.589  0.2724 -0.7177 -0.5042
 6035TIP3    H142300   1.368   1.433  11.634  0.4125 -2.1979 -1.1507
 6035TIP3    H242301   1.416   1.513  11.515 -0.0924 -1.1125 -0.6285
 6036TIP3   OH242302   2.532   5.165  12.285 -0.4533  0.5721  0.3532
 6036TIP3    H142303   2.581   5.084  12.294  0.2346  0.7956 -1.1115
 6036TIP3    H242304   2.596   5.228  12.251 -1.5664  1.0553 -0.9318
 6037TIP3   OH242305   3.355   2.724  11.746  0.6018 -0.2344 -0.0411
 6037TIP3    H142306   3.420   2.698  11.681  1.2366  0.2874  0.3740
 6037TIP3    H242307   3.400   2.716  11.830  0.0094 -0.2383  0.2823
 6038TIP3   OH242308   6.572   5.152  12.219  0.0781  0.5041 -0.0617
 6038TIP3    H142309   6.611   5.124  12.137 -0.1332  0.9620 -0.3182
 6038TIP3    H242310   6.490   5.194  12.194  0.4115  1.4066  0.3070
 6039TIP3   OH242311   0.492   6.934  11.397 -0.4381  0.6637  0.3547
 6039TIP3    H142312   0.511   7.016  11.350 -1.4732  0.8681  0.2751
 6039TIP3    H242313   0.574   6.914  11.443  1.0018 -0.1100 -2.3193
 6040TIP3   OH242314   4.376   3.469  10.693  0.7206  0.2100 -0.2826
 6040TIP3    H142315   4.363   3.450  10.786  0.8012  0.2219 -0.2688
 6040TIP3    H242316   4.314   3.411  10.648  1.5771 -0.7357 -0.2919
 6041TIP3   OH242317   3.048   1.486  12.355  0.2070  0.5126 -0.0914
 6041TIP3    H142318   2.966   1.441  12.334  0.3852  0.1132  0.0595
 6041TIP3    H242319   3.114   1.443  12.300 -0.0140  2.1842 -1.7567
 6042TIP3   OH242320   2.709   4.545  11.283  0.1640  0.3216 -0.3678
 6042TIP3    H142321   2.755   4.489  11.220  1.2667 -0.3615  0.9702
 6042TIP3    H242322   2.622   4.506  11.291  0.5852 -0.6162 -0.2215
 6043TIP3   OH242323   0.472   3.088  13.125 -0.0547  0.2429  0.4382
 6043TIP3    H142324   0.504   3.017  13.071 -2.1590 -0.2881 -0.2102
 6043TIP3    H242325   0.381   3.101  13.097 -1.2188  0.0708  3.6517
 6044TIP3   OH242326   5.875   7.247  10.959  0.0931 -0.2672  0.5566
 6044TIP3    H142327   5.871   7.167  11.011  0.0222  0.2428  1.3553
 6044TIP3    H242328   5.965   7.278  10.968 -0.2400  0.4914  1.4215
 6045TIP3   OH242329   4.227   4.787  11.122  0.0523 -0.3098  0.0518
 6045TIP3    H142330   4.322   4.782  11.116  0.1988  0.5788  1.3074
 6045TIP3    H242331   4.201   4.843  11.049  0.9119  2.8340  1.9621
 6046TIP3   OH242332   1.784   1.087  12.180 -0.5745  0.0292  0.1627
 6046TIP3    H142333   1.702   1.089  12.130 -0.5206  0.4451  0.0899
 6046TIP3    H242334   1.758   1.103  12.270 -0.5670  0.2176  0.1311
 6047TIP3   OH242335   6.462   3.929  13.944  0.0110  0.0775  0.1078
 6047TIP3    H142336   6.413   3.855  13.909  0.1479  0.1763 -0.2980
 6047TIP3    H242337   6.537   3.889  13.988  0.1950 -0.0207 -0.2875
 6048TIP3   OH242338   0.632   0.413  12.070 -0.0836 -0.1436 -0.3021
 6048TIP3    H142339   0.717   0.454  12.082  0.0608 -0.3180 -0.7381
 6048TIP3    H242340   0.572   0.487  12.055  0.2771 -0.1056 -1.6988
 6049TIP3   OH242341   1.916   6.858  11.619 -0.2930  0.2781 -0.0693
 6049TIP3    H142342   1.913   6.787  11.683  0.2957  0.2013 -0.1212
 6049TIP3    H242343   1.899   6.815  11.535  0.4451  0.1318 -0.1490
 6050TIP3   OH242344   4.557   5.345  11.083 -0.1069  0.7462  0.1652
 6050TIP3    H142345   4.482   5.404  11.089 -0.1116  0.8887 -1.0395
 6050TIP3    H242346   4.560   5.301  11.168 -1.4379  0.8775  0.3031
 6051TIP3   OH242347   2.558   0.030  11.468  0.0984 -0.3911  0.0008
 6051TIP3    H142348   2.554   0.101  11.404  0.0297  1.0004  1.4970
 6051TIP3    H242349   2.646  -0.006  11.457  0.4755  0.5423 -0.1591
 6052TIP3   OH242350   5.194   6.122  12.930  0.2990  0.0728  0.3583
 6052TIP3    H142351   5.115   6.170  12.954 -0.3643 -0.1382 -1.2665
 6052TIP3    H242352   5.237   6.178  12.865  1.0935 -0.1689  0.6643
 6053TIP3   OH242353   7.204   2.392  13.260  0.7445  0.4875  0.2113
 6053TIP3    H142354   7.244   2.305  13.260  0.5450  0.3909  0.7312
 6053TIP3    H242355   7.135   2.387  13.326  1.2096  1.2580  0.7787
 6054TIP3   OH242356   2.307   3.762  12.084  0.2179  1.0490  0.1544
 6054TIP3    H142357   2.312   3.695  12.016  2.0914  1.9767 -0.6668
 6054TIP3    H242358   2.392   3.759  12.128 -0.4981  1.3433  1.6293
 6055TIP3   OH242359   5.357   1.350  11.554  0.5936  0.6178  0.8513
 6055TIP3    H142360   5.342   1.374  11.645 -0.7376  1.7295  0.3716
 6055TIP3    H242361   5.270   1.335  11.518  1.0564  0.8637 -0.4105
 6056TIP3   OH242362   6.883   2.750  12.114 -0.7571 -0.0214  0.1850
 6056TIP3    H142363   6.829   2.736  12.037 -0.2683 -0.8520 -0.0178
 6056TIP3    H242364   6.821   2.776  12.182 -1.3318 -0.3436 -0.2037
 6057TIP3   OH242365   4.451   1.405  11.350  0.0844 -0.4158 -0.0284
 6057TIP3    H142366   4.404   1.325  11.326  1.6461 -2.8072  3.8043
 6057TIP3    H242367   4.536   1.397  11.307  0.4694 -1.2661  0.8326
 6058TIP3   OH242368   5.842   2.766  13.464  0.5412  0.1330 -0.9407
 6058TIP3    H142369   5.911   2.790  13.525 -0.1861  1.0528 -0.4518
 6058TIP3    H242370   5.791   2.846  13.452 -1.4066 -0.8863 -0.0071
 6059TIP3   OH242371   4.911   7.435  12.460  0.1056 -0.0333 -0.3505
 6059TIP3    H142372   4.979   7.377  12.425  2.8717  1.6096  1.7998
 6059TIP3    H242373   4.877   7.389  12.537  0.5763  0.1459 -0.0281
 6060TIP3   OH242374   1.010   1.979  13.062  0.8333  0.5342  0.1812
 6060TIP3    H142375   0.993   1.917  13.133 -0.0638 -0.8735 -1.1825
 6060TIP3    H242376   0.926   2.021  13.045  0.8006  0.1818 -0.6124
 6061TIP3   OH242377   5.168   3.807  11.638 -0.1462 -0.0074 -0.4762
 6061TIP3    H142378   5.113   3.730  11.656  2.0812 -1.6568 -0.2451
 6061TIP3    H242379   5.181   3.848  11.723  1.2877 -1.3408  0.0080
 6062TIP3   OH242380   4.913   6.602  11.907 -0.6082 -0.3006 -0.4106
 6062TIP3    H142381   4.902   6.560  11.992 -1.1318 -1.2258 -0.9165
 6062TIP3    H242382   4.987   6.661  11.918  1.2949 -2.6144 -0.1421
 6063TIP3   OH242383   3.044   0.856  11.514 -0.3736  0.1455 -0.2397
 6063TIP3    H142384   2.973   0.848  11.578 -1.0219  0.1631 -0.9493
 6063TIP3    H242385   3.119   0.885  11.566 -0.5105 -1.1778  0.7499
 6064TIP3   OH242386   3.285   3.266  12.426  0.3824 -0.7077 -0.0746
 6064TIP3    H142387   3.286   3.203  12.498  1.7506  0.1557  0.6960
 6064TIP3    H242388   3.242   3.343  12.462 -1.7546 -1.3058 -1.1713
 6065TIP3   OH242389   0.651   4.414  12.339  0.0481 -0.4905 -0.0133
 6065TIP3    H142390   0.679   4.360  12.412  2.2358 -3.0574 -2.5083
 6065TIP3    H242391   0.659   4.357  12.262 -2.1354  1.9874 -2.3110
 6066TIP3   OH242392   5.367   0.568  10.758 -0.1515  0.9546 -0.1151
 6066TIP3    H142393   5.296   0.511  10.730  0.4876  0.9835 -1.9311
 6066TIP3    H242394   5.402   0.526  10.836  1.0491 -1.8612 -2.0099
 6067TIP3   OH242395   2.450   3.401  10.042  0.1526  0.1348 -0.0134
 6067TIP3    H142396   2.376   3.455  10.070  0.0541  0.4531 -0.8611
 6067TIP3    H242397   2.477   3.355  10.121 -0.8390  0.1442  0.3461
 6068TIP3   OH242398   7.070   3.161  11.296 -0.4223 -0.0915  0.3120
 6068TIP3    H142399   7.058   3.090  11.233 -0.8692  1.1377 -1.0384
 6068TIP3    H242400   7.026   3.237  11.257 -0.0676  0.9197  1.7580
 6069TIP3   OH242401   4.272   5.250  10.499 -0.0349 -0.3246 -0.5057
 6069TIP3    H142402   4.190   5.261  10.548 -1.8626  0.0401 -3.3949
 6069TIP3    H242403   4.331   5.316  10.536 -2.0746  1.4938 -0.2595
 6070TIP3   OH242404   2.348   2.290  12.664  0.7413  0.0977 -0.0960
 6070TIP3    H142405   2.409   2.235  12.616 -0.0539  0.5231 -1.6629
 6070TIP3    H242406   2.392   2.375  12.669 -0.6014  1.1500 -3.4263
 6071TIP3   OH242407   5.429   2.255  11.793 -0.0497 -0.6186 -0.3975
 6071TIP3    H142408   5.496   2.191  11.771  0.9569  0.5598 -0.8924
 6071TIP3    H242409   5.397   2.286  11.708 -0.8988 -0.8196 -0.1648
 6072TIP3   OH242410   0.905   4.061  13.141 -0.3518 -0.2341 -0.2172
 6072TIP3    H142411   0.867   4.100  13.063  0.1506  0.5285 -0.0864
 6072TIP3    H242412   0.871   3.971  13.142 -0.4720 -0.2112 -1.2352
 6073TIP3   OH242413   6.367   3.730  11.245 -0.3325 -0.1740 -0.6972
 6073TIP3    H142414   6.287   3.774  11.275  0.3724  0.8103 -0.1989
 6073TIP3    H242415   6.416   3.799  11.199  0.3984 -0.6682 -0.6699
 6074TIP3   OH242416   1.559   2.461  11.240 -0.3731  0.5353  0.2966
 6074TIP3    H142417   1.641   2.480  11.285 -0.0307  1.4388 -0.6791
 6074TIP3    H242418   1.536   2.373  11.269  1.5210 -0.1987 -0.2992
 6075TIP3   OH242419   4.331   3.972  11.837 -0.1501 -0.1337 -0.6984
 6075TIP3    H142420   4.348   4.010  11.751 -0.4861  0.7333 -0.3897
 6075TIP3    H242421   4.252   4.017  11.868 -0.2438 -0.6988 -0.0881
 6076TIP3   OH242422   4.113   7.190  11.116 -0.2231  0.1144 -0.2805
 6076TIP3    H142423   4.046   7.123  11.114 -1.5212  1.3714 -1.8189
 6076TIP3    H242424   4.192   7.144  11.144 -1.4661 -1.6236  0.5368
 6077TIP3   OH242425   6.614   4.688  13.575  0.7535 -0.4613 -0.1050
 6077TIP3    H142426   6.629   4.781  13.557  1.0675 -0.6948 -1.0864
 6077TIP3    H242427   6.521   4.684  13.600 -1.2769 -0.6167 -6.1152
 6078TIP3   OH242428   2.079   1.948  13.530 -0.7607 -0.5827 -0.0987
 6078TIP3    H142429   2.069   2.043  13.524 -2.7179 -0.7666 -0.5750
 6078TIP3    H242430   2.070   1.929  13.623  2.4590 -0.1079  0.4054
 6079TIP3   OH242431   4.752   1.023  12.370 -0.6890 -0.7732 -0.1038
 6079TIP3    H142432   4.729   1.106  12.330  0.4341 -0.3461  0.0873
 6079TIP3    H242433   4.748   1.040  12.464 -0.2587 -0.8620 -0.0651
 6080TIP3   OH242434   4.181   2.485  11.622 -0.1370 -0.4828  0.1937
 6080TIP3    H142435   4.270   2.511  11.647 -0.3723 -1.0156  1.6311
 6080TIP3    H242436   4.126   2.555  11.655 -0.2752 -0.1199 -0.7569
 6081TIP3   OH242437   0.690   5.899  13.248  0.0766 -0.0799  0.5251
 6081TIP3    H142438   0.751   5.833  13.214  1.5604  1.9453 -1.0097
 6081TIP3    H242439   0.694   5.889  13.343 -0.1624 -2.4989  0.3468
 6082TIP3   OH242440   4.717   3.144  11.589 -0.2629 -0.4974 -0.0807
 6082TIP3    H142441   4.624   3.155  11.569  0.0260  1.6178 -0.4238
 6082TIP3    H242442   4.722   3.154  11.684 -0.4980 -1.8581  0.1079
 6083TIP3   OH242443   3.886   6.815  10.543 -0.1164 -0.8259 -0.4419
 6083TIP3    H142444   3.949   6.856  10.484  0.1997  1.8026  1.5756
 6083TIP3    H242445   3.803   6.818  10.495  0.2453  0.6792 -1.0113
 6084TIP3   OH242446   5.260   1.387  12.093  0.1904  0.3123 -0.5389
 6084TIP3    H142447   5.167   1.366  12.093 -0.1340  1.5696  0.5833
 6084TIP3    H242448   5.304   1.302  12.088 -1.0080 -0.3340 -0.5715
 6085TIP3   OH242449   3.053   2.152  10.550 -0.0987 -0.4384 -0.0599
 6085TIP3    H142450   3.075   2.091  10.620  1.1136 -0.3971 -0.3754
 6085TIP3    H242451   2.999   2.219  10.592 -0.3378 -1.0211  0.5775
 6086TIP3   OH242452   2.062   5.026  11.072  0.7489 -0.2469 -0.5715
 6086TIP3    H142453   2.109   5.017  10.989 -1.4567 -2.5746 -1.6849
 6086TIP3    H242454   2.101   4.960  11.129  1.8496  0.9426  0.1119
 6087TIP3   OH242455   5.654   7.271  11.754 -0.0175  0.2709 -0.3458
 6087TIP3    H142456   5.699   7.321  11.822  1.5977 -1.9228  0.3085
 6087TIP3    H242457   5.617   7.195  11.800  0.6197 -0.9721 -1.7940
 6088TIP3   OH242458   0.928   5.244  12.193 -0.1778  0.5594  0.6579
 6088TIP3    H142459   0.920   5.269  12.285  0.6374  1.6871  0.4434
 6088TIP3    H242460   1.007   5.189  12.189 -0.1811  0.5568  0.6223
 6089TIP3   OH242461   6.960   1.157  11.391 -0.3223  0.3387 -0.3250
 6089TIP3    H142462   6.999   1.142  11.306 -0.6753  1.3481 -0.6837
 6089TIP3    H242463   6.944   1.252  11.394  0.8906  0.5461  1.3737
 6090TIP3   OH242464   2.712   6.960  10.498  0.1799 -0.4448 -0.2432
 6090TIP3    H142465   2.617   6.976  10.496  0.1937 -0.4447 -0.9953
 6090TIP3    H242466   2.724   6.879  10.449  0.5368 -0.6369  0.1562
 6091TIP3   OH242467   1.766   5.794  12.188 -0.4903  0.5011  0.1101
 6091TIP3    H142468   1.836   5.737  12.218 -0.9666  0.2232  0.7195
 6091TIP3    H242469   1.724   5.745  12.118 -0.1868  0.5938 -0.1379
 6092TIP3   OH242470   6.901   2.147  10.399 -0.1660 -0.7277  0.0751
 6092TIP3    H142471   6.854   2.214  10.349  0.6746 -0.8113 -0.8620
 6092TIP3    H242472   6.869   2.064  10.363  0.3428 -0.7890 -0.2505
 6093TIP3   OH242473   4.933   3.787  11.236 -0.4063 -0.0290  0.0504
 6093TIP3    H142474   4.991   3.711  11.225 -1.1961 -0.8297  1.1926
 6093TIP3    H242475   4.985   3.848  11.288  0.5371  0.6064 -1.5472
 6094TIP3   OH242476   3.811   4.017  10.715  0.3156 -0.2073 -0.4500
 6094TIP3    H142477   3.906   4.020  10.726  0.2052 -0.1284  0.6047
 6094TIP3    H242478   3.797   3.949  10.649  1.1800  0.9544 -1.9079
 6095TIP3   OH242479   4.857   1.508  10.789 -0.0651  0.6009  0.0270
 6095TIP3    H142480   4.861   1.569  10.862  0.0979  0.5989  0.0205
 6095TIP3    H242481   4.806   1.434  10.822  0.4227  0.3853  0.2954
 6096TIP3   OH242482   4.419   1.903  11.479  0.0618  0.0772 -0.5479
 6096TIP3    H142483   4.340   1.852  11.495  0.0042  0.6054  0.9259
 6096TIP3    H242484   4.483   1.839  11.448 -0.1902 -0.8073  0.6945
 6097TIP3   OH242485   6.396   4.089  13.732 -0.4873 -0.7472 -0.5640
 6097TIP3    H142486   6.397   4.021  13.665  0.3502 -0.4756 -0.8498
 6097TIP3    H242487   6.430   4.046  13.810  1.3575 -0.3569 -1.0953
 6098TIP3   OH242488   4.537   2.944  10.712 -0.0103  0.1053  0.0377
 6098TIP3    H142489   4.463   2.918  10.767  0.9340 -1.8195  0.4664
 6098TIP3    H242490   4.583   2.863  10.693  1.5256  1.1489 -0.9303
 6099TIP3   OH242491   1.945   5.677  11.213 -0.1534  0.3075  0.1690
 6099TIP3    H142492   2.004   5.616  11.170 -2.4255 -2.7721  1.0729
 6099TIP3    H242493   1.954   5.658  11.306 -1.0760  1.2076  0.4604
 6100TIP3   OH242494   5.133   0.013  11.929 -0.4394 -0.2372 -0.2446
 6100TIP3    H142495   5.178  -0.044  11.992 -1.2504  1.4461  1.9738
 6100TIP3    H242496   5.203   0.046  11.873  0.6860 -0.0304  1.2235
 6101TIP3   OH242497   5.216   2.544  13.280  0.5492  0.0496 -0.0817
 6101TIP3    H142498   5.157   2.482  13.322  0.5510  0.0685 -0.0523
 6101TIP3    H242499   5.293   2.546  13.338 -0.6766  2.4202  1.6238
 6102TIP3   OH242500   6.107   1.478  11.231  0.4008  0.0736  0.6716
 6102TIP3    H142501   6.030   1.532  11.217  0.3949 -0.3717 -1.1540
 6102TIP3    H242502   6.074   1.388  11.230  1.0580 -0.1978 -1.4530
 6103TIP3   OH242503   5.218   5.561  12.436  0.0024 -0.4879  0.0501
 6103TIP3    H142504   5.192   5.643  12.394  0.0866 -0.3440  0.2752
 6103TIP3    H242505   5.135   5.518  12.459 -0.0571  0.1174  1.0491
 6104TIP3   OH242506   1.996   5.265  11.379  0.1887  0.4138 -0.5344
 6104TIP3    H142507   1.971   5.180  11.344  0.9972  0.6652 -1.7584
 6104TIP3    H242508   2.042   5.244  11.461  1.1601 -0.4013 -1.2590
 6105TIP3   OH242509   4.822   4.506  12.914 -0.1193 -0.0580  0.1529
 6105TIP3    H142510   4.878   4.569  12.868 -0.0233  0.7986  1.3919
 6105TIP3    H242511   4.735   4.546  12.913 -0.3662 -0.5924 -0.2881
 6106TIP3   OH242512   1.111   6.244  11.175 -0.2376 -0.1191 -0.1094
 6106TIP3    H142513   1.178   6.278  11.234  1.1146 -1.2223 -0.9473
 6106TIP3    H242514   1.122   6.149  11.178 -1.1904 -0.2705 -0.9211
 6107TIP3   OH242515   1.050   5.049  12.674 -0.5135  0.2502  0.8681
 6107TIP3    H142516   1.141   5.041  12.702  0.0130 -0.1772 -0.8318
 6107TIP3    H242517   1.001   4.994  12.734  0.0899  1.6969  2.7943
 6108TIP3   OH242518   1.145   1.871  10.507  0.2611  0.0916  0.2062
 6108TIP3    H142519   1.063   1.919  10.493 -0.0471 -0.7857 -1.1819
 6108TIP3    H242520   1.213   1.938  10.499 -0.2795  0.8404  1.4270
 6109TIP3   OH242521   6.531   5.610  12.305  0.4370  0.1783  0.3862
 6109TIP3    H142522   6.597   5.553  12.266 -0.2137 -1.4593  1.5853
 6109TIP3    H242523   6.454   5.599  12.250  0.6250  0.7887 -0.0191
 6110TIP3   OH242524   6.331   0.467  11.224  0.0536  0.2424  0.2924
 6110TIP3    H142525   6.317   0.491  11.316 -1.4103 -0.4478  0.2806
 6110TIP3    H242526   6.245   0.475  11.184  0.4726 -0.4780 -0.7846
 6111TIP3   OH242527   4.591   3.040  11.089  0.0848 -0.8235  0.0380
 6111TIP3    H142528   4.623   3.049  11.179  0.9888  0.7936 -0.4133
 6111TIP3    H242529   4.627   2.956  11.059 -0.1998 -1.3687  1.1495
 6112TIP3   OH242530   0.306   7.059  12.300 -0.1904 -0.2738 -0.4469
 6112TIP3    H142531   0.273   7.005  12.228 -0.5561  0.2181 -0.6514
 6112TIP3    H242532   0.267   7.145  12.285  0.5861  0.1177 -0.2635
 6113TIP3   OH242533   2.122   3.541  11.989 -0.2321 -0.4069 -0.2721
 6113TIP3    H142534   2.165   3.608  11.936 -1.9300 -0.7475 -2.2371
 6113TIP3    H242535   2.183   3.467  11.987  0.9466  0.5015  0.5949
 6114TIP3   OH242536   3.146   3.223  10.084 -0.3318 -0.3104 -0.5591
 6114TIP3    H142537   3.183   3.134  10.082 -3.2235 -1.6372  0.0506
 6114TIP3    H242538   3.058   3.213  10.048 -1.0980  2.1566  0.4455
 6115TIP3   OH242539   7.255   7.438  13.184 -0.1122  0.4317  0.4426
 6115TIP3    H142540   7.347   7.462  13.191 -0.2310  0.7921  0.8420
 6115TIP3    H242541   7.223   7.482  13.105  0.5104 -1.2150 -0.7717
 6116TIP3   OH242542   1.150   0.720  10.520 -0.0401  0.1457  0.2281
 6116TIP3    H142543   1.240   0.702  10.548 -0.2563  0.2783  1.0380
 6116TIP3    H242544   1.125   0.797  10.570 -0.3683  0.5275 -0.5157
 6117TIP3   OH242545   4.670   2.233  13.294  0.6007  0.3933  0.2117
 6117TIP3    H142546   4.613   2.291  13.244 -0.4360  2.1255  3.1736
 6117TIP3    H242547   4.648   2.145  13.261  0.1176  1.3811 -2.3755
 6118TIP3   OH242548   3.039   3.407  12.592 -0.5959  0.1925 -0.3039
 6118TIP3    H142549   3.094   3.383  12.666 -1.9107  2.5626  1.5871
 6118TIP3    H242550   3.094   3.465  12.539 -0.7061  1.2466  0.7022
 6119TIP3   OH242551   2.317   0.037  11.107  0.2313 -0.3302  0.2083
 6119TIP3    H142552   2.226   0.010  11.117 -0.5951  2.3047  0.4124
 6119TIP3    H242553   2.336   0.020  11.014 -0.8942  0.2622 -0.1509
 6120TIP3   OH242554   0.654   3.388  11.449  0.3271  0.1113  0.5689
 6120TIP3    H142555   0.683   3.330  11.519  0.3740 -1.3770 -0.6359
 6120TIP3    H242556   0.735   3.417  11.407  0.2746  0.5013  0.7344
 6121TIP3   OH242557   4.871   4.443  11.196 -0.5652  0.2502  0.3473
 6121TIP3    H142558   4.893   4.455  11.104 -2.2038 -0.3061 -0.1565
 6121TIP3    H242559   4.791   4.493  11.209 -1.4098 -1.1789  0.9601
 6122TIP3   OH242560   0.672   7.670  10.655 -0.3301  0.2570  0.1799
 6122TIP3    H142561   0.724   7.620  10.718 -1.1956  0.0610  0.7502
 6122TIP3    H242562   0.723   7.665  10.573 -0.4934 -1.7694  0.1374
 6123TIP3   OH242563   2.962   6.378  11.216 -0.7536 -0.2652 -0.4689
 6123TIP3    H142564   2.912   6.297  11.225  0.8779 -1.4433 -1.3994
 6123TIP3    H242565   2.996   6.375  11.127  4.0490 -1.5383  1.0673
 6124TIP3   OH242566   0.628   0.625  11.464  0.2739  0.3588  0.7626
 6124TIP3    H142567   0.596   0.715  11.473 -1.9389 -0.4765  2.3910
 6124TIP3    H242568   0.604   0.584  11.547  0.0433 -2.0505 -0.4253
 6125TIP3   OH242569   2.304   3.036  13.081  0.4189  0.0213  0.1032
 6125TIP3    H142570   2.313   3.131  13.081  0.9252 -0.0156 -0.7344
 6125TIP3    H242571   2.271   3.015  13.168 -0.2326  1.0050  0.1078
 6126TIP3   OH242572   5.867   6.138  11.386  0.0629 -0.2966 -0.1450
 6126TIP3    H142573   5.876   6.098  11.300  1.8255 -1.2946  0.4473
 6126TIP3    H242574   5.950   6.183  11.401 -0.0082 -0.5513  1.2037
 6127TIP3   OH242575   3.667   2.237  11.092 -0.0175 -0.0405 -0.3631
 6127TIP3    H142576   3.709   2.198  11.168  1.0470 -1.0440 -1.4335
 6127TIP3    H242577   3.676   2.332  11.106 -0.4874 -0.1739  1.0780
 6128TIP3   OH242578   2.735   2.640  10.283  0.2093  0.1253 -0.2862
 6128TIP3    H142579   2.716   2.595  10.201 -0.1769 -0.2259 -0.0167
 6128TIP3    H242580   2.665   2.610  10.342  1.1538 -0.5544  0.5109
 6129TIP3   OH242581   5.900   0.058  10.506  0.0755  0.0122  0.7352
 6129TIP3    H142582   5.917  -0.035  10.516  0.5598  0.1773  1.5362
 6129TIP3    H242583   5.821   0.063  10.452  0.1035 -0.8544  0.6086
 6130TIP3   OH242584   3.049   3.127  11.585 -0.5249 -0.1269 -0.5937
 6130TIP3    H142585   3.060   3.137  11.679  0.1845  1.0050 -0.7770
 6130TIP3    H242586   3.061   3.216  11.550  0.9141 -0.7924 -1.8974
 6131TIP3   OH242587   5.290   5.186  11.834  0.3669 -0.2063 -0.3369
 6131TIP3    H142588   5.254   5.274  11.842  0.1222 -0.3894  0.8692
 6131TIP3    H242589   5.385   5.200  11.829  0.3903  0.1025  0.7232
 6132TIP3   OH242590   1.952   7.102  11.936  0.0286  0.3281 -0.1442
 6132TIP3    H142591   1.936   7.100  11.841  1.9967  1.1245 -0.5409
 6132TIP3    H242592   2.027   7.045  11.949  0.4034  1.0065  0.7806
 6133TIP3   OH242593   1.964   3.845  11.364  0.2382 -0.6405 -0.5629
 6133TIP3    H142594   1.999   3.756  11.371  0.9658 -0.3050  0.2387
 6133TIP3    H242595   2.041   3.901  11.357  0.0445  0.2203  2.4365
 6134TIP3   OH242596   6.942   4.258  11.985 -0.3094 -0.4099  0.1221
 6134TIP3    H142597   7.016   4.289  12.036 -0.3339 -1.5753  0.8953
 6134TIP3    H242598   6.943   4.312  11.906  0.8463  0.1618  0.5094
 6135TIP3   OH242599   2.762   0.386  11.902  0.0721  0.6120  0.2495
 6135TIP3    H142600   2.721   0.450  11.961  0.6754  2.7203 -1.4745
 6135TIP3    H242601   2.854   0.386  11.927  0.3161  1.4579 -0.6083
 6136TIP3   OH242602   7.678   2.741  10.815 -0.1631 -0.6738 -0.4034
 6136TIP3    H142603   7.754   2.728  10.871  1.4474  0.4384 -2.1645
 6136TIP3    H242604   7.624   2.664  10.828  0.9645 -1.2127  1.3696
 6137TIP3   OH242605   4.247   5.801  12.463  0.3352 -0.1147  0.5938
 6137TIP3    H142606   4.161   5.800  12.504  0.5707  0.5795  1.1300
 6137TIP3    H242607   4.231   5.831  12.374 -0.0977 -0.9821  0.3734
 6138TIP3   OH242608   7.139   0.813  11.234  0.6682  0.2187 -0.0686
 6138TIP3    H142609   7.188   0.741  11.273  0.1015  0.6080  1.4205
 6138TIP3    H242610   7.113   0.781  11.148  0.5018 -1.3242  0.5341
 6139TIP3   OH242611   2.869   4.351  12.048  0.2553 -0.1687 -0.5166
 6139TIP3    H142612   2.881   4.322  12.138  1.7181 -0.4215 -0.7643
 6139TIP3    H242613   2.794   4.410  12.052 -0.1746 -0.7574  0.7222
 6140TIP3   OH242614   0.217   1.166  12.534 -0.3154  0.6634  0.1159
 6140TIP3    H142615   0.243   1.254  12.561  0.9280 -0.0613  1.3621
 6140TIP3    H242616   0.282   1.141  12.468  0.4319  0.0125  1.0667
 6141TIP3   OH242617   6.941   4.633  13.969  0.2365 -0.2991  0.1079
 6141TIP3    H142618   7.026   4.605  14.002 -0.1491  0.6305  1.9993
 6141TIP3    H242619   6.899   4.552  13.940  1.7216 -0.7702 -0.8630
 6142TIP3   OH242620   1.238   4.848  12.958  0.0597  0.6021  0.5883
 6142TIP3    H142621   1.214   4.889  12.875  0.7053 -0.0130  0.0797
 6142TIP3    H242622   1.334   4.843  12.955  0.1114  0.7872  1.4824
 6143TIP3   OH242623   4.076   3.217  12.654 -0.2585 -0.7615  0.6687
 6143TIP3    H142624   4.125   3.135  12.641  0.7570 -0.0923  0.0677
 6143TIP3    H242625   4.138   3.274  12.700 -0.5896 -0.0111  0.2045
 6144TIP3   OH242626   5.952   2.362  12.270  0.0713 -0.0699  0.1104
 6144TIP3    H142627   6.016   2.290  12.268  0.8159  0.5686 -1.8143
 6144TIP3    H242628   5.906   2.355  12.187  0.6969  2.0929 -0.4921
 6145TIP3   OH242629   6.091   2.629  12.270  0.2013  0.4805  0.1754
 6145TIP3    H142630   6.167   2.582  12.304 -0.0619  0.8938  1.3529
 6145TIP3    H242631   6.044   2.564  12.218  1.1387  0.1193 -0.2490
 6146TIP3   OH242632   7.482   1.796  11.542  0.9636  0.4423  0.4772
 6146TIP3    H142633   7.527   1.837  11.468  2.0445 -0.1196  0.8092
 6146TIP3    H242634   7.395   1.775  11.507  2.1201 -1.8117 -1.4115
 6147TIP3   OH242635   7.346   5.053  12.106  0.0533  0.1713 -0.5364
 6147TIP3    H142636   7.439   5.068  12.091  0.2188 -0.3235 -0.0434
 6147TIP3    H242637   7.314   5.137  12.140  0.7269 -0.1765  1.0984
 6148TIP3   OH242638   3.404   3.885  10.421  0.5572 -0.7316  0.5032
 6148TIP3    H142639   3.491   3.871  10.456  0.1213 -1.1826  1.4444
 6148TIP3    H242640   3.405   3.842  10.335  2.3947  2.4509 -1.2784
 6149TIP3   OH242641   6.478   2.559  10.845  0.4940  0.2278 -0.1877
 6149TIP3    H142642   6.571   2.550  10.828  0.3193 -0.8240 -0.6578
 6149TIP3    H242643   6.448   2.626  10.783  1.0913  1.2493  0.6026
 6150TIP3   OH242644   1.879   2.965  11.618 -0.5949  0.5528  0.0359
 6150TIP3    H142645   1.960   2.955  11.567 -1.1697  0.8157 -0.9702
 6150TIP3    H242646   1.849   2.876  11.634 -0.0430  0.4500  0.5275
 6151TIP3   OH242647   5.857   0.815  10.437  0.4434  0.0888 -0.1808
 6151TIP3    H142648   5.799   0.835  10.511  1.7442 -0.8626  1.1417
 6151TIP3    H242649   5.800   0.770  10.374 -0.7114  1.0209  0.1505
 6152TIP3   OH242650   1.904   3.375  10.338 -0.4638  0.3553 -0.2810
 6152TIP3    H142651   1.841   3.361  10.409 -0.8832 -0.6843 -0.8415
 6152TIP3    H242652   1.879   3.460  10.301  0.1477  1.2155  1.1832
 6153TIP3   OH242653   5.644   4.325  11.317  0.3104 -0.0022  0.0707
 6153TIP3    H142654   5.553   4.331  11.287 -0.9319  0.2852  3.4606
 6153TIP3    H242655   5.693   4.299  11.239 -2.8572 -1.6371 -1.5939
 6154TIP3   OH242656   1.568   2.921  10.887  0.2978  0.2919 -0.1844
 6154TIP3    H142657   1.603   2.843  10.930  3.3461  1.1424 -0.8684
 6154TIP3    H242658   1.544   2.890  10.799  0.0052 -0.1538  0.0447
 6155TIP3   OH242659   6.501   6.084  10.881  0.2422  0.3066 -0.2855
 6155TIP3    H142660   6.455   6.161  10.849 -0.9861  0.0849  0.8334
 6155TIP3    H242661   6.499   6.093  10.977  0.2328 -0.9959 -0.1418
 6156TIP3   OH242662   2.901   1.386  13.500 -0.1497 -0.1787  0.0353
 6156TIP3    H142663   2.924   1.297  13.472  0.5201  0.1003 -0.3141
 6156TIP3    H242664   2.979   1.438  13.482 -0.9887  0.7669 -1.0297
 6157TIP3   OH242665   7.673   2.851  12.758 -0.1637 -0.6107  0.0089
 6157TIP3    H142666   7.590   2.897  12.752 -0.0868 -0.6578 -2.1561
 6157TIP3    H242667   7.736   2.917  12.788 -0.8563 -0.4395  1.1169
 6158TIP3   OH242668   2.988   4.173  10.749 -0.6201  0.1809 -0.2457
 6158TIP3    H142669   2.946   4.258  10.734 -0.7633 -0.0026 -0.8961
 6158TIP3    H242670   3.077   4.185  10.717 -1.2888 -0.6008 -2.5161
 6159TIP3   OH242671   4.788   6.328  11.550 -0.0025 -0.0179  0.7240
 6159TIP3    H142672   4.786   6.273  11.471 -1.0357 -0.0569  0.7607
 6159TIP3    H242673   4.865   6.298  11.598  0.2576 -0.4541  0.0551
 6160TIP3   OH242674   4.310   2.236   9.869 -0.0717  0.2535 -0.2900
 6160TIP3    H142675   4.382   2.257   9.928  1.1586  0.3779 -1.8012
 6160TIP3    H242676   4.304   2.311   9.810 -2.6360  1.0822  0.8874
 6161TIP3   OH242677   5.790   2.920  11.220  0.0583  0.2838 -0.2766
 6161TIP3    H142678   5.873   2.937  11.175  1.5624  0.3791  2.3141
 6161TIP3    H242679   5.761   3.007  11.249 -1.1326  0.2798 -1.3769
 6162TIP3   OH242680   4.744   6.691  11.526 -0.3374  0.5940  0.0113
 6162TIP3    H142681   4.825   6.652  11.560 -0.4048  1.6687  1.4621
 6162TIP3    H242682   4.757   6.693  11.431 -0.5351 -3.4019 -0.2917
 6163TIP3   OH242683   1.012   5.463  12.059  0.0586 -0.3418 -0.3023
 6163TIP3    H142684   0.974   5.391  12.109  2.0819 -1.1197  0.2430
 6163TIP3    H242685   1.074   5.504  12.119 -1.2933  2.1320 -0.4878
 6164TIP3   OH242686   5.881   2.554  12.526  0.7522 -0.1422 -0.0469
 6164TIP3    H142687   5.921   2.641  12.533 -0.0792  0.2642 -0.2128
 6164TIP3    H242688   5.874   2.539  12.432  0.1649 -0.0379 -0.0231
 6165TIP3   OH242689   5.556   2.637  12.702 -0.0681  0.4427  0.1051
 6165TIP3    H142690   5.566   2.565  12.765  0.4237  0.6418  0.2540
 6165TIP3    H242691   5.501   2.600  12.633  0.4802 -0.2028 -0.0000
 6166TIP3   OH242692   6.034   2.093  11.926  0.1373  0.2185 -0.0603
 6166TIP3    H142693   5.956   2.128  11.883  1.1341  0.8194 -1.4705
 6166TIP3    H242694   6.027   2.123  12.017 -0.4693  1.6466 -0.5486
 6167TIP3   OH242695   0.955   5.613  11.722 -0.2041 -0.3451  0.4229
 6167TIP3    H142696   0.955   5.703  11.690  0.9676 -1.3404 -2.6952
 6167TIP3    H242697   1.047   5.594  11.741 -0.4281 -0.9651  0.9417
 6168TIP3   OH242698   2.800   4.000  10.793  0.2922  0.0207  0.5442
 6168TIP3    H142699   2.746   4.017  10.871  2.0491  1.8940  1.4505
 6168TIP3    H242700   2.852   4.080  10.782  0.9842 -0.6914 -1.8452
 6169TIP3   OH242701   2.416   0.600  17.770  0.3193  0.0724  0.1735
 6169TIP3    H142702   2.383   0.660  17.837 -0.1345 -1.1648  1.0945
 6169TIP3    H242703   2.498   0.566  17.807 -0.0988 -0.8651  0.2659
 6170TIP3   OH242704   2.388   2.779  12.943  0.5108  0.2596  0.0147
 6170TIP3    H142705   2.367   2.872  12.956 -0.3456  0.3219 -1.4825
 6170TIP3    H242706   2.331   2.733  13.004  0.0794  0.6879 -0.0522
 6171TIP3   OH242707   3.100   6.898  12.244  0.1160  0.2579 -0.3227
 6171TIP3    H142708   3.098   6.983  12.288  1.9518 -0.5223  1.4271
 6171TIP3    H242709   3.052   6.840  12.303  2.2010 -0.7116  0.4924
 6172TIP3   OH242710   1.699   3.237  13.306  0.1478 -0.0684 -0.4255
 6172TIP3    H142711   1.743   3.273  13.230 -0.1215  0.2909 -0.4118
 6172TIP3    H242712   1.767   3.229  13.373  0.1090  0.8970 -0.2577
 6173TIP3   OH242713   1.322   2.532  11.748  0.2381  0.0273  0.3214
 6173TIP3    H142714   1.270   2.595  11.797 -0.6759  0.0721 -0.6807
 6173TIP3    H242715   1.269   2.510  11.672  1.7017  0.1214 -0.7713
 6174TIP3   OH242716   3.757   4.949  11.051  0.2177 -0.0085 -0.4691
 6174TIP3    H142717   3.784   4.861  11.026  0.3949  0.6892 -3.0166
 6174TIP3    H242718   3.835   5.003  11.038 -1.1983  1.4484 -4.6670
 6175TIP3   OH242719   1.431   3.231  12.527 -0.3520 -0.7853 -0.0321
 6175TIP3    H142720   1.373   3.240  12.603  0.2039 -1.8109  0.5332
 6175TIP3    H242721   1.509   3.281  12.550  0.1851 -1.8180  0.4792
 6176TIP3   OH242722   0.028   4.625  13.637 -0.7483 -0.3705  0.3858
 6176TIP3    H142723   0.074   4.646  13.555 -2.2883  1.8709  0.0258
 6176TIP3    H242724  -0.029   4.551  13.614  0.8643 -1.6547  0.2521
 6177TIP3   OH242725   1.876   7.031  12.207 -0.2660 -0.1227 -0.3230
 6177TIP3    H142726   1.782   7.020  12.203 -0.3122  0.3655 -0.6149
 6177TIP3    H242727   1.902   7.055  12.118  0.0635  0.2486 -0.1302
 6178TIP3   OH242728   3.001   5.322  10.521  0.0163 -0.1457  0.4593
 6178TIP3    H142729   2.907   5.324  10.505 -0.1972 -3.8360  0.3702
 6178TIP3    H242730   3.027   5.414  10.528 -3.5639  0.9875  0.5106
 6179TIP3   OH242731   7.155   7.541  11.593 -0.1631 -0.0050  0.6673
 6179TIP3    H142732   7.191   7.502  11.513 -2.1579 -1.5357  0.4233
 6179TIP3    H242733   7.163   7.635  11.580  0.9038 -0.2457 -0.6732
 6180TIP3   OH242734   5.163   1.684  11.436 -0.0193 -0.3675  0.4391
 6180TIP3    H142735   5.088   1.625  11.446 -0.0570 -0.4465 -0.2238
 6180TIP3    H242736   5.139   1.740  11.362 -0.2147  0.8463  1.4007
 6181TIP3   OH242737   0.751   5.558  11.948  0.4862 -0.6738 -0.1647
 6181TIP3    H142738   0.743   5.642  11.904  2.4401 -0.2544  0.2013
 6181TIP3    H242739   0.845   5.547  11.962  0.1137 -1.9558  1.6440
 6182TIP3   OH242740   4.706   1.473  10.166  0.3373 -0.4135  0.1833
 6182TIP3    H142741   4.774   1.539  10.177  0.2186  0.2723 -2.4911
 6182TIP3    H242742   4.626   1.523  10.152 -0.6654 -1.2097  2.6279
 6183TIP3   OH242743   7.342   2.351  11.567 -0.7451  0.4867 -0.2734
 6183TIP3    H142744   7.291   2.369  11.488  1.6130 -0.5759 -2.1808
 6183TIP3    H242745   7.413   2.415  11.565  0.9856 -1.3419 -0.6753
 6184TIP3   OH242746   5.720   1.841  11.782 -0.1110 -0.7279 -0.1355
 6184TIP3    H142747   5.703   1.747  11.795 -0.5584 -0.6325 -0.0356
 6184TIP3    H242748   5.765   1.868  11.862  1.0937 -1.1156 -0.6564
 6185TIP3   OH242749   4.317   0.521  12.210 -0.1433  0.4204 -0.1019
 6185TIP3    H142750   4.290   0.613  12.207 -0.2333  0.5775  2.8547
 6185TIP3    H242751   4.236   0.472  12.198 -0.3411  0.7471 -0.1200
 6186TIP3   OH242752   4.420   2.817  12.853 -0.4307 -0.3034 -0.2583
 6186TIP3    H142753   4.350   2.883  12.856 -1.6322 -1.5350 -0.2849
 6186TIP3    H242754   4.374   2.734  12.838  0.9957 -1.2339  0.3255
 6187TIP3   OH242755   2.987   6.637  12.822  0.1377  0.1513  0.3320
 6187TIP3    H142756   2.898   6.648  12.791  0.3597 -2.1339 -1.3688
 6187TIP3    H242757   3.039   6.697  12.768  0.1828 -1.9627 -2.1021
 6188TIP3   OH242758   6.487   2.115  13.066 -0.2170 -0.1233 -0.2925
 6188TIP3    H142759   6.524   2.197  13.099  0.1795 -0.0607 -0.8824
 6188TIP3    H242760   6.560   2.073  13.021 -0.7961 -0.1352 -1.2310
 6189TIP3   OH242761   3.101   6.630  11.011  0.1295 -0.4381 -0.3917
 6189TIP3    H142762   3.183   6.666  10.976 -0.0799 -0.5374 -1.0028
 6189TIP3    H242763   3.129   6.560  11.071  0.5425  0.7735  0.8722
 6190TIP3   OH242764   0.151   6.096  11.327  0.2568  0.1164 -0.3379
 6190TIP3    H142765   0.134   6.142  11.409 -0.5489 -0.4592 -0.1634
 6190TIP3    H242766   0.201   6.019  11.353 -1.4760 -0.9935 -0.1144
 6191TIP3   OH242767   6.272   0.218  12.254  0.5895  0.5290  0.2704
 6191TIP3    H142768   6.310   0.193  12.338  0.5070 -1.5681 -0.2741
 6191TIP3    H242769   6.327   0.174  12.189 -1.2674 -0.5778 -0.6290
 6192TIP3   OH242770   0.605   1.616  12.643  0.0861  0.2331 -0.3658
 6192TIP3    H142771   0.632   1.531  12.610  0.0244  0.2745 -0.5255
 6192TIP3    H242772   0.584   1.601  12.735  1.7175  0.4243  0.0730
 6193TIP3   OH242773   3.554   4.789  11.573  0.2290  0.0380 -0.3409
 6193TIP3    H142774   3.582   4.874  11.537 -0.8052  1.8466  2.7381
 6193TIP3    H242775   3.480   4.764  11.517 -1.1763  2.5856  0.1941
 6194TIP3   OH242776   1.447   1.990  12.506  0.0141  0.4842  0.3282
 6194TIP3    H142777   1.385   1.917  12.504 -0.2609  0.7291 -0.0296
 6194TIP3    H242778   1.532   1.950  12.486 -0.3578  0.4918 -1.4084
 6195TIP3   OH242779   6.970   4.796  13.614 -0.3088  0.6129 -0.5168
 6195TIP3    H142780   6.913   4.719  13.624 -0.9436  1.1196 -0.1557
 6195TIP3    H242781   7.020   4.799  13.696 -0.3320  0.6193 -0.5026
 6196TIP3   OH242782   5.926   3.971  13.382  0.1019 -0.2900  0.1296
 6196TIP3    H142783   5.986   4.046  13.384 -1.2641  0.8389  1.2450
 6196TIP3    H242784   5.971   3.903  13.433  1.2441 -0.1688 -0.6785
 6197TIP3   OH242785   1.170   3.825  10.718 -0.1148 -0.0775  0.6274
 6197TIP3    H142786   1.175   3.913  10.679 -0.3185 -0.3871 -0.1130
 6197TIP3    H242787   1.192   3.839  10.810  0.3512  0.6809  0.4168
 6198TIP3   OH242788   3.253   3.445   9.959  0.1451  0.2468  0.0686
 6198TIP3    H142789   3.230   3.359   9.993 -0.8834  0.5680  0.2263
 6198TIP3    H242790   3.190   3.461   9.889 -0.3327  1.2965  0.7184
 6199TIP3   OH242791   7.249   6.012  11.082  0.5684  0.6648  0.6080
 6199TIP3    H142792   7.164   6.039  11.048  0.4482  1.3397  1.3973
 6199TIP3    H242793   7.289   5.962  11.011  0.6943  2.7423 -0.8624
 6200TIP3   OH242794   3.261   0.221  12.153 -0.8712 -0.4182 -0.5477
 6200TIP3    H142795   3.282   0.314  12.168 -1.0964 -0.5227  0.4488
 6200TIP3    H242796   3.168   0.221  12.133 -0.9802 -0.4763 -0.0531
 6201TIP3   OH242797   4.589   4.509  10.897 -0.1085 -0.4687  0.3703
 6201TIP3    H142798   4.658   4.550  10.845  1.2948 -1.0244  1.7031
 6201TIP3    H242799   4.546   4.582  10.941  0.0566 -0.1559  0.0178
 6202TIP3   OH242800   5.781   4.243  11.013  0.5429 -0.1784  0.2296
 6202TIP3    H142801   5.779   4.226  10.919 -1.1011 -1.9873  0.5250
 6202TIP3    H242802   5.697   4.286  11.032  0.4878 -0.6012  0.9879
 6203TIP3   OH242803   5.821   2.591  10.611  0.1397  0.1401 -0.1784
 6203TIP3    H142804   5.726   2.585  10.622  0.0585  1.4191  0.0365
 6203TIP3    H242805   5.842   2.528  10.543 -0.7895 -0.5472  0.1527
 6204TIP3   OH242806   0.946   6.828  10.816  0.2031 -0.0817 -0.0504
 6204TIP3    H142807   0.991   6.799  10.737  2.6082  0.2785  1.0967
 6204TIP3    H242808   0.949   6.923  10.811 -2.0636  0.0172 -0.7598
 6205TIP3   OH242809   5.147   3.170  12.374  0.1173  0.3897  0.5690
 6205TIP3    H142810   5.120   3.232  12.306 -0.6484 -1.0272 -0.4941
 6205TIP3    H242811   5.151   3.086  12.328  0.2867 -0.4893  2.1396
 6206TIP3   OH242812   7.604   2.640  11.146 -0.2762 -0.3928  0.2746
 6206TIP3    H142813   7.697   2.620  11.136 -0.0921 -0.3672  1.7383
 6206TIP3    H242814   7.586   2.628  11.239 -1.5516  0.4146  0.1632
 6207TIP3   OH242815   5.680   4.842  12.610 -0.4351  0.0960  0.0924
 6207TIP3    H142816   5.609   4.906  12.622 -1.0999 -0.5291 -0.4035
 6207TIP3    H242817   5.741   4.860  12.682 -1.1359  0.5969  0.5772
 6208TIP3   OH242818   1.360   6.955  11.179 -0.2544  0.2574 -0.3613
 6208TIP3    H142819   1.347   6.885  11.116  0.6796 -0.5967  0.3756
 6208TIP3    H242820   1.435   7.004  11.146 -0.1980  0.2340 -0.2655
 6209TIP3   OH242821   1.281   2.907  11.107  0.2850 -0.2508 -0.0427
 6209TIP3    H142822   1.361   2.859  11.126  0.2198 -0.8825 -1.2388
 6209TIP3    H242823   1.251   2.940  11.192  1.2314 -0.9151  0.5613
 6210TIP3   OH242824   0.880   1.020  11.051  0.5105  0.0511  0.0012
 6210TIP3    H142825   0.799   0.972  11.035 -0.3190  0.7516  1.8267
 6210TIP3    H242826   0.918   0.978  11.129  1.2699  0.5023 -0.1103
 6211TIP3   OH242827   0.969   3.896  10.942  0.5815  0.1806 -0.3385
 6211TIP3    H142828   0.982   3.840  11.019 -0.2029 -1.4370 -1.3118
 6211TIP3    H242829   0.890   3.947  10.962  2.0230  1.9817  1.0932
 6212TIP3   OH242830   4.419   5.775  12.661 -0.1914 -0.2746 -0.1668
 6212TIP3    H142831   4.502   5.736  12.631 -0.3679 -1.4479  0.7855
 6212TIP3    H242832   4.367   5.784  12.582  0.4719 -0.4870 -0.6401
 6213TIP3   OH242833   6.430   1.386  11.684  0.8595 -0.0440  0.5762
 6213TIP3    H142834   6.525   1.379  11.691  1.0992  2.0674  0.2603
 6213TIP3    H242835   6.415   1.475  11.652 -1.2378 -0.3229  0.6181
 6214TIP3   OH242836   2.433   4.541  12.356 -0.2895 -0.3218  0.2610
 6214TIP3    H142837   2.360   4.584  12.400 -1.3674 -1.5187 -0.2888
 6214TIP3    H242838   2.398   4.457  12.326  0.8747 -0.2977 -1.3584
 6215TIP3   OH242839   2.459   2.503  10.365  0.3157 -0.0676 -0.5239
 6215TIP3    H142840   2.424   2.428  10.318 -1.7581  0.8444 -0.5393
 6215TIP3    H242841   2.436   2.578  10.311  3.4219  0.6080 -1.1431
 6216TIP3   OH242842   1.186   2.213  11.373  0.2896  0.1853  0.1353
 6216TIP3    H142843   1.208   2.168  11.455  0.4736 -0.1172 -0.0777
 6216TIP3    H242844   1.141   2.147  11.321  1.1234  0.0460 -0.4338
 6217TIP3   OH242845   6.833   3.476  11.608  0.2366  0.4118 -0.0631
 6217TIP3    H142846   6.811   3.529  11.685 -0.1479 -1.0653  0.8808
 6217TIP3    H242847   6.749   3.461  11.565 -0.0221 -1.3151  0.9573
 6218TIP3   OH242848   5.512   2.347  10.836  0.2149 -0.2328  0.3920
 6218TIP3    H142849   5.457   2.271  10.858 -1.7006  0.9304 -0.1587
 6218TIP3    H242850   5.503   2.406  10.911  2.0992 -0.7089  1.0415
 6219TIP3   OH242851   3.692   3.986  10.955 -0.5157  0.1260  0.3896
 6219TIP3    H142852   3.675   4.068  11.001 -1.1701  0.0206  0.3530
 6219TIP3    H242853   3.726   4.012  10.870 -2.2195  0.4374 -0.2473
 6220TIP3   OH242854   1.140   5.023  11.653 -0.2558 -0.2215  0.1230
 6220TIP3    H142855   1.094   5.041  11.571 -0.5746 -0.4862  0.2405
 6220TIP3    H242856   1.201   5.096  11.663 -1.0059  0.4019  0.2161
 6221TIP3   OH242857   1.274   4.728  11.385  0.0685 -1.1465 -0.4956
 6221TIP3    H142858   1.276   4.638  11.416  0.3452 -1.0204 -0.1274
 6221TIP3    H242859   1.185   4.758  11.402  0.3430 -0.9298  0.6569
 6222TIP3   OH242860   4.561   2.767  10.158 -0.2535 -0.4005  0.3396
 6222TIP3    H142861   4.587   2.843  10.211 -1.9827  0.1857  0.3909
 6222TIP3    H242862   4.618   2.772  10.081 -0.8845  1.4466 -0.0564
 6223TIP3   OH242863   6.107   1.079  10.754 -0.0642 -1.1137  0.1552
 6223TIP3    H142864   6.169   1.053  10.822  1.6215 -0.2610 -0.9970
 6223TIP3    H242865   6.091   0.999  10.704 -0.4692 -1.4955  0.8772
 6224TIP3   OH242866   5.865   1.151  10.888  0.4065 -0.0615  0.5664
 6224TIP3    H142867   5.854   1.056  10.889 -0.8485  0.0698  0.6682
 6224TIP3    H242868   5.799   1.182  10.826  0.2380  0.7944  1.1542
 6225TIP3   OH242869   0.110   0.292  12.632 -0.4109  0.3586 -0.5306
 6225TIP3    H142870   0.139   0.365  12.687 -0.8552  1.5332 -1.7720
 6225TIP3    H242871   0.031   0.260  12.675  0.5344 -0.3327  0.7709
 6226TIP3   OH242872   4.885   0.660  11.147 -0.2260 -0.6040  0.1073
 6226TIP3    H142873   4.819   0.677  11.079 -1.3183 -0.1982  1.2416
 6226TIP3    H242874   4.917   0.572  11.126  0.9002  0.2389 -2.0761
 6227TIP3   OH242875   4.731   4.063  12.840  0.2000  0.0990  0.1878
 6227TIP3    H142876   4.683   4.122  12.898  0.1131 -1.0443  1.3221
 6227TIP3    H242877   4.663   4.009  12.798  0.3405  0.0862 -0.0276
 6228TIP3   OH242878   0.934   2.359  12.143  0.0463 -0.6785 -0.5340
 6228TIP3    H142879   0.845   2.351  12.109  0.3553 -1.2117 -1.2662
 6228TIP3    H242880   0.976   2.276  12.119  0.2945 -1.0605  1.1531
 6229TIP3   OH242881   4.837   1.618  10.536 -0.3733  0.2464 -0.3260
 6229TIP3    H142882   4.760   1.672  10.553 -0.6045 -0.6135  1.6711
 6229TIP3    H242883   4.837   1.553  10.607  0.7257 -1.4363 -1.7817
 6230TIP3   OH242884   1.278   0.604  12.046  0.0763  0.0625 -0.7435
 6230TIP3    H142885   1.282   0.698  12.062  0.1466 -0.0368 -0.1418
 6230TIP3    H242886   1.215   0.594  11.975 -1.3806  0.4338  0.4494
 6231TIP3   OH242887   3.849   2.100  12.038  0.0031 -0.1077  0.0488
 6231TIP3    H142888   3.934   2.129  12.072 -0.4170 -0.1507  1.1494
 6231TIP3    H242889   3.836   2.152  11.959  0.6096  0.5883  0.4019
 6232TIP3   OH242890   1.218   1.055  11.197  0.1191 -0.1357  0.1453
 6232TIP3    H142891   1.257   0.995  11.133  0.1924 -0.0203  0.0822
 6232TIP3    H242892   1.219   1.140  11.154 -1.4792 -0.3642 -0.3969
 6233TIP3   OH242893   3.896   5.257  13.150  0.1063 -0.3919 -0.0104
 6233TIP3    H142894   3.836   5.291  13.216  1.3533  2.0283  0.0192
 6233TIP3    H242895   3.982   5.258  13.193  0.7935  0.3679 -1.3254
 6234TIP3   OH242896   2.859   3.357  11.917 -0.0929 -0.4850  0.6335
 6234TIP3    H142897   2.848   3.422  11.847 -0.0046  0.3688  1.3842
 6234TIP3    H242898   2.799   3.387  11.986 -2.5275 -3.0308 -0.2041
 6235TIP3   OH242899   4.678   5.004  11.953 -0.5080 -0.2241  0.3324
 6235TIP3    H142900   4.605   4.944  11.964  0.3971 -1.4188 -0.0336
 6235TIP3    H242901   4.747   4.970  12.010  0.8314 -0.9162 -1.5964
 6236TIP3   OH242902   4.174   2.498  13.448 -0.0152  0.1758  0.5912
 6236TIP3    H142903   4.211   2.586  13.458 -0.6102  0.2997  1.9022
 6236TIP3    H242904   4.251   2.441  13.442  0.3751  0.7561 -0.0404
 6237TIP3   OH242905   5.620   2.677  13.273 -0.1438  0.0146  0.3965
 6237TIP3    H142906   5.714   2.673  13.255 -0.3478 -0.4096 -0.6873
 6237TIP3    H242907   5.600   2.593  13.314 -0.1111 -0.0484  0.2845
 6238TIP3   OH242908   1.308   7.433  11.781 -0.6823  0.3070 -0.6744
 6238TIP3    H142909   1.304   7.513  11.833 -0.5321  0.0858 -0.3191
 6238TIP3    H242910   1.229   7.384  11.807 -1.1288  0.6351 -1.3824
 6239TIP3   OH242911   3.594   3.447  10.693  0.2833  0.9064 -0.4062
 6239TIP3    H142912   3.522   3.421  10.636 -0.4335  1.0847  0.3882
 6239TIP3    H242913   3.552   3.462  10.778  1.4170  0.0036  0.3381
 6240TIP3   OH242914   0.597   6.987  12.226 -0.1352 -0.6221 -0.0688
 6240TIP3    H142915   0.547   6.923  12.176 -0.6911  0.9189 -1.5857
 6240TIP3    H242916   0.531   7.039  12.273  0.2465 -0.5215  0.3717
 6241TIP3   OH242917   2.462   6.920  12.357  0.4416 -0.0693  0.1372
 6241TIP3    H142918   2.398   6.872  12.409  0.0263  1.0997  0.7550
 6241TIP3    H242919   2.544   6.874  12.371 -0.0078 -0.7858  0.4471
 6242TIP3   OH242920   1.596   1.197  10.688 -0.4672  0.0692 -0.1827
 6242TIP3    H142921   1.579   1.267  10.626  0.9078  0.7138  0.1298
 6242TIP3    H242922   1.528   1.207  10.755 -0.2834  1.1068 -0.1423
 6243TIP3   OH242923   6.971   6.990  10.514  0.2842 -0.6116  0.6279
 6243TIP3    H142924   7.053   7.001  10.466  0.6381 -0.1039  1.3384
 6243TIP3    H242925   6.992   6.930  10.585 -0.0808 -0.8645  0.5225
 6244TIP3   OH242926   6.432   0.821  11.292  0.3891 -0.3264 -0.0701
 6244TIP3    H142927   6.344   0.857  11.278 -0.2642 -1.9950 -0.4694
 6244TIP3    H242928   6.440   0.752  11.226  1.1437 -1.6418  1.3460
 6245TIP3   OH242929   5.911   2.691  11.463  0.4720 -0.2471 -0.4891
 6245TIP3    H142930   5.888   2.743  11.386 -0.2257 -0.3468 -0.3584
 6245TIP3    H242931   5.869   2.606  11.448 -0.5690  0.0589  0.4600
 6246TIP3   OH242932   6.349   5.370  12.365 -0.0348 -0.0363 -0.6197
 6246TIP3    H142933   6.409   5.363  12.438 -0.0738  0.0397 -0.5801
 6246TIP3    H242934   6.318   5.281  12.350 -0.9964  0.1196  0.2808
 6247TIP3   OH242935   4.204   6.904  11.800 -0.0227  0.1665 -0.0820
 6247TIP3    H142936   4.245   6.894  11.713  1.1264 -0.5162  0.5115
 6247TIP3    H242937   4.261   6.965  11.846 -0.5957  0.4804  0.2193
 6248TIP3   OH242938   0.724   0.095  12.320 -0.1973 -0.5282 -0.4699
 6248TIP3    H142939   0.761   0.045  12.248  2.0539 -1.1763  1.0250
 6248TIP3    H242940   0.718   0.033  12.392  1.2273  0.9032  0.9872
 6249TIP3   OH242941   4.487   3.149  12.812  0.3490 -0.1511  0.7403
 6249TIP3    H142942   4.539   3.104  12.745  0.2023  0.5541  0.1440
 6249TIP3    H242943   4.411   3.093  12.826 -1.5010  1.3452 -2.3198
 6250TIP3   OH242944   3.787   5.113  11.747  0.5312 -0.6979  0.8205
 6250TIP3    H142945   3.853   5.061  11.700 -0.6038 -1.2151 -0.2661
 6250TIP3    H242946   3.837   5.161  11.813  2.1794 -0.0933 -0.7810
 6251TIP3   OH242947   7.109   6.947  10.900 -0.4312 -0.0216 -0.0530
 6251TIP3    H142948   7.024   6.981  10.928 -0.6958 -0.8217  0.1400
 6251TIP3    H242949   7.088   6.889  10.827  0.2800  2.4877 -2.4393
 6252TIP3   OH242950   4.738   6.099  10.523  0.5695 -0.4182 -0.2969
 6252TIP3    H142951   4.797   6.173  10.504 -0.9348  0.9745  0.1898
 6252TIP3    H242952   4.703   6.119  10.610  1.2967 -2.5513  0.5450
 6253TIP3   OH242953   0.765   1.758  12.239 -0.1748  0.4446 -0.0241
 6253TIP3    H142954   0.744   1.669  12.211  0.7700  0.5041 -0.9753
 6253TIP3    H242955   0.744   1.812  12.164 -1.0113  1.0808  0.6498
 6254TIP3   OH242956   1.989   6.798  10.621 -0.1376 -0.3982 -0.5567
 6254TIP3    H142957   2.028   6.757  10.698  0.4950 -3.0795 -2.1823
 6254TIP3    H242958   1.953   6.881  10.654  1.5730 -0.6228  2.2375
 6255TIP3   OH242959   3.477   1.893  13.348 -0.4888  0.3560  0.3858
 6255TIP3    H142960   3.482   1.903  13.253 -0.6033 -0.1776  0.3208
 6255TIP3    H242961   3.553   1.942  13.381  0.2796 -0.5020 -0.0651
 6256TIP3   OH242962   4.651   2.510  13.464 -0.5192 -0.6733  0.5328
 6256TIP3    H142963   4.651   2.538  13.372 -0.6391  0.4421  0.8599
 6256TIP3    H242964   4.743   2.496  13.485 -0.2749  1.2466  0.8663
 6257TIP3   OH242965   7.512   4.891  10.534 -0.0420 -0.1683 -0.2684
 6257TIP3    H142966   7.580   4.951  10.503  0.1375 -0.8448 -1.2374
 6257TIP3    H242967   7.449   4.947  10.579  1.1637  0.4664  0.6850
 6258TIP3   OH242968   6.368   0.973  10.835  0.1874 -0.0713  0.1471
 6258TIP3    H142969   6.402   1.059  10.809  0.9546  0.0549  1.4897
 6258TIP3    H242970   6.440   0.913  10.819  0.5581 -0.0421  1.5802
 6259TIP3   OH242971   7.505   5.942  12.156 -0.2552  0.3631  0.1332
 6259TIP3    H142972   7.575   6.007  12.150  0.2469 -0.1712  0.0086
 6259TIP3    H242973   7.492   5.913  12.065 -0.5571  0.3810  0.1709
 6260TIP3   OH242974   0.969   6.817  11.958  0.0785  0.2137  0.4075
 6260TIP3    H142975   0.903   6.886  11.954 -0.2520  0.1160  2.7015
 6260TIP3    H242976   1.052   6.865  11.961 -0.0315  0.4310  0.0864
 6261TIP3   OH242977   0.691   1.666  11.082  0.5688 -0.5144 -0.3576
 6261TIP3    H142978   0.685   1.735  11.148  3.4004 -0.7624  0.2981
 6261TIP3    H242979   0.644   1.700  11.006  0.8541  1.6177  0.3707
 6262TIP3   OH242980   5.858   4.390  13.037  0.0803 -0.7255  0.7750
 6262TIP3    H142981   5.891   4.465  13.087  1.6385 -0.3309 -0.7811
 6262TIP3    H242982   5.766   4.382  13.065 -0.7245  2.9050 -0.2418
 6263TIP3   OH242983   3.812   4.867  11.977 -0.2630  0.0567  0.1202
 6263TIP3    H142984   3.789   4.880  11.885 -0.4737 -0.2574  0.1272
 6263TIP3    H242985   3.807   4.955  12.015  1.2230  0.4449 -0.4708
 6264TIP3   OH242986   1.578   2.017  11.631  0.4599 -0.4014  0.0840
 6264TIP3    H142987   1.635   2.081  11.672  0.9841 -1.3308  0.8322
 6264TIP3    H242988   1.633   1.975  11.565 -0.3805  1.1062 -1.6931
 6265TIP3   OH242989   7.406   4.826  11.471 -0.0791  0.1225  0.3313
 6265TIP3    H142990   7.347   4.752  11.461  2.1563 -1.6384 -0.8415
 6265TIP3    H242991   7.446   4.837  11.385  1.4548  1.0628  1.1135
 6266TIP3   OH242992   6.570   1.046  11.148 -0.1147  0.1727 -0.4740
 6266TIP3    H142993   6.484   1.006  11.164 -0.3175  0.8165  0.0406
 6266TIP3    H242994   6.584   1.105  11.221  0.9430 -0.1956 -0.3538
 6267TIP3   OH242995   4.199   3.703  12.456 -0.1183  0.0565  0.3182
 6267TIP3    H142996   4.185   3.794  12.482  1.6832  0.0041  1.6599
 6267TIP3    H242997   4.187   3.704  12.361  0.1108  1.7605  0.2672
 6268TIP3   OH242998   2.437   6.866  11.715 -0.2045 -0.2680  0.3627
 6268TIP3    H142999   2.381   6.789  11.709 -1.6199  0.8322 -1.4866
 6268TIP3    H243000   2.378   6.936  11.742  0.6986  0.5233  0.3146
 6269TIP3   OH243001   3.334   4.481  11.974  0.7183 -0.4549 -0.3639
 6269TIP3    H143002   3.257   4.426  11.961  0.0439  0.3450  0.1366
 6269TIP3    H243003   3.347   4.524  11.890 -0.8195  1.1742  0.1683
 6270TIP3   OH243004   6.676   4.533  12.628  0.1433 -0.1474  0.1294
 6270TIP3    H143005   6.731   4.553  12.552 -0.6376 -0.1456 -0.4365
 6270TIP3    H243006   6.631   4.452  12.605  0.4694 -0.5619  0.9053
 6271TIP3   OH243007   6.077   4.094  12.842  0.0319 -0.6638 -0.0107
 6271TIP3    H143008   5.987   4.074  12.818 -0.3621  0.2619  0.6223
 6271TIP3    H243009   6.073   4.114  12.936  0.6399  0.7567 -0.2566
 6272TIP3   OH243010   2.811   1.535  11.652  0.2898  0.4895  0.4960
 6272TIP3    H143011   2.809   1.589  11.731  0.4105 -0.1491  0.9403
 6272TIP3    H243012   2.720   1.511  11.637  0.2597  0.6562  0.4006
 6273TIP3   OH243013   2.094   7.529  11.119 -0.0046 -0.0407  0.0221
 6273TIP3    H143014   2.050   7.502  11.199  0.9819  1.1689  1.0279
 6273TIP3    H243015   2.028   7.580  11.071 -0.2700  0.1732  0.6058
 6274TIP3   OH243016   1.402   1.810  11.600  0.0534 -0.2242 -0.1773
 6274TIP3    H143017   1.440   1.898  11.601  0.5032 -0.3941  1.5089
 6274TIP3    H243018   1.450   1.763  11.669 -1.7153 -1.1141  0.4998
 6275TIP3   OH243019   1.793   2.749  10.805 -0.3877 -0.0042 -0.9928
 6275TIP3    H143020   1.851   2.806  10.755 -0.7063  0.6818 -0.5898
 6275TIP3    H243021   1.756   2.689  10.739 -0.8894  0.9595 -1.6102
 6276TIP3   OH243022   2.310   2.450  11.650 -0.3113  0.1645  0.3375
 6276TIP3    H143023   2.302   2.424  11.742 -0.2307  0.6106  0.4734
 6276TIP3    H243024   2.334   2.369  11.605  2.9198  0.4918  1.1935
 6277TIP3   OH243025   2.687   3.969  11.712 -0.0428  0.3905  0.6485
 6277TIP3    H143026   2.710   3.925  11.794  1.5339  0.5846  0.3448
 6277TIP3    H243027   2.721   4.058  11.723 -0.8533  0.7606  0.2230
 6278TIP3   OH243028   5.415   4.015  11.014  0.4698 -0.1745 -0.1780
 6278TIP3    H143029   5.462   3.996  11.095 -0.0654  2.9910  1.0234
 6278TIP3    H243030   5.325   3.988  11.031  0.5082 -0.2126 -0.0339
 6279TIP3   OH243031   3.001   6.528  12.223 -0.3148  0.0645 -0.7178
 6279TIP3    H143032   2.934   6.525  12.291 -0.9225  1.0400 -1.2363
 6279TIP3    H243033   3.083   6.514  12.269 -0.7539  0.2703  0.1493
 6280TIP3   OH243034   4.362   1.119  11.834 -0.7127  0.1028 -0.7476
 6280TIP3    H143035   4.385   1.033  11.868  2.1002  0.2572 -1.9892
 6280TIP3    H243036   4.382   1.114  11.740 -1.6191  1.7643 -1.0701
 6281TIP3   OH243037   1.523   1.722  10.818  0.7862 -0.1734  0.1998
 6281TIP3    H143038   1.618   1.727  10.833  0.5605  1.0782  1.4183
 6281TIP3    H243039   1.512   1.750  10.727  1.5562  0.0695  0.1722
 6282TIP3   OH243040   6.600   5.541  10.898 -0.3139  0.1842 -0.3808
 6282TIP3    H143041   6.663   5.590  10.951  0.3526  0.4110 -1.3513
 6282TIP3    H243042   6.645   5.459  10.877 -0.1431  0.5380 -1.4627
 6283TIP3   OH243043   0.660   3.250  12.421  0.1195  0.0831  0.3601
 6283TIP3    H143044   0.607   3.265  12.343  0.1421  1.3214  0.5622
 6283TIP3    H243045   0.604   3.198  12.479 -0.4443  0.4099  0.1149
 6284TIP3   OH243046   2.268   6.182  11.025 -0.1101  0.3042 -0.0925
 6284TIP3    H143047   2.273   6.090  11.050  0.1634 -0.3729 -2.3434
 6284TIP3    H243048   2.353   6.218  11.049  0.1823 -0.3291 -0.1555
 6285TIP3   OH243049   1.970   2.150  13.192 -0.0436 -0.5234 -0.7264
 6285TIP3    H143050   1.938   2.240  13.199 -0.3617 -0.5807 -1.3620
 6285TIP3    H243051   2.057   2.153  13.232 -0.1412  0.0139 -0.5364
 6286TIP3   OH243052   1.495   4.394  12.661 -0.1059 -0.9146  0.2140
 6286TIP3    H143053   1.474   4.375  12.569 -1.7701  0.7488  0.1930
 6286TIP3    H243054   1.506   4.489  12.664  0.5292 -1.0119  1.6291
 6287TIP3   OH243055   7.401   5.444  13.459 -0.6034 -0.5151 -0.1488
 6287TIP3    H143056   7.411   5.352  13.435 -0.0490 -0.2709 -0.9046
 6287TIP3    H243057   7.471   5.489  13.412 -1.0888  0.3439 -0.0835
 6288TIP3   OH243058   1.319   4.521  10.396  0.1967  0.0077 -0.1574
 6288TIP3    H143059   1.267   4.452  10.354  0.9883 -0.5656 -0.2131
 6288TIP3    H243060   1.394   4.475  10.434  1.1611  0.9462 -0.8789
 6289TIP3   OH243061   0.453   4.962  12.478 -0.2203 -0.4056 -0.2721
 6289TIP3    H143062   0.517   5.032  12.479  1.6866 -2.0593  0.2271
 6289TIP3    H243063   0.470   4.915  12.396 -0.7088 -0.9605 -0.0621
 6290TIP3   OH243064   2.723   0.476  11.226  0.1442 -0.4247 -0.7390
 6290TIP3    H143065   2.649   0.514  11.178 -0.6424 -0.9361  0.0531
 6290TIP3    H243066   2.735   0.389  11.187  0.2107 -0.4182 -0.7334
 6291TIP3   OH243067   2.012   4.503  11.651 -0.0925  0.2196  0.0658
 6291TIP3    H143068   1.986   4.429  11.596 -0.3716 -0.1050  0.6259
 6291TIP3    H243069   1.933   4.524  11.701  0.6131 -0.6234  1.6276
 6292TIP3   OH243070   0.535   5.457  11.833 -0.0838 -0.3858  0.5223
 6292TIP3    H143071   0.457   5.442  11.886 -0.8406  1.0783 -0.1106
 6292TIP3    H243072   0.591   5.511  11.888 -0.2219 -0.1049  0.3901
 6293TIP3   OH243073   4.162   3.931  10.459 -0.5223  0.3270  0.0146
 6293TIP3    H143074   4.229   3.999  10.464 -0.7593  0.5288  0.5436
 6293TIP3    H243075   4.196   3.860  10.513 -1.0623  0.7332  0.9332
 6294TIP3   OH243076   7.132   5.532  12.199 -1.0032  0.8075  0.0291
 6294TIP3    H143077   7.106   5.504  12.287  0.4932  0.8973  0.5282
 6294TIP3    H243078   7.174   5.617  12.212 -0.0589  0.4675 -0.6532
 6295TIP3   OH243079   6.373   3.939  13.059  0.1865 -0.0752  0.4094
 6295TIP3    H143080   6.409   3.852  13.074  1.1115  0.3997  1.0159
 6295TIP3    H243081   6.370   3.980  13.146  3.2850  1.8170 -0.1973
 6296TIP3   OH243082   3.966   6.012  12.164 -0.6954 -0.7470  0.0377
 6296TIP3    H143083   3.948   6.010  12.258 -0.0462  2.5541  0.3804
 6296TIP3    H243084   3.886   5.980  12.123 -2.2080  0.6310  1.7319
 6297TIP3   OH243085   0.057   6.684  11.472  0.4939  0.4346 -0.0902
 6297TIP3    H143086   0.090   6.772  11.488  0.6032  0.7253 -1.7411
 6297TIP3    H243087  -0.004   6.694  11.399  0.7491 -0.8915 -0.5159
 6298TIP3   OH243088   7.269   1.646  11.845  0.0959  0.3284  0.3743
 6298TIP3    H143089   7.252   1.627  11.937  0.2487  0.5068  0.4398
 6298TIP3    H243090   7.360   1.674  11.843 -0.8720  3.9699  0.7369
 6299TIP3   OH243091   5.230   4.457  12.398 -0.4291  0.4591 -0.1854
 6299TIP3    H143092   5.288   4.505  12.340  0.8327 -0.7396  0.0389
 6299TIP3    H243093   5.165   4.418  12.340  0.5540 -0.3516 -0.7765
 6300TIP3   OH243094   3.019   5.092  10.681 -0.5193 -0.5890 -0.1229
 6300TIP3    H143095   3.033   5.148  10.757 -0.3403 -1.1343  0.2500
 6300TIP3    H243096   2.991   5.152  10.612  0.4111  0.0653  0.0520
 6301TIP3   OH243097   4.808   3.171  12.839 -0.3419  0.4014  0.8063
 6301TIP3    H143098   4.727   3.140  12.880 -0.9716  0.1911 -0.5381
 6301TIP3    H243099   4.857   3.090  12.820  0.1120  0.5185  1.4599
 6302TIP3   OH243100   4.144   7.457  10.812 -0.0919 -0.5715 -0.4179
 6302TIP3    H143101   4.095   7.475  10.892 -0.6085  1.9695 -1.2330
 6302TIP3    H243102   4.077   7.432  10.748  0.4030 -3.5632  0.0785
 6303TIP3   OH243103   7.118   5.513  11.829  0.2347 -0.6007 -0.6403
 6303TIP3    H143104   7.185   5.576  11.855 -1.4013  0.5433  1.0144
 6303TIP3    H243105   7.118   5.448  11.899 -0.8575 -0.1938 -0.2497
 6304TIP3   OH243106   4.150   5.767  13.218  0.2050  0.3053  0.0570
 6304TIP3    H143107   4.107   5.832  13.163 -1.3184 -0.1778  0.6363
 6304TIP3    H243108   4.187   5.816  13.290  1.4549  0.8366 -0.9083
 6305TIP3   OH243109   4.681   4.142  11.313  0.1129 -0.2874 -0.1011
 6305TIP3    H143110   4.628   4.096  11.378  0.9117 -1.4893 -0.2629
 6305TIP3    H243111   4.619   4.198  11.267 -1.1258 -1.9429 -0.5606
 6306TIP3   OH243112   2.985   1.414  11.060  0.1814 -0.3201  0.0961
 6306TIP3    H143113   3.055   1.351  11.046  1.1729  0.3619  1.7661
 6306TIP3    H243114   2.930   1.374  11.127  0.1417  0.0497  0.2884
 6307TIP3   OH243115   2.788   0.251  11.058  0.5607 -0.5430 -0.1433
 6307TIP3    H143116   2.791   0.211  10.971  0.4493 -2.1370  0.5511
 6307TIP3    H243117   2.874   0.234  11.095  1.6118  2.4661 -0.8509
 6308TIP3   OH243118   6.498   1.954  11.895  0.2874  0.4462  0.1995
 6308TIP3    H143119   6.463   1.997  11.973 -0.3537  1.1104 -0.4495
 6308TIP3    H243120   6.547   2.022  11.850  0.0463  0.2526 -0.3587
 6309TIP3   OH243121   5.171   1.002  11.391 -0.3586 -0.2348 -0.0891
 6309TIP3    H143122   5.148   0.911  11.372  1.1239 -0.6337 -0.0832
 6309TIP3    H243123   5.239   0.996  11.458  1.0183  0.7936 -1.3522
 6310TIP3   OH243124   4.339   0.822  11.255  0.3065  0.9115  0.3644
 6310TIP3    H143125   4.323   0.729  11.269  1.3528  0.7562  0.5705
 6310TIP3    H243126   4.401   0.826  11.183  0.9982  1.4028  0.9704
 6311TIP3   OH243127   1.685   6.504  11.294 -0.2856  0.2745  0.4014
 6311TIP3    H143128   1.656   6.592  11.271  0.3762  0.3850 -0.0095
 6311TIP3    H243129   1.665   6.450  11.217 -1.0408 -0.0254  0.7895
 6312TIP3   OH243130   6.453   3.894  11.758 -0.1608 -0.4106  0.1102
 6312TIP3    H143131   6.386   3.829  11.778 -0.8256  0.6454  1.5231
 6312TIP3    H243132   6.512   3.892  11.834 -0.4806  0.9525  0.4236
 6313TIP3   OH243133   6.657   1.821  11.633  0.4379 -1.0109 -0.1426
 6313TIP3    H143134   6.618   1.782  11.554  0.0084 -1.8397  0.4621
 6313TIP3    H243135   6.611   1.779  11.705 -0.5706  1.1276  0.5684
 6314TIP3   OH243136   0.666   4.746  13.014  0.2436  0.8312  0.1951
 6314TIP3    H143137   0.730   4.724  13.081 -0.3903  1.1541  0.9203
 6314TIP3    H243138   0.642   4.837  13.033 -1.3255  0.3465  0.7063
 6315TIP3   OH243139   3.374   5.861  11.918 -0.3075  0.2914  0.1488
 6315TIP3    H143140   3.338   5.854  12.006 -0.9625 -0.2090 -0.1463
 6315TIP3    H243141   3.383   5.770  11.888 -1.7366  0.4660 -0.9348
 6316TIP3   OH243142   2.324   4.288  12.198  0.6627 -0.1159  0.1138
 6316TIP3    H143143   2.362   4.279  12.110 -1.9038 -0.7522 -1.0322
 6316TIP3    H243144   2.350   4.208  12.244  0.0703 -0.9282 -0.9176
 6317TIP3   OH243145   6.717   3.778  13.867  0.7423 -0.1315  0.3711
 6317TIP3    H143146   6.653   3.777  13.796  1.9142 -0.1031 -0.7227
 6317TIP3    H243147   6.759   3.864  13.861  0.5443  0.0432  1.3933
 6318TIP3   OH243148   5.834   3.614  12.260 -0.2862  0.0344 -0.1352
 6318TIP3    H143149   5.797   3.659  12.184  0.7409 -1.1548 -1.3994
 6318TIP3    H243150   5.758   3.574  12.304 -0.9029  0.8295 -0.4537
 6319TIP3   OH243151   6.654   6.618  12.564  0.1070  0.5277  0.1271
 6319TIP3    H143152   6.604   6.684  12.611  1.7615  2.2247 -0.3986
 6319TIP3    H243153   6.704   6.667  12.499 -0.3949 -1.4936 -1.9321
 6320TIP3   OH243154   1.144   0.878  12.464 -0.5380 -0.1974  0.3124
 6320TIP3    H143155   1.093   0.910  12.390  0.6108  0.1948 -0.3338
 6320TIP3    H243156   1.081   0.874  12.537 -0.8859  3.0659  0.3320
 6321TIP3   OH243157   2.593   2.902  11.675 -0.1126  0.1855 -0.1449
 6321TIP3    H143158   2.539   2.856  11.739  0.3907  0.0857  0.2146
 6321TIP3    H243159   2.683   2.878  11.698  0.1240  0.9158 -0.2894
 6322TIP3   OH243160   4.510   5.889  12.050 -0.1053 -0.1408 -0.0199
 6322TIP3    H143161   4.471   5.882  11.963  0.0235  2.0622 -0.2993
 6322TIP3    H243162   4.573   5.817  12.053  0.0920 -0.1032 -1.8533
 6323TIP3   OH243163   0.888   0.098  11.743  0.6301 -0.1199 -0.2572
 6323TIP3    H143164   0.844   0.020  11.710 -2.5598  2.7575 -4.0052
 6323TIP3    H243165   0.827   0.135  11.807  0.3795  0.9352 -1.0709
 6324TIP3   OH243166   5.382   3.526  10.711 -0.1801  0.0996 -0.4161
 6324TIP3    H143167   5.312   3.496  10.653 -0.9929  1.3884 -0.1305
 6324TIP3    H243168   5.373   3.621  10.713 -0.1399  0.1029  1.7776
 6325TIP3   OH243169   1.789   3.990  10.707 -0.4475  0.5491 -0.2512
 6325TIP3    H143170   1.861   3.990  10.645 -1.3818  1.0809 -1.3686
 6325TIP3    H243171   1.827   4.019  10.790  0.7693  0.0290 -0.6188
 6326TIP3   OH243172   7.552   1.597  10.839 -0.3016 -0.5765 -0.2459
 6326TIP3    H143173   7.640   1.636  10.843 -1.1112  1.2366  2.3692
 6326TIP3    H243174   7.502   1.656  10.783 -0.2789 -0.6756 -0.3710
 6327TIP3   OH243175   7.409   3.477  12.170  0.1539  0.4629  0.3347
 6327TIP3    H143176   7.350   3.469  12.095  0.8222  0.8820 -0.2401
 6327TIP3    H243177   7.350   3.493  12.245 -0.4705  0.6957 -0.1985
 6328TIP3   OH243178   4.023   4.495  11.786  0.0590  0.2986  0.1320
 6328TIP3    H143179   4.044   4.487  11.879  1.3109 -2.1915 -0.2701
 6328TIP3    H243180   4.036   4.407  11.751 -0.7925  1.0679 -2.3427
 6329TIP3   OH243181   1.944   0.498  10.497  0.2789  0.2702  0.1094
 6329TIP3    H143182   1.959   0.404  10.490  0.3430  0.2263  0.7445
 6329TIP3    H243183   1.861   0.513  10.452  0.4123 -0.0478 -0.2401
 6330TIP3   OH243184   5.196   2.149  12.670  0.2871 -0.5263 -0.0899
 6330TIP3    H143185   5.135   2.075  12.672  0.6595 -0.8775 -1.1323
 6330TIP3    H243186   5.173   2.197  12.591  1.2410 -0.5617 -0.3922
 6331TIP3   OH243187   4.850   5.794  11.404 -0.1511 -0.2300 -0.6877
 6331TIP3    H143188   4.821   5.781  11.494  0.1024 -0.4681 -0.6368
 6331TIP3    H243189   4.937   5.835  11.411 -0.8342  1.3046 -0.8486
 6332TIP3   OH243190   2.208   1.863  13.286 -0.0376  0.7688 -0.1230
 6332TIP3    H143191   2.213   1.776  13.325 -0.9949  1.2903  1.2432
 6332TIP3    H243192   2.179   1.920  13.358  0.0153  2.1157 -1.1293
 6333TIP3   OH243193   7.350   0.654  12.828 -0.0260  0.8972  0.0638
 6333TIP3    H143194   7.432   0.654  12.779  0.3255  2.3573  0.5952
 6333TIP3    H243195   7.323   0.746  12.828 -0.0183  0.9625  2.5936
 6334TIP3   OH243196   1.480   1.796  10.562  0.2748  0.5324  0.1621
 6334TIP3    H143197   1.428   1.868  10.525 -0.8030 -0.1828  0.2426
 6334TIP3    H243198   1.457   1.720  10.509 -0.5059 -0.2906  1.6244
 6335TIP3   OH243199   2.376   0.390  11.988  0.0758 -0.6204 -0.0925
 6335TIP3    H143200   2.393   0.313  12.042 -1.5027 -2.3035 -1.7905
 6335TIP3    H243201   2.281   0.403  11.993 -0.2252 -1.1333 -2.6570
 6336TIP3   OH243202   3.722   0.767  11.666 -0.4146  0.1046 -0.2018
 6336TIP3    H143203   3.726   0.762  11.762  1.6827 -0.6827 -0.2752
 6336TIP3    H243204   3.671   0.690  11.641 -0.5079  0.0115  0.2483
 6337TIP3   OH243205   1.140   1.362  13.097 -0.5637 -0.4528 -0.1148
 6337TIP3    H143206   1.057   1.344  13.052 -0.2289  0.2858 -1.0610
 6337TIP3    H243207   1.198   1.291  13.069 -1.0301 -1.3157  1.0270
 6338TIP3   OH243208   0.962   0.119  11.046 -0.1844  0.1592 -0.0976
 6338TIP3    H143209   0.947   0.153  11.135  1.4239 -0.1814  0.3306
 6338TIP3    H243210   0.974   0.025  11.058  2.7582  0.4282 -0.2538
 6339TIP3   OH243211   2.703   2.631  12.180 -0.7557  0.2881  0.4605
 6339TIP3    H143212   2.656   2.667  12.105 -1.7850  0.1515  1.0271
 6339TIP3    H243213   2.730   2.708  12.231 -0.8259  0.3454  0.4104
 6340TIP3   OH243214   1.916   0.247  10.378 -0.0468 -0.2651  0.1633
 6340TIP3    H143215   1.849   0.196  10.331 -2.3356  3.2585 -0.7363
 6340TIP3    H243216   1.994   0.241  10.322 -0.8493 -1.1284 -0.8991
 6341TIP3   OH243217   3.358   3.043  11.720 -0.0373 -0.5002 -0.6463
 6341TIP3    H143218   3.279   3.034  11.773  0.0602 -0.6442 -0.5272
 6341TIP3    H243219   3.427   3.002  11.771  0.0268 -0.7730 -0.9490
 6342TIP3   OH243220   4.716   4.942  11.038  0.5584  0.4233 -0.2600
 6342TIP3    H143221   4.662   5.021  11.044  1.7538  1.5675 -3.0344
 6342TIP3    H243222   4.781   4.962  10.970  0.1211 -3.4219 -2.0601
 6343TIP3   OH243223   7.418   6.518  11.096 -0.2761 -0.0770 -0.3923
 6343TIP3    H143224   7.458   6.480  11.017  0.8644 -0.7484  0.4909
 6343TIP3    H243225   7.362   6.448  11.130 -3.7363  1.3685 -2.5349
 6344TIP3   OH243226   4.501   4.396  12.365 -0.2309 -0.1273  0.4746
 6344TIP3    H143227   4.409   4.371  12.370 -0.9179  2.1529  0.1861
 6344TIP3    H243228   4.543   4.346  12.435 -1.6438 -1.2742  0.5517
 6345TIP3   OH243229   2.859   2.889  10.236 -0.3235 -0.3266 -0.5146
 6345TIP3    H143230   2.894   2.931  10.315 -1.9368  1.1475 -0.5209
 6345TIP3    H243231   2.828   2.803  10.266 -0.4124 -0.0089  0.3444
 6346TIP3   OH243232   5.157   2.095  10.820 -0.1390 -0.2554  0.4195
 6346TIP3    H143233   5.220   2.023  10.817  1.4737  1.0472  1.3591
 6346TIP3    H243234   5.079   2.056  10.860  0.3330 -1.7221 -0.0081
 6347TIP3   OH243235   3.568   1.226  10.882  0.3400  0.3243 -0.0609
 6347TIP3    H143236   3.567   1.237  10.977 -0.8355 -0.4034  0.0346
 6347TIP3    H243237   3.660   1.238  10.857  0.4362  1.9301  0.9698
 6348TIP3   OH243238   0.270   6.991  12.036  0.4784 -0.1623 -0.0156
 6348TIP3    H143239   0.204   6.935  11.994 -0.0707  0.5179 -0.0695
 6348TIP3    H243240   0.353   6.963  11.996  0.1121 -0.3615 -0.6614
 6349TIP3   OH243241   4.015   4.985  12.575  0.6833  0.5032 -0.1829
 6349TIP3    H143242   3.936   4.943  12.541  0.5957  0.2683  0.3095
 6349TIP3    H243243   4.087   4.929  12.544  0.4627 -1.3323  2.2850
 6350TIP3   OH243244   5.122   4.156  12.603 -0.6052  0.2581 -0.2076
 6350TIP3    H143245   5.108   4.242  12.643 -3.1012 -0.2540  0.2004
 6350TIP3    H243246   5.190   4.116  12.657  0.4594  1.8676 -0.2792
 6351TIP3   OH243247   6.196   3.058  11.650  0.5748 -0.0708 -0.0873
 6351TIP3    H143248   6.171   2.979  11.602  1.1080  0.4014 -1.1575
 6351TIP3    H243249   6.292   3.051  11.657  0.5695  0.2240  0.2808
 6352TIP3   OH243250   6.526   4.132  11.982 -0.1784 -0.1463  0.2556
 6352TIP3    H143251   6.486   4.132  12.069  1.4533  0.3581  1.0551
 6352TIP3    H243252   6.569   4.047  11.976  0.3968  0.1333  0.2994
 6353TIP3   OH243253   3.073   0.159  10.899 -0.4956 -0.1645  0.0722
 6353TIP3    H143254   3.056   0.207  10.818 -0.6520  0.3901  0.4230
 6353TIP3    H243255   3.090   0.228  10.964 -0.0380 -0.6102  0.4356
 6354TIP3   OH243256   0.577   0.477  10.708 -0.3191  0.3602  0.3915
 6354TIP3    H143257   0.542   0.555  10.666  0.1666  0.3343 -0.0639
 6354TIP3    H243258   0.509   0.452  10.771  0.0219  1.8249  1.3913
 6355TIP3   OH243259   0.503   7.187  11.250  0.2031 -0.0921 -0.3406
 6355TIP3    H143260   0.429   7.237  11.284  0.3297 -0.5092  0.5879
 6355TIP3    H243261   0.566   7.253  11.222  0.5076  0.3098  1.1725
 6356TIP3   OH243262   2.165   6.108  12.630  0.0551 -0.7189 -0.1913
 6356TIP3    H143263   2.166   6.035  12.568 -1.7028 -0.7381 -0.2299
 6356TIP3    H243264   2.175   6.066  12.716 -1.1357 -1.0561 -0.1971
 6357TIP3   OH243265   1.850   6.379  10.988  0.5404 -0.1736 -0.2430
 6357TIP3    H143266   1.772   6.360  11.041  0.5167  1.8466  0.5440
 6357TIP3    H243267   1.817   6.381  10.898 -0.7314  2.0844  0.1733
 6358TIP3   OH243268   5.954   5.228  11.264  0.0178  0.4627  0.1472
 6358TIP3    H143269   6.034   5.215  11.213  0.1953  0.4925  0.4133
 6358TIP3    H243270   5.883   5.214  11.202  0.2313  1.1123 -0.2547
 6359TIP3   OH243271   2.653   0.134  11.993 -0.4749 -0.0681  0.4164
 6359TIP3    H143272   2.579   0.169  12.044 -0.2022 -0.7433  1.3026
 6359TIP3    H243273   2.679   0.206  11.936 -1.2707  0.4660  0.7056
 6360TIP3   OH243274   3.343   7.400  12.194  0.2882 -0.3289  0.8168
 6360TIP3    H143275   3.352   7.449  12.276 -2.2076  0.9313  0.4381
 6360TIP3    H243276   3.329   7.309  12.222 -2.5289  0.3549  2.0042
 6361TIP3   OH243277   3.548   3.403  11.425 -0.3988  0.0010  0.4218
 6361TIP3    H143278   3.641   3.412  11.447 -0.2910 -1.5977  0.8102
 6361TIP3    H243279   3.518   3.492  11.409  0.9591  0.6595  1.3008
 6362TIP3   OH243280   3.466   2.048  12.808  0.6241 -0.3582  0.2796
 6362TIP3    H143281   3.541   2.095  12.771 -0.0936  0.8578  0.3243
 6362TIP3    H243282   3.492   1.955  12.804  1.5752 -0.0670 -0.9456
 6363TIP3   OH243283   6.477   1.837  11.077 -0.0911 -0.5480 -0.2344
 6363TIP3    H143284   6.414   1.895  11.120 -1.4548 -0.1627 -2.5669
 6363TIP3    H243285   6.543   1.820  11.144 -1.1884  1.3020  1.4514
 6364TIP3   OH243286   0.099   2.503  12.443 -0.4315 -0.0892 -0.9373
 6364TIP3    H143287   0.015   2.489  12.487  0.2961  0.2913  0.6469
 6364TIP3    H243288   0.094   2.449  12.365 -0.9955 -2.5246  0.6545
 6365TIP3   OH243289   4.456   1.551  10.967  0.3592  0.4152  0.1266
 6365TIP3    H143290   4.379   1.593  11.007  0.3309  0.4197  0.0685
 6365TIP3    H243291   4.513   1.624  10.944 -0.0248  0.4781 -0.6606
 6366TIP3   OH243292   4.567   2.300  10.896  0.2627 -0.6763 -0.4617
 6366TIP3    H143293   4.489   2.297  10.840 -1.1363 -2.6478  1.4388
 6366TIP3    H243294   4.559   2.384  10.942 -1.2424 -1.1988  0.3121
 6367TIP3   OH243295   0.216   0.014  11.505 -0.0826  0.1543  0.3169
 6367TIP3    H143296   0.196   0.048  11.593  2.8440 -0.5919  1.3888
 6367TIP3    H243297   0.291   0.066  11.476  0.1464 -0.8545 -0.9547
 6368TIP3   OH243298   0.334   2.813  10.972 -0.0942  0.3810 -0.1953
 6368TIP3    H143299   0.368   2.880  10.913  0.3533 -0.1155 -0.5150
 6368TIP3    H243300   0.372   2.835  11.057 -2.1737  2.1648  0.3648
 6369TIP3   OH243301   3.891   4.853  13.484 -0.1363  0.3151 -0.0739
 6369TIP3    H143302   3.972   4.807  13.502 -0.2718 -0.1443 -0.6026
 6369TIP3    H243303   3.908   4.901  13.402 -0.3536  0.3272 -0.1131
 6370TIP3   OH243304   5.951   2.693  10.841  0.2752  0.5529 -0.2548
 6370TIP3    H143305   5.887   2.668  10.775 -0.2640  0.6585  0.2293
 6370TIP3    H243306   6.029   2.641  10.819  0.1382  0.6630 -1.0352
 6371TIP3   OH243307   5.289   2.966  11.283  0.0389 -0.4819 -0.8133
 6371TIP3    H143308   5.223   2.898  11.285  0.8536 -1.3068  1.2415
 6371TIP3    H243309   5.254   3.035  11.340  0.2669 -0.2499 -0.9520
 6372TIP3   OH243310   0.425   3.943  12.339  0.9618 -0.3852  0.6665
 6372TIP3    H143311   0.356   3.977  12.396  2.1250  1.6646  0.9627
 6372TIP3    H243312   0.505   3.953  12.390  1.8773  0.3651 -0.8525
 6373TIP3   OH243313   1.562   4.788  12.369  1.2091  0.6366  0.7481
 6373TIP3    H143314   1.593   4.843  12.297  0.5670  0.7313  0.5382
 6373TIP3    H243315   1.539   4.850  12.438 -0.2122  0.6886  0.2424
 6374TIP3   OH243316   2.159   6.601  10.775 -0.4522 -0.1625 -0.2457
 6374TIP3    H143317   2.253   6.607  10.792 -0.4422 -0.5410 -0.1671
 6374TIP3    H243318   2.117   6.620  10.859 -0.4310 -0.6637 -0.1199
 6375TIP3   OH243319   3.543   3.810  11.147 -0.4481 -0.1408  0.0141
 6375TIP3    H143320   3.604   3.858  11.091  1.1086 -0.5963  1.2354
 6375TIP3    H243321   3.490   3.878  11.189 -0.2560  0.3231 -0.4850
 6376TIP3   OH243322   7.490   5.931  11.451 -0.2443 -0.4189  0.0854
 6376TIP3    H143323   7.579   5.939  11.485  0.0354 -0.9969 -0.4847
 6376TIP3    H243324   7.480   6.006  11.392 -0.0006 -0.5534 -0.1297
 6377TIP3   OH243325   3.809   5.848  11.704  0.0272  0.0385  0.2908
 6377TIP3    H143326   3.831   5.929  11.658  0.6910 -0.1302  0.3015
 6377TIP3    H243327   3.844   5.779  11.648  1.4820 -0.1477  1.3573
 6378TIP3   OH243328   6.202   1.825  11.511  0.0211 -0.5754 -0.1251
 6378TIP3    H143329   6.195   1.867  11.425  1.5342 -1.1369 -0.5654
 6378TIP3    H243330   6.169   1.890  11.573  2.2111  1.2913 -0.7894
 6379TIP3   OH243331   6.103   0.420  10.893 -0.1475  0.2017 -0.1162
 6379TIP3    H143332   6.051   0.379  10.823  0.4320 -1.0945  0.1765
 6379TIP3    H243333   6.134   0.346  10.945  0.7555  1.0520  0.5762
 6380TIP3   OH243334   1.634   1.975  12.212  0.3753 -0.5172 -0.0175
 6380TIP3    H143335   1.727   1.968  12.191 -0.0579 -1.1843 -1.9572
 6380TIP3    H243336   1.608   1.887  12.238  0.0768 -0.5871 -0.5295
 6381TIP3   OH243337   0.307   4.343  12.261  0.0754  0.1404  0.0845
 6381TIP3    H143338   0.343   4.259  12.233 -0.9487 -0.4290  0.4346
 6381TIP3    H243339   0.330   4.404  12.191  0.5935 -0.4943 -0.3003
 6382TIP3   OH243340   2.359   1.026  10.367  0.3526  0.0285  0.2851
 6382TIP3    H143341   2.385   1.080  10.292 -0.3722  0.7576  0.5512
 6382TIP3    H243342   2.419   1.051  10.437  2.7857 -2.4904 -0.6936
 6383TIP3   OH243343   7.073   6.792  11.854  0.0247  0.0579  0.1362
 6383TIP3    H143344   7.098   6.863  11.794 -2.1020  0.4510 -0.3533
 6383TIP3    H243345   7.153   6.774  11.903  1.0394  1.7479 -0.7760
 6384TIP3   OH243346   5.071   1.376  11.065 -0.2486 -0.2012 -0.7260
 6384TIP3    H143347   5.093   1.419  11.148  1.0829 -0.9893 -0.6494
 6384TIP3    H243348   5.124   1.421  10.999 -1.5431  0.6389 -1.2399
 6385TIP3   OH243349   0.413   3.489  11.490 -0.6058 -0.1655  0.3067
 6385TIP3    H143350   0.496   3.443  11.475 -0.3483  0.5283 -0.5330
 6385TIP3    H243351   0.434   3.556  11.555 -0.8244 -0.8068  1.0473
 6386TIP3   OH243352   7.186   7.185  13.091 -0.2809 -0.3640 -0.1266
 6386TIP3    H143353   7.257   7.130  13.124  0.1656  1.0530  1.4395
 6386TIP3    H243354   7.204   7.271  13.129 -1.1505  0.7875 -2.2032
 6387TIP3   OH243355   3.900   2.470  13.375 -0.7061 -0.0585 -0.3988
 6387TIP3    H143356   3.895   2.531  13.301 -0.9671  0.2592 -0.1220
 6387TIP3    H243357   3.993   2.449  13.382 -0.2792  1.9384  0.8050
 6388TIP3   OH243358   7.611   4.580  13.256  0.3829 -1.1429  0.4540
 6388TIP3    H143359   7.562   4.650  13.299  0.1988  0.2024 -1.8301
 6388TIP3    H243360   7.562   4.500  13.276 -2.3622  0.0470 -1.1135
 6389TIP3   OH243361   3.520   1.348  11.195  0.3734 -0.2436  0.2994
 6389TIP3    H143362   3.472   1.400  11.259 -1.0984  0.1019 -1.0012
 6389TIP3    H243363   3.560   1.413  11.137  1.3407 -0.5509  0.6170
 6390TIP3   OH243364   5.585   0.628  11.915 -0.4905 -0.1005  0.0999
 6390TIP3    H143365   5.498   0.661  11.937 -0.9100 -1.4149  0.5398
 6390TIP3    H243366   5.634   0.631  11.997  0.0676  1.1136 -0.2553
 6391TIP3   OH243367   5.253   2.890  12.355  0.2412  0.3366 -0.3962
 6391TIP3    H143368   5.183   2.825  12.354 -0.0047  0.5985 -1.2729
 6391TIP3    H243369   5.326   2.847  12.309  1.4422 -0.7340  2.2990
 6392TIP3   OH243370   0.881   0.463  11.122  0.5747  0.0289 -0.2517
 6392TIP3    H143371   0.841   0.537  11.076  1.6811  0.7285 -0.1088
 6392TIP3    H243372   0.900   0.400  11.052 -1.0626 -0.4891 -0.2882
 6393TIP3   OH243373   0.737   3.615  10.992  0.2444  0.2301  0.2418
 6393TIP3    H143374   0.729   3.710  10.982  0.0915  0.1633 -0.3015
 6393TIP3    H243375   0.692   3.579  10.915  0.1539 -0.2851  0.5336
 6394TIP3   OH243376   2.381   7.156  11.325 -0.1900 -0.3979 -0.4113
 6394TIP3    H143377   2.288   7.138  11.316 -0.2279 -0.8874  0.8024
 6394TIP3    H243378   2.384   7.247  11.355 -0.4821 -1.2445  2.5245
 6395TIP3   OH243379   5.328   2.032  13.034  0.8299 -0.0351 -0.2470
 6395TIP3    H143380   5.335   2.118  13.074  3.1252  0.7005 -2.0142
 6395TIP3    H243381   5.265   1.985  13.088 -0.8214  2.8610  0.5131
 6396TIP3   OH243382   0.678   6.676  17.832 -0.2583 -0.1481 -0.3641
 6396TIP3    H143383   0.661   6.716  17.917 -1.4742  0.5920 -0.9348
 6396TIP3    H243384   0.757   6.623  17.846  1.2587  2.1947  0.4916
 6397TIP3   OH243385   4.219   4.177  10.743  0.2741 -0.3205 -0.3212
 6397TIP3    H143386   4.285   4.110  10.726  1.1585 -0.2049  2.2015
 6397TIP3    H243387   4.263   4.260  10.723  1.6234 -0.1185  2.8543
 6398TIP3   OH243388   1.194   0.529  10.996 -0.1860 -0.8204  0.6812
 6398TIP3    H143389   1.269   0.550  10.941  0.0600  0.3305  1.4076
 6398TIP3    H243390   1.125   0.505  10.935  0.6250 -1.4123 -0.0242
 6399TIP3   OH243391   3.036   3.174  11.858 -0.3899  0.4985  0.2284
 6399TIP3    H143392   2.968   3.234  11.887  1.3265  3.6202 -1.6819
 6399TIP3    H243393   3.118   3.213  11.890  0.7793 -1.0927 -0.6918
 6400TIP3   OH243394   1.895   2.122  12.012 -0.2647 -0.7621 -0.5091
 6400TIP3    H143395   1.955   2.152  12.080  0.6760  1.1425 -2.0661
 6400TIP3    H243396   1.835   2.195  11.997 -3.5479 -2.8043  1.4084
 6401TIP3   OH243397   1.085   5.814  12.073  0.2469  0.1682  0.3769
 6401TIP3    H143398   1.035   5.768  12.140  0.4108  0.3058  0.5940
 6401TIP3    H243399   1.020   5.864  12.024 -0.0496 -0.9457 -0.3956
 6402TIP3   OH243400   6.736   0.278  11.942  0.0611  0.8373  0.1473
 6402TIP3    H143401   6.809   0.227  11.907  0.3959  0.5822  1.1799
 6402TIP3    H243402   6.771   0.367  11.948 -0.0625  0.9203 -0.3449
 6403TIP3   OH243403   0.138   0.255  13.365  0.2578  0.0095 -0.1044
 6403TIP3    H143404   0.220   0.303  13.378  0.1350  0.2694 -0.2936
 6403TIP3    H243405   0.070   0.317  13.390  0.0669  0.1404 -0.9460
 6404TIP3   OH243406   6.719   6.783  11.558  0.1322 -0.3436  0.0547
 6404TIP3    H143407   6.745   6.872  11.583 -1.6742  0.2770 -0.1306
 6404TIP3    H243408   6.802   6.735  11.553  1.1392  1.2556  0.3947
 6405TIP3   OH243409   5.640   6.368  11.184  0.1311 -0.7195  0.0732
 6405TIP3    H143410   5.578   6.305  11.220 -1.4435  0.6890 -0.0872
 6405TIP3    H243411   5.617   6.375  11.091  0.3920 -0.0254  0.0535
 6406TIP3   OH243412   6.145   5.962  11.225  0.2682  0.2979  0.3319
 6406TIP3    H143413   6.222   5.910  11.247  2.5922  2.9074 -1.0242
 6406TIP3    H243414   6.133   5.948  11.131 -0.9165 -0.0094  0.5119
 6407TIP3   OH243415   3.833   5.557  13.152 -0.3738  0.3058  0.8476
 6407TIP3    H143416   3.927   5.540  13.161 -0.1937 -0.7935 -1.8950
 6407TIP3    H243417   3.791   5.477  13.181 -0.5449  0.9782  2.5507
 6408TIP3   OH243418   1.952   6.358  11.730 -0.0962  0.6185  0.6859
 6408TIP3    H143419   1.950   6.303  11.808  1.8799 -1.2888 -0.5060
 6408TIP3    H243420   2.045   6.379  11.717 -0.3531  0.7868 -1.2033
 6409TIP3   OH243421   4.004   2.715  11.344 -0.0349  0.3830  0.2052
 6409TIP3    H143422   3.948   2.791  11.326 -1.2278 -0.3370  0.7246
 6409TIP3    H243423   3.996   2.702  11.439 -0.7376 -1.0421 -0.0285
 6410TIP3   OH243424   0.140   0.833  10.653 -0.2218 -0.0967  0.0642
 6410TIP3    H143425   0.142   0.894  10.579 -1.6371 -0.0834  0.0028
 6410TIP3    H243426   0.047   0.817  10.668  0.0578 -0.4838  1.5349
 6411TIP3   OH243427   6.495   1.122  11.649 -0.1393 -0.2632 -0.5797
 6411TIP3    H143428   6.479   1.216  11.660  1.5551 -0.0894  0.7516
 6411TIP3    H243429   6.586   1.116  11.622  0.1059 -1.5674  0.4435
 6412TIP3   OH243430   0.849   3.367  13.025 -0.0266 -0.0648 -0.2208
 6412TIP3    H143431   0.831   3.275  13.045 -0.3621 -0.0189 -0.3083
 6412TIP3    H243432   0.943   3.370  13.007 -0.2861 -0.6988 -1.8433
 6413TIP3   OH243433   1.644   3.023  12.085 -0.5444  0.1853  0.0867
 6413TIP3    H143434   1.556   3.055  12.101  0.0667  1.2681  1.5116
 6413TIP3    H243435   1.700   3.076  12.142  1.0786 -0.1899 -1.0804
 6414TIP3   OH243436   0.697   4.613  11.694  0.5170  0.5331  0.7778
 6414TIP3    H143437   0.629   4.597  11.759  1.1638  0.3788  1.4310
 6414TIP3    H243438   0.656   4.670  11.629 -0.9412 -1.4130 -0.0815
 6415TIP3   OH243439   6.932   5.520  10.760  0.3976  0.0430  0.5389
 6415TIP3    H143440   6.845   5.486  10.742  1.1045 -1.6592  0.0798
 6415TIP3    H243441   6.958   5.477  10.842  0.9501  0.1978  0.4523
 6416TIP3   OH243442   3.014   2.202  12.017  0.0818  0.1567 -0.2231
 6416TIP3    H143443   2.965   2.284  12.013  1.0507  0.7659  0.1121
 6416TIP3    H243444   3.025   2.176  11.926  0.3525  0.7641 -0.3728
 6417TIP3   OH243445   5.224   5.709  11.289  0.9464  0.2933 -0.0458
 6417TIP3    H143446   5.244   5.616  11.280  0.9521  0.2979 -0.0843
 6417TIP3    H243447   5.207   5.738  11.199 -3.8441 -0.7271  0.2612
 6418TIP3   OH243448   7.152   5.131  11.039  0.0624 -0.2844 -0.3246
 6418TIP3    H143449   7.188   5.042  11.037 -0.3425 -0.5340  1.4535
 6418TIP3    H243450   7.061   5.120  11.012 -0.4609 -0.7352  1.4338
 6419TIP3   OH243451   7.645   2.854  11.372 -0.2546  0.0781 -0.1861
 6419TIP3    H143452   7.724   2.897  11.406  0.2474 -1.0263  0.0768
 6419TIP3    H243453   7.632   2.778  11.429 -0.4027 -0.8339 -1.3899
 6420TIP3   OH243454   1.283   2.689  10.658  0.0892 -0.2625  0.1220
 6420TIP3    H143455   1.311   2.654  10.742 -1.7975  0.5404  1.1538
 6420TIP3    H243456   1.203   2.642  10.637 -0.7770  1.1902 -0.0099
 6421TIP3   OH243457   1.117   0.500  11.500 -0.1449 -0.8982  0.1273
 6421TIP3    H143458   1.212   0.485  11.508  0.0849  0.7742  0.8640
 6421TIP3    H243459   1.079   0.412  11.510  1.3174 -1.6147 -0.2611
 6422TIP3   OH243460   6.594   3.871  10.626  0.3262  0.4256  0.7215
 6422TIP3    H143461   6.596   3.938  10.557 -0.8992  1.0428  1.2578
 6422TIP3    H243462   6.672   3.890  10.679  0.1587  1.2402  0.6869
 6423TIP3   OH243463   4.321   0.823  12.135 -0.1493  0.2656  0.3856
 6423TIP3    H143464   4.391   0.885  12.158 -0.3271  0.6319 -0.0467
 6423TIP3    H243465   4.247   0.851  12.188 -0.5446  1.0807 -0.5526
 6424TIP3   OH243466   7.575   1.156  12.971  0.2943  0.1247 -0.7293
 6424TIP3    H143467   7.571   1.214  13.046  2.3990 -0.8112  0.1881
 6424TIP3    H243468   7.623   1.205  12.905  0.9215 -0.0850 -0.4313
 6425TIP3   OH243469   6.214   1.734  11.018 -0.0324  0.4408 -0.3513
 6425TIP3    H143470   6.297   1.779  11.026 -0.6069  2.1613 -2.9019
 6425TIP3    H243471   6.234   1.656  10.966 -0.0342  1.0529 -1.2956
 6426TIP3   OH243472   0.734   7.227  12.462 -0.2374 -0.7654  0.2120
 6426TIP3    H143473   0.740   7.170  12.539 -0.9420 -1.2239 -0.0685
 6426TIP3    H243474   0.641   7.246  12.453 -0.0879 -0.1860 -0.1516
 6427TIP3   OH243475   7.298   0.967  12.603  0.5118 -0.0910 -0.0416
 6427TIP3    H143476   7.273   0.928  12.687  0.6013 -2.1093 -0.9074
 6427TIP3    H243477   7.279   1.061  12.614  0.5299 -0.2917  2.2136
 6428TIP3   OH243478   1.204   2.954  12.097 -0.7791 -0.4159  0.4958
 6428TIP3    H143479   1.151   2.949  12.177 -0.9163  1.9100  0.6296
 6428TIP3    H243480   1.274   3.015  12.118 -0.7598  0.1712 -1.1094
 6429TIP3   OH243481   3.284   2.993  13.125  0.4038 -0.6104 -0.6075
 6429TIP3    H143482   3.236   3.030  13.200 -0.1485 -1.6688 -0.4273
 6429TIP3    H243483   3.295   3.067  13.066  1.8997  0.5533  1.0203
 6430TIP3   OH243484   5.047   6.254  12.615  0.0914 -0.6677  0.0630
 6430TIP3    H143485   5.097   6.324  12.656 -1.2299 -1.2331  2.8379
 6430TIP3    H243486   5.107   6.180  12.613  0.4274 -0.4048  0.2256
 6431TIP3   OH243487   2.451   0.864  11.206  0.4930  0.3689  0.0221
 6431TIP3    H143488   2.440   0.911  11.124 -1.5931  2.3770  1.3175
 6431TIP3    H243489   2.494   0.926  11.265 -1.1860  0.3130  1.4115
 6432TIP3   OH243490   2.322   0.390  11.076  0.3062 -0.2083 -0.1430
 6432TIP3    H143491   2.379   0.322  11.110 -0.7069 -0.5390  0.9859
 6432TIP3    H243492   2.244   0.343  11.045 -0.6022  0.4113  1.0655
 6433TIP3   OH243493   2.303   6.482  11.886 -0.5643 -0.2314 -0.0780
 6433TIP3    H143494   2.298   6.393  11.920 -0.0266  0.3056  1.5172
 6433TIP3    H243495   2.390   6.512  11.912 -0.8302  0.8334 -0.3788
 6434TIP3   OH243496   3.563   4.718  12.987  0.2708  0.4563  0.1744
 6434TIP3    H143497   3.546   4.714  13.081 -0.7134 -3.3940 -0.0086
 6434TIP3    H243498   3.477   4.713  12.946  0.8204 -2.2301 -0.8332
 6435TIP3   OH243499   6.277   0.944  11.608 -0.1345 -0.4930 -0.0767
 6435TIP3    H143500   6.230   0.966  11.528  0.9748  0.6338 -0.4595
 6435TIP3    H243501   6.360   0.993  11.601  0.5299 -1.3898  1.1550
 6436TIP3   OH243502   6.382   3.616  11.865  0.3142  0.2282 -0.2454
 6436TIP3    H143503   6.425   3.558  11.803  0.9729  1.2467 -0.7753
 6436TIP3    H243504   6.439   3.616  11.942  0.3663  0.2477 -0.2842
 6437TIP3   OH243505   4.681   5.207  10.884  0.4747  0.4269  0.0265
 6437TIP3    H143506   4.624   5.255  10.825  2.3645  2.2382 -0.4689
 6437TIP3    H243507   4.670   5.249  10.969 -0.4321 -0.5982  0.4473
 6438TIP3   OH243508   2.324   6.886  10.848  0.1183 -0.7828 -0.2641
 6438TIP3    H143509   2.309   6.836  10.768 -0.7290 -2.2985  0.7723
 6438TIP3    H243510   2.419   6.891  10.856  0.2243 -1.9121 -0.6117
 6439TIP3   OH243511   2.341   6.817  12.617  0.2074  0.2654  0.2958
 6439TIP3    H143512   2.378   6.893  12.663 -2.1882  1.3698  0.5299
 6439TIP3    H243513   2.351   6.745  12.679 -0.7836  1.2234  1.6364
 6440TIP3   OH243514   7.242   4.166  11.260 -0.4401 -0.0830 -0.3841
 6440TIP3    H143515   7.168   4.113  11.231 -0.8298  0.2374  0.0146
 6440TIP3    H243516   7.319   4.115  11.234 -0.7811 -0.0696 -1.4723
 6441TIP3   OH243517   4.307   6.541  11.512  0.0264 -0.1855  0.1599
 6441TIP3    H143518   4.324   6.574  11.600 -2.5102  1.4423  0.1408
 6441TIP3    H243519   4.393   6.540  11.470  0.8636  2.2957  1.5883
 6442TIP3   OH243520   0.301   4.786  10.758  0.0385 -0.8173 -0.1321
 6442TIP3    H143521   0.370   4.845  10.787 -0.8800  0.0946  0.2435
 6442TIP3    H243522   0.324   4.702  10.797 -0.3633  0.0373  2.0595
 6443TIP3   OH243523   1.708   3.229  12.250  0.3363 -0.2925  0.0604
 6443TIP3    H143524   1.765   3.288  12.202  0.2068 -0.6193 -0.4998
 6443TIP3    H243525   1.734   3.240  12.342 -0.3334  1.3328  0.0743
 6444TIP3   OH243526   3.990   5.104  10.795 -0.3597  0.5275  0.1020
 6444TIP3    H143527   3.954   5.192  10.780 -1.8221  0.0677  0.7303
 6444TIP3    H243528   3.962   5.054  10.718 -0.2717  0.3852  0.1633
 6445TIP3   OH243529   4.400   1.959  11.932 -0.9805 -0.6743 -0.6332
 6445TIP3    H143530   4.475   1.968  11.874 -0.7896 -1.3615 -0.5044
 6445TIP3    H243531   4.362   2.046  11.937  0.0365 -0.2381 -0.4031
 6446TIP3   OH243532   3.406   3.303  12.199  0.1217  0.0184 -0.3782
 6446TIP3    H143533   3.465   3.377  12.187  0.8713 -0.4297  0.4188
 6446TIP3    H243534   3.368   3.315  12.285 -1.4472  0.6190 -1.1231
 6447TIP3   OH243535   1.838   4.563  10.456  0.3323  0.0667  0.0948
 6447TIP3    H143536   1.848   4.477  10.497 -2.0302 -0.1494  0.3315
 6447TIP3    H243537   1.824   4.623  10.530  0.8734  0.4931 -0.1390
 6448TIP3   OH243538   0.940   3.941  12.823 -0.1928  0.0525  0.3512
 6448TIP3    H143539   0.976   3.887  12.893 -0.2040  0.3679  0.6017
 6448TIP3    H243540   0.845   3.940  12.838 -0.2168 -0.0722  0.1999
 6449TIP3   OH243541   6.908   0.086  11.424 -0.1538 -0.2271 -0.3239
 6449TIP3    H143542   6.963   0.007  11.426 -1.7319 -1.3796  2.1691
 6449TIP3    H243543   6.853   0.075  11.346 -0.6123 -1.8356  0.1855
 6450TIP3   OH243544   2.751   2.463  13.504  0.4208 -0.1093 -0.5641
 6450TIP3    H143545   2.845   2.453  13.490  0.4666 -0.8683  0.1917
 6450TIP3    H243546   2.716   2.485  13.417  1.3031  0.3195 -0.8247
 6451TIP3   OH243547   5.371   4.586  11.804  0.4356 -0.1868 -0.6148
 6451TIP3    H143548   5.429   4.546  11.739 -0.0554 -0.3123 -0.9805
 6451TIP3    H243549   5.428   4.644  11.854  0.0214  4.2070 -4.5408
 6452TIP3   OH243550   1.456   7.243  11.141  0.6075 -0.3126 -0.0234
 6452TIP3    H143551   1.507   7.201  11.210 -0.3073 -1.3968  0.0278
 6452TIP3    H243552   1.407   7.311  11.185 -1.5292 -2.2918  0.8776
 6453TIP3   OH243553   7.450   1.927  12.657  0.2315  0.3587  0.3316
 6453TIP3    H143554   7.413   1.878  12.730 -0.1740  1.4926  0.9021
 6453TIP3    H243555   7.545   1.918  12.669  0.1679 -0.6743  0.1481
 6454TIP3   OH243556   0.380   5.881  11.668  0.1549  0.0441 -0.8039
 6454TIP3    H143557   0.469   5.855  11.688 -0.0979 -0.2945 -0.0551
 6454TIP3    H243558   0.366   5.857  11.577  0.6512 -0.3839 -0.7653
 6455TIP3   OH243559   4.386   1.135  12.705  0.4783 -0.1127 -0.7398
 6455TIP3    H143560   4.374   1.053  12.751 -0.5118 -0.6056 -1.8110
 6455TIP3    H243561   4.303   1.182  12.717  1.0075  0.7242 -0.1884
 6456TIP3   OH243562   6.418   3.138  11.403  0.4705 -0.2122  0.0759
 6456TIP3    H143563   6.378   3.069  11.351 -0.3124 -0.3566  0.8422
 6456TIP3    H243564   6.504   3.104  11.428 -0.3399 -1.3935  1.3834
 6457TIP3   OH243565   4.064   5.866  10.733 -0.6069  0.2156 -0.0171
 6457TIP3    H143566   4.133   5.885  10.670 -0.3720  2.1508  0.7469
 6457TIP3    H243567   4.105   5.808  10.797 -0.4264 -0.5901 -0.8487
 6458TIP3   OH243568   0.836   4.883  12.807  0.1892  0.7464  0.2448
 6458TIP3    H143569   0.871   4.794  12.811 -1.5864  0.0426  1.1260
 6458TIP3    H243570   0.776   4.889  12.881 -2.2372  1.5490 -1.6445
 6459TIP3   OH243571   3.301   2.468  10.660 -0.0631  0.3844 -0.3744
 6459TIP3    H143572   3.238   2.421  10.714 -0.3937  1.4199  0.1633
 6459TIP3    H243573   3.254   2.488  10.579  0.0559 -0.1317 -0.5742
 6460TIP3   OH243574   3.109   7.448  10.926  0.3142  0.5836  0.2847
 6460TIP3    H143575   3.153   7.405  10.999  0.8129  0.1300 -0.2640
 6460TIP3    H243576   3.022   7.407  10.923  1.4989 -2.1747 -1.6118
 6461TIP3   OH243577   1.425   0.666  10.590 -0.3435  0.0870  0.5089
 6461TIP3    H143578   1.476   0.738  10.554  1.4989 -0.5054  1.7624
 6461TIP3    H243579   1.452   0.660  10.682  1.6692 -3.7789 -0.0999
 6462TIP3   OH243580   6.126   3.151  10.103 -0.0501 -0.5381  0.2767
 6462TIP3    H143581   6.153   3.235  10.067  0.2469 -0.6985  0.1178
 6462TIP3    H243582   6.186   3.135  10.175 -1.2478  0.2323  1.4793
 6463TIP3   OH243583   0.675   3.692  12.778  0.2597 -0.5522 -0.5302
 6463TIP3    H143584   0.679   3.598  12.767  3.2931 -0.3884 -1.9989
 6463TIP3    H243585   0.737   3.710  12.850  0.2371  0.3582 -0.7265
 6464TIP3   OH243586   4.652   3.318  11.018  0.1936  0.4447 -0.7236
 6464TIP3    H143587   4.676   3.295  10.928 -2.1368  1.0327 -1.5759
 6464TIP3    H243588   4.626   3.235  11.059  0.4428  0.2994 -0.8591
 6465TIP3   OH243589   6.813   4.232  12.904 -0.3168 -0.0499 -0.2953
 6465TIP3    H143590   6.725   4.264  12.886  0.0194  1.1326  0.0068
 6465TIP3    H243591   6.870   4.295  12.859  0.4530  1.1529  2.1443
 6466TIP3   OH243592   4.113   3.042  10.459  0.1678  0.0987 -0.8314
 6466TIP3    H143593   4.163   2.974  10.413 -1.0466 -1.2667 -0.2293
 6466TIP3    H243594   4.022   3.017  10.445 -0.3202  1.8295 -0.8735
 6467TIP3   OH243595   3.466   6.067  12.229 -0.1161 -0.8292  0.5274
 6467TIP3    H143596   3.534   6.112  12.179  1.2380 -1.3030  1.8637
 6467TIP3    H243597   3.461   6.116  12.311 -1.6013 -0.6558  0.3685
 6468TIP3   OH243598   1.065   2.735  12.435 -0.1740  0.3665  0.1421
 6468TIP3    H143599   1.069   2.757  12.528  0.3614  0.7871  0.0291
 6468TIP3    H243600   1.038   2.817  12.392  1.9975  0.9016 -0.3037
 6469TIP3   OH243601   1.213   0.881  10.880 -0.2977 -0.5876  0.1243
 6469TIP3    H143602   1.271   0.805  10.884  1.5670  0.7721  0.7342
 6469TIP3    H243603   1.266   0.953  10.916 -2.2463  0.8402  0.2932
 6470TIP3   OH243604   1.060   5.966  11.161 -0.5548  0.1556 -0.3904
 6470TIP3    H143605   1.133   5.930  11.110 -0.2330  0.5233 -0.2017
 6470TIP3    H243606   0.988   5.972  11.099  0.2665  2.0373 -1.2654
 6471TIP3   OH243607   2.710   3.499  11.235 -0.1262  0.3755  0.1234
 6471TIP3    H143608   2.762   3.420  11.245  0.0688  0.7435  3.3139
 6471TIP3    H243609   2.766   3.569  11.269 -0.7826  1.7014 -1.3912
 6472TIP3   OH243610   0.701   6.215  12.512 -0.4137 -0.3432 -0.1105
 6472TIP3    H143611   0.652   6.288  12.550  1.2294  1.0473 -0.5356
 6472TIP3    H243612   0.666   6.207  12.423 -1.4193 -0.8681  0.3278
 6473TIP3   OH243613   7.047   1.733  12.294 -0.1842 -0.2331  0.0836
 6473TIP3    H143614   7.074   1.730  12.385  0.6401 -1.0465 -0.1708
 6473TIP3    H243615   7.118   1.779  12.249 -1.7764  2.5702  0.2119
 6474TIP3   OH243616   6.185   3.548  10.490  0.1335  0.3706 -0.8495
 6474TIP3    H143617   6.119   3.495  10.446  1.9535 -1.0171 -2.0548
 6474TIP3    H243618   6.268   3.503  10.472  1.2653  1.1919  1.8744
 6475TIP3   OH243619   4.088   4.169  12.250  0.0110 -0.2367  0.3669
 6475TIP3    H143620   4.023   4.099  12.247  0.6134 -0.7675 -0.6336
 6475TIP3    H243621   4.171   4.126  12.229  0.2365  0.9523 -1.3257
 6476TIP3   OH243622   1.945   6.962  10.890 -0.0514  0.4354  0.0572
 6476TIP3    H143623   1.933   6.927  10.978  2.1499 -0.4307  0.0760
 6476TIP3    H243624   2.016   7.026  10.900  0.0900  0.4641 -1.0567
 6477TIP3   OH243625   6.948   3.669  11.164 -0.3241 -0.0581  0.0090
 6477TIP3    H143626   7.041   3.690  11.177  0.2981 -2.6640  0.4685
 6477TIP3    H243627   6.907   3.688  11.248  0.2514 -0.7924  0.4776
 6478TIP3   OH243628   7.455   6.236  12.311  0.0925  0.0275 -0.4399
 6478TIP3    H143629   7.428   6.270  12.226 -2.1528 -0.2707  0.1007
 6478TIP3    H243630   7.528   6.292  12.338  0.7247  0.2334 -2.4606
 6479TIP3   OH243631   5.635   4.401  10.696 -0.1032 -0.6964 -0.2442
 6479TIP3    H143632   5.708   4.453  10.663 -0.6286  0.3595  0.2106
 6479TIP3    H243633   5.675   4.318  10.723  1.2600  0.5058  1.7019
 6480TIP3   OH243634   7.555   5.695  11.835  0.0399 -0.2624 -0.2216
 6480TIP3    H143635   7.507   5.778  11.834  0.2806 -0.1157 -1.5040
 6480TIP3    H243636   7.641   5.717  11.798  1.3125 -0.4118  2.4510
 6481TIP3   OH243637   1.820   1.669  11.618  0.0568 -0.3403  0.3795
 6481TIP3    H143638   1.780   1.746  11.578  0.5593 -0.1248  0.2848
 6481TIP3    H243639   1.771   1.656  11.700 -1.0270 -0.8305 -0.3317
 6482TIP3   OH243640   5.175   2.940  11.041 -0.4960 -0.1977  0.2431
 6482TIP3    H143641   5.180   2.863  11.098  2.1980 -0.6289 -0.4319
 6482TIP3    H243642   5.210   3.012  11.094  2.2533 -0.6483 -0.7727
 6483TIP3   OH243643   0.193   3.732  11.732  0.3836 -0.3924  0.3548
 6483TIP3    H143644   0.169   3.674  11.660  0.7328 -0.1231  0.0141
 6483TIP3    H243645   0.110   3.772  11.759  0.5504  1.7161 -1.8512
 6484TIP3   OH243646   2.424   3.698  11.511  0.0466 -0.3747 -0.0917
 6484TIP3    H143647   2.384   3.722  11.427 -2.3218 -0.8246  0.8523
 6484TIP3    H243648   2.411   3.775  11.566 -0.7755 -1.0280  0.6453
 6485TIP3   OH243649   0.624   1.335  12.645  0.2947 -0.4411  0.5251
 6485TIP3    H143650   0.660   1.297  12.564 -1.8698 -2.1133  0.2389
 6485TIP3    H243651   0.678   1.298  12.715  1.9185  0.6833 -0.0747
 6486TIP3   OH243652   0.055   4.987  11.110  0.0016 -0.4899  0.3244
 6486TIP3    H143653   0.014   5.073  11.105  1.3993  0.6226  4.3287
 6486TIP3    H243654   0.095   4.974  11.024 -0.6946  2.6176 -0.5861
 6487TIP3   OH243655   3.653   6.266  12.106  0.0849 -0.0407  0.0075
 6487TIP3    H143656   3.682   6.263  12.014 -0.9022 -0.2815 -0.3019
 6487TIP3    H243657   3.674   6.355  12.134  0.9090 -0.1343 -0.2753
 6488TIP3   OH243658   6.976   5.381  11.011  0.5899  0.5714 -0.4304
 6488TIP3    H143659   6.993   5.458  11.065  3.0522  0.9939 -1.6468
 6488TIP3    H243660   7.039   5.316  11.042  0.6723  0.1390 -1.4801
 6489TIP3   OH243661   5.644   2.382  11.905  0.5000 -0.1053  0.0661
 6489TIP3    H143662   5.633   2.462  11.956 -0.9240 -0.7015  0.7521
 6489TIP3    H243663   5.555   2.349  11.893  0.9676 -1.0094 -1.1723
 6490TIP3   OH243664   1.963   0.121  11.438  0.1444  0.1287 -0.4533
 6490TIP3    H143665   2.028   0.097  11.504  1.0042 -1.6090 -1.8380
 6490TIP3    H243666   1.884   0.074  11.464  0.1026  0.4364 -0.0099
 6491TIP3   OH243667   2.507   3.184  12.253 -0.2961  0.2750 -0.5435
 6491TIP3    H143668   2.440   3.124  12.220 -0.5969 -0.1239  0.7664
 6491TIP3    H243669   2.460   3.264  12.274  0.0087  0.7791 -1.7029
 6492TIP3   OH243670   6.420   5.594  11.538  0.2265 -0.4423  0.0422
 6492TIP3    H143671   6.475   5.668  11.565  0.2151 -1.1926  2.3402
 6492TIP3    H243672   6.480   5.531  11.500  0.7004 -0.4692  0.8158
 6493TIP3   OH243673   1.601   5.979  10.960  0.3642  0.0824  1.0788
 6493TIP3    H143674   1.590   5.966  10.866  0.5038  0.3898  1.0183
 6493TIP3    H243675   1.682   5.932  10.981 -0.0227 -0.5572  1.1734
 6494TIP3   OH243676   1.934   7.373  12.715  0.1282 -0.8830  0.0154
 6494TIP3    H143677   1.912   7.461  12.746 -0.0931 -1.2211  0.8194
 6494TIP3    H243678   2.023   7.357  12.748  0.0742 -1.0620  0.0740
 6495TIP3   OH243679   4.767   6.987  12.589  0.0710 -0.2667 -0.1005
 6495TIP3    H143680   4.718   6.960  12.666  0.7480 -2.0218 -0.2188
 6495TIP3    H243681   4.737   7.076  12.571 -1.8579 -0.6833  0.7533
 6496TIP3   OH243682   3.658   5.218  10.963  0.2775  0.1773  0.1027
 6496TIP3    H143683   3.702   5.141  11.001 -0.6111  0.1814  1.2218
 6496TIP3    H243684   3.566   5.206  10.987  0.2634  2.0968  1.2034
 6497TIP3   OH243685   5.459   1.909  12.090  0.1348  0.2480 -0.0747
 6497TIP3    H143686   5.543   1.955  12.094  0.2422 -0.0044  2.5738
 6497TIP3    H243687   5.483   1.817  12.080  0.1994  0.2090  0.3769
 6498TIP3   OH243688   4.926   2.581  10.962  0.5636  0.8574  0.2089
 6498TIP3    H143689   4.934   2.611  10.872 -1.1662 -1.1968 -0.7077
 6498TIP3    H243690   4.859   2.638  11.000  0.5388  1.0528 -0.1222
 6499TIP3   OH243691   1.040   5.744  13.013 -0.7389 -0.3871  0.1967
 6499TIP3    H143692   1.060   5.824  13.061  2.0302  0.0111 -1.3629
 6499TIP3    H243693   0.947   5.750  12.992 -1.2623  0.9656  2.6195
 6500TIP3   OH243694   1.655   2.499  10.681 -0.7202 -0.3656  0.1082
 6500TIP3    H143695   1.588   2.551  10.727  1.0919  1.6409  0.6844
 6500TIP3    H243696   1.664   2.542  10.596  1.2681  0.7783  0.8364
 6501TIP3   OH243697   5.090   5.405  11.492 -0.1731 -0.1840  0.4950
 6501TIP3    H143698   5.113   5.482  11.440 -1.0335  0.5989  1.2466
 6501TIP3    H243699   5.081   5.335  11.427  3.7527 -0.5083  0.0470
 6502TIP3   OH243700   2.689   6.935  11.652  0.4206 -0.3494  0.3528
 6502TIP3    H143701   2.600   6.930  11.687 -1.7772  1.0068 -4.2034
 6502TIP3    H243702   2.714   6.844  11.636 -0.9095 -0.7043  0.1898
 6503TIP3   OH243703   4.865   7.456  10.979  0.4272 -0.3882  1.1008
 6503TIP3    H143704   4.858   7.491  11.068 -2.4646 -0.6863  1.0784
 6503TIP3    H243705   4.775   7.454  10.947  1.1223 -2.4715 -1.0042
 6504TIP3   OH243706   0.180   4.712  13.419 -0.4624 -0.0321 -0.6296
 6504TIP3    H143707   0.205   4.620  13.431  1.0665  0.3737 -0.4398
 6504TIP3    H243708   0.263   4.756  13.400 -1.2291  1.2565 -1.0608
 6505TIP3   OH243709   6.902   5.469  12.038 -1.0682  0.4493 -0.2969
 6505TIP3    H143710   6.944   5.420  11.967 -0.0842 -0.8029  1.0853
 6505TIP3    H243711   6.969   5.532  12.066 -1.3606  0.7648 -0.2962
 6506TIP3   OH243712   7.632   7.111  12.087  0.6926 -0.1932 -0.4457
 6506TIP3    H143713   7.584   7.189  12.117 -0.5544 -0.9790 -0.3102
 6506TIP3    H243714   7.655   7.065  12.168  1.2168 -0.0966 -0.5360
 6507TIP3   OH243715   3.272   3.492  12.976 -0.0260 -0.5833 -0.3831
 6507TIP3    H143716   3.319   3.410  12.991  0.6378 -0.2811 -0.7527
 6507TIP3    H243717   3.330   3.559  13.011 -0.7721 -0.2969  0.3417
 6508TIP3   OH243718   4.613   3.713  12.313  0.7193 -0.3385 -0.2320
 6508TIP3    H143719   4.659   3.782  12.361 -2.3468  2.2515 -0.6117
 6508TIP3    H243720   4.556   3.672  12.378  2.0418 -2.1739 -0.1579
 6509TIP3   OH243721   2.846   2.005  12.686 -0.3506 -0.0515 -0.1672
 6509TIP3    H143722   2.791   2.004  12.607 -1.0120  0.3984  0.2782
 6509TIP3    H243723   2.831   2.092  12.724 -0.8069 -0.6311  1.0016
 6510TIP3   OH243724   7.451   5.442  12.404  0.0106  0.1672  0.5178
 6510TIP3    H143725   7.438   5.478  12.491  0.7856  0.9650  0.3173
 6510TIP3    H243726   7.420   5.510  12.345  1.4719  0.5243  0.1318
 6511TIP3   OH243727   5.387   4.049  11.391  0.4522  0.2796 -0.1945
 6511TIP3    H143728   5.354   4.108  11.458  2.6614 -0.1486  1.3860
 6511TIP3    H243729   5.316   3.987  11.376  0.0037  0.2052  2.0017
 6512TIP3   OH243730   7.224   1.993  12.913 -0.2817  0.5820  0.8338
 6512TIP3    H143731   7.212   2.078  12.870  0.0658  0.6094  0.7817
 6512TIP3    H243732   7.144   1.944  12.895 -1.2245  1.4972  2.2578
 6513TIP3   OH243733   1.243   2.291  10.433 -0.0463  0.3945 -0.5666
 6513TIP3    H143734   1.154   2.321  10.416 -0.3211  0.6377  1.0938
 6513TIP3    H243735   1.299   2.365  10.410 -0.6349  1.9224  2.4161
 6514TIP3   OH243736   6.344   2.285  10.646 -0.1439  0.1739 -1.0826
 6514TIP3    H143737   6.327   2.211  10.704 -0.3710 -0.0135 -1.3813
 6514TIP3    H243738   6.437   2.279  10.626 -0.2776 -0.3763 -1.5648
 6515TIP3   OH243739   1.831   3.878  12.236 -0.6423  0.1016  0.1589
 6515TIP3    H143740   1.914   3.870  12.282 -1.1409  0.7097  1.2091
 6515TIP3    H243741   1.810   3.971  12.240 -1.9552 -0.1877  1.0311
 6516TIP3   OH243742   2.106   1.190  10.645 -0.3000  0.3103 -0.0455
 6516TIP3    H143743   2.143   1.144  10.570 -0.9938  1.3395 -1.0567
 6516TIP3    H243744   2.125   1.283  10.629 -0.1399  0.5247  1.2454
 6517TIP3   OH243745   0.661   4.630  10.860  0.2167 -0.1233 -0.0453
 6517TIP3    H143746   0.749   4.623  10.898  0.0774 -0.6821  0.1742
 6517TIP3    H243747   0.653   4.554  10.804 -1.0797 -1.5158  1.9065
 6518TIP3   OH243748   0.498   7.607  12.141  0.1958  0.3221 -0.3300
 6518TIP3    H143749   0.566   7.545  12.167  1.5763  1.6840 -0.5562
 6518TIP3    H243750   0.528   7.691  12.176 -1.7995  0.8286  0.2714
 6519TIP3   OH243751   3.976   2.621  11.071  0.7034  0.6272 -0.5376
 6519TIP3    H143752   4.046   2.663  11.022  0.8621  1.5261  0.4281
 6519TIP3    H243753   3.976   2.665  11.156  0.1751 -0.6169  0.1377
 6520TIP3   OH243754   7.310   1.788  12.202 -0.2020  0.6568  0.8550
 6520TIP3    H143755   7.399   1.759  12.184 -0.1644  1.9514 -1.3137
 6520TIP3    H243756   7.308   1.799  12.297  1.5429 -0.5891  1.0935
 6521TIP3   OH243757   3.000   2.338  13.443 -0.0077 -0.2700  0.4616
 6521TIP3    H143758   3.037   2.320  13.530 -0.4661 -0.6677  0.5779
 6521TIP3    H243759   3.021   2.260  13.392  0.4940  0.0753  0.1334
 6522TIP3   OH243760   7.250   2.973  11.043  0.2104  0.1909 -0.2485
 6522TIP3    H143761   7.202   2.900  11.006 -1.0672 -0.1313  1.8828
 6522TIP3    H243762   7.185   3.043  11.053  0.8393  0.7499  0.0792
 6523TIP3   OH243763   6.517   4.237  10.761  0.5367 -0.3660 -0.4295
 6523TIP3    H143764   6.444   4.176  10.751  0.5867 -0.4429 -0.3365
 6523TIP3    H243765   6.580   4.189  10.815  0.3195 -0.0129  0.1523
 6524TIP3   OH243766   4.814   2.683  12.563 -0.3933 -0.5385  0.2850
 6524TIP3    H143767   4.753   2.670  12.635  1.3894  2.3610  2.5487
 6524TIP3    H243768   4.766   2.735  12.499 -1.3233 -1.2331  0.4071
 6525TIP3   OH243769   5.267   0.583  11.774 -0.1947 -0.6226  0.0418
 6525TIP3    H143770   5.291   0.654  11.833  0.2816 -0.0091 -0.8705
 6525TIP3    H243771   5.171   0.582  11.775 -0.3175  1.6664 -1.7932
 6526TIP3   OH243772   6.840   5.218  11.714 -0.6468  0.2462  0.6940
 6526TIP3    H143773   6.871   5.175  11.794  1.8949  1.1998  0.2917
 6526TIP3    H243774   6.896   5.183  11.645 -1.9385  0.4333 -0.4873
 6527TIP3   OH243775   7.507   0.559  12.433  0.7158  0.2553 -0.1454
 6527TIP3    H143776   7.456   0.636  12.405  0.1134  0.1927  0.7363
 6527TIP3    H243777   7.544   0.585  12.518  1.3802 -0.0524 -0.3363
 6528TIP3   OH243778   4.795   4.268  12.315 -0.4174 -0.4868 -0.5427
 6528TIP3    H143779   4.888   4.259  12.295 -0.7052 -0.8616 -1.7933
 6528TIP3    H243780   4.766   4.180  12.338 -0.8061 -0.6945 -1.7718
 6529TIP3   OH243781   6.299   2.586  11.544 -0.0957  0.1063 -0.0704
 6529TIP3    H143782   6.385   2.547  11.528  0.0566  0.7237 -0.8470
 6529TIP3    H243783   6.258   2.588  11.457 -0.1163  1.5966 -0.0437
 6530TIP3   OH243784   0.143   4.101  12.071 -0.0980 -0.4153  0.3662
 6530TIP3    H143785   0.174   4.085  11.981  0.2004  1.0779  0.1727
 6530TIP3    H243786   0.223   4.117  12.121 -0.3329 -0.0885  0.6390
 6531TIP3   OH243787   2.167   1.766  10.736 -0.1581  0.0368 -0.0104
 6531TIP3    H143788   2.122   1.682  10.727  0.4951 -0.1782 -1.4650
 6531TIP3    H243789   2.144   1.814  10.656 -0.2204  1.1001  0.6292
 6532TIP3   OH243790   0.872   5.947  10.954 -0.0219 -0.1345 -0.0993
 6532TIP3    H143791   0.895   5.968  10.864 -0.1823 -0.9347 -0.3417
 6532TIP3    H243792   0.778   5.963  10.959  0.1645  0.9010  0.2273
 6533TIP3   OH243793   3.186   3.489  12.132 -0.4381 -0.4703  0.0622
 6533TIP3    H143794   3.179   3.530  12.046  0.2914  1.4145  0.8380
 6533TIP3    H243795   3.267   3.437  12.128 -0.7174 -0.8705 -0.5540
 6534TIP3   OH243796   4.912   6.549  12.194 -0.0342 -0.6793  0.9367
 6534TIP3    H143797   4.818   6.565  12.205 -0.1175 -1.8990  2.1374
 6534TIP3    H243798   4.954   6.627  12.230 -0.5597 -0.1714  0.4822
 6535TIP3   OH243799   4.317   6.070  10.791 -0.0450  0.3630 -0.3116
 6535TIP3    H143800   4.366   6.115  10.723 -0.8247  2.7184  0.5656
 6535TIP3    H243801   4.293   5.986  10.753  0.2456  1.2643 -2.6217
 6536TIP3   OH243802   2.458   0.791  12.214 -0.1443 -0.0652  0.1264
 6536TIP3    H143803   2.486   0.745  12.294 -0.2586 -0.8078 -0.2481
 6536TIP3    H243804   2.502   0.876  12.219 -1.7104  0.7137  1.9658
 6537TIP3   OH243805   6.263   4.955  11.867  0.1811  0.6613  0.1961
 6537TIP3    H143806   6.325   4.895  11.909 -0.0834  0.1306 -0.1559
 6537TIP3    H243807   6.178   4.914  11.880 -0.1024  1.3958  0.6875
 6538TIP3   OH243808   0.224   4.034  12.500 -0.0407  0.1093 -0.0527
 6538TIP3    H143809   0.233   4.124  12.529  0.9540  0.1518 -0.4367
 6538TIP3    H243810   0.148   4.000  12.547  0.5059  0.6728  1.2711
 6539TIP3   OH243811   6.415   2.560  10.518  0.2346  0.0891  0.1219
 6539TIP3    H143812   6.405   2.480  10.568  0.1663 -0.7125 -1.1264
 6539TIP3    H243813   6.326   2.591  10.503  0.1788 -0.3862 -0.5892
 6540TIP3   OH243814   0.270   7.441  10.991  0.3874 -0.3737  0.2095
 6540TIP3    H143815   0.280   7.409  10.901  2.8109  0.8103 -0.0364
 6540TIP3    H243816   0.316   7.377  11.045  0.5880 -0.1003  0.3674
 6541TIP3   OH243817   6.277   7.106  11.785  0.3595 -0.2369 -0.4091
 6541TIP3    H143818   6.291   7.138  11.874  1.1698 -0.7750 -0.3324
 6541TIP3    H243819   6.243   7.182  11.738 -0.1395  0.0381  0.3664
 6542TIP3   OH243820   1.730   2.704  12.318  0.3810  0.0591  0.0785
 6542TIP3    H143821   1.789   2.778  12.299 -0.8816  1.0307 -0.1982
 6542TIP3    H243822   1.719   2.706  12.413  4.7772 -3.3171  0.9828
 6543TIP3   OH243823   6.597   6.802  11.305  0.0127  0.5094 -0.5703
 6543TIP3    H143824   6.634   6.799  11.394  0.1699 -1.5166 -0.6473
 6543TIP3    H243825   6.604   6.893  11.279  5.0692  0.4017 -0.6007
 6544TIP3   OH243826   5.931   0.133  12.008 -0.7294 -0.2854  0.3165
 6544TIP3    H143827   5.965   0.061  11.954 -1.8650 -2.0187  1.7690
 6544TIP3    H243828   5.852   0.097  12.047 -1.2752  1.7681  1.2023
 6545TIP3   OH243829   6.814   3.734  12.411  0.1290  0.5034  0.0597
 6545TIP3    H143830   6.751   3.766  12.475 -1.6650 -2.4724 -0.0293
 6545TIP3    H243831   6.852   3.656  12.452  1.9878  0.8423 -0.9071
 6546TIP3   OH243832   2.340   1.231  12.899  0.1893  0.0702 -1.0077
 6546TIP3    H143833   2.314   1.315  12.860 -0.9076 -0.2556 -1.0093
 6546TIP3    H243834   2.435   1.236  12.904  0.1207  1.5572 -0.4839
 6547TIP3   OH243835   7.356   0.876  10.928 -0.1859 -0.3688  0.2870
 6547TIP3    H143836   7.299   0.860  10.853 -1.1152 -0.5969  1.0208
 6547TIP3    H243837   7.338   0.967  10.952 -0.3591 -0.4853  0.6097
 6548TIP3   OH243838   6.011   7.392  12.218 -0.0116 -0.3187  0.4256
 6548TIP3    H143839   6.037   7.390  12.126 -0.7398  0.2568  0.1932
 6548TIP3    H243840   5.915   7.381  12.216  0.0969 -1.6808  1.2045
 6549TIP3   OH243841   0.094   7.600  12.476  0.0052 -0.0427 -0.5215
 6549TIP3    H143842   0.141   7.598  12.392 -0.4217 -0.5925 -0.7471
 6549TIP3    H243843   0.001   7.598  12.452 -0.1113 -1.3248 -0.0028
 6550TIP3   OH243844   1.844   7.252  10.360 -0.6694  0.2826 -0.4515
 6550TIP3    H143845   1.866   7.163  10.385 -1.7428 -0.6041 -2.4049
 6550TIP3    H243846   1.825   7.297  10.443 -1.6497 -1.7460  0.4808
 6551TIP3   OH243847   1.505   1.988  12.845 -0.5370  0.2746 -0.1059
 6551TIP3    H143848   1.454   1.911  12.822 -0.4161  0.5102 -1.1759
 6551TIP3    H243849   1.494   1.996  12.940  0.3242 -1.6655  0.2012
 6552TIP3   OH243850   6.713   7.339  12.138  0.3920 -0.6372  0.6049
 6552TIP3    H143851   6.627   7.381  12.141 -1.1343 -3.3396 -1.2648
 6552TIP3    H243852   6.719   7.291  12.220  0.1073 -0.4874  0.7136
 6553TIP3   OH243853   0.042   1.319  10.366  0.2063  0.1307  0.0327
 6553TIP3    H143854   0.015   1.228  10.366 -1.6811  0.6064 -2.2114
 6553TIP3    H243855   0.062   1.338  10.458  1.7988 -2.7934  0.4209
 6554TIP3   OH243856   0.457   4.997  11.207  0.0196 -0.3169  0.0217
 6554TIP3    H143857   0.502   4.941  11.144 -3.0868 -1.5285 -1.3709
 6554TIP3    H243858   0.404   4.936  11.258  0.0640  0.9771  1.6886
 6555TIP3   OH243859   0.726   5.754  10.581 -0.5789 -0.1837  0.0931
 6555TIP3    H143860   0.780   5.691  10.533  0.5916 -0.7205  2.0096
 6555TIP3    H243861   0.786   5.826  10.600 -1.0376  0.0444  0.6786
 6556TIP3   OH243862   1.589   1.435  11.061 -0.1571 -0.6145  0.1320
 6556TIP3    H143863   1.651   1.508  11.061 -0.2674 -0.5178 -0.2345
 6556TIP3    H243864   1.505   1.475  11.082 -0.1129 -0.7370  0.5704
 6557TIP3   OH243865   2.815   2.307  13.722 -0.2661 -0.5956 -0.5132
 6557TIP3    H143866   2.775   2.368  13.660 -1.0034 -1.5133 -0.9733
 6557TIP3    H243867   2.904   2.294  13.690  0.3591  1.2733  0.3718
 6558TIP3   OH243868   1.516   1.697  12.093 -0.7328  0.1618 -0.1927
 6558TIP3    H143869   1.492   1.628  12.031 -1.1754 -1.0030  1.2421
 6558TIP3    H243870   1.447   1.695  12.159 -0.6245  1.8351  0.0198
 6559TIP3   OH243871   0.093   3.515  11.596  0.3521  0.4589  0.4791
 6559TIP3    H143872   0.031   3.537  11.666 -0.2243  2.9707 -0.6889
 6559TIP3    H243873   0.042   3.523  11.516  0.4970 -4.1282 -0.3318
 6560TIP3   OH243874   6.317   2.668  11.811 -0.0665 -0.1356 -0.2607
 6560TIP3    H143875   6.325   2.659  11.716  1.0649  0.1417 -0.2009
 6560TIP3    H243876   6.261   2.745  11.824  0.8880  0.6468 -0.7026
 6561TIP3   OH243877   0.544   4.001  11.906 -0.0169 -0.0701  0.4473
 6561TIP3    H143878   0.568   3.931  11.967 -2.2557  0.8855  2.6226
 6561TIP3    H243879   0.480   3.961  11.847  1.5999 -0.7973 -0.9007
 6562TIP3   OH243880   7.292   6.239  10.498  0.2079 -0.3581  0.0124
 6562TIP3    H143881   7.363   6.303  10.493 -0.8498  0.7106 -2.8003
 6562TIP3    H243882   7.337   6.156  10.515  1.8487  0.6634  0.9742
 6563TIP3   OH243883   2.505   4.772  12.089  0.5044  0.4246  1.0282
 6563TIP3    H143884   2.572   4.811  12.145  0.4258  1.2591  0.5620
 6563TIP3    H243885   2.478   4.693  12.135  0.9549  0.7120  1.8033
 6564TIP3   OH243886   6.842   5.862  13.371 -0.3062 -0.2717 -0.7267
 6564TIP3    H143887   6.762   5.911  13.354 -0.6554 -0.1474  1.0322
 6564TIP3    H243888   6.912   5.914  13.330 -0.7061  1.5597  0.7678
 6565TIP3   OH243889   3.718   4.581  12.403  0.1203  0.4872  0.4532
 6565TIP3    H143890   3.704   4.488  12.420 -0.3458  0.6065  0.7567
 6565TIP3    H243891   3.696   4.592  12.310 -2.3424  0.7325  0.9850
 6566TIP3   OH243892   6.989   3.324  12.021 -0.4553 -0.0117 -0.7250
 6566TIP3    H143893   6.913   3.347  12.074  0.9515 -0.7483  1.7394
 6566TIP3    H243894   7.028   3.408  11.997  1.3284  0.5380  3.2582
 6567TIP3   OH243895   0.679   7.435  12.231  0.8980  0.4023 -0.4543
 6567TIP3    H143896   0.722   7.479  12.304  2.0641 -0.0847 -0.8348
 6567TIP3    H243897   0.619   7.372  12.273  1.8471 -0.1489  0.1002
 6568TIP3   OH243898   0.710   0.683  12.747 -0.1442  0.1782 -0.3673
 6568TIP3    H143899   0.719   0.588  12.757  3.4766  0.3880 -0.3821
 6568TIP3    H243900   0.679   0.713  12.832  0.0490 -0.9087  0.1055
 6569TIP3   OH243901   2.477   3.345  11.240 -0.0515  0.6740  0.5276
 6569TIP3    H143902   2.399   3.380  11.283 -0.8578  0.2306 -0.5259
 6569TIP3    H243903   2.538   3.419  11.236 -0.4163  1.0230  1.3548
 6570TIP3   OH243904   2.599   0.073  12.392  0.0735  0.3345  0.5804
 6570TIP3    H143905   2.531   0.103  12.453  1.5321 -1.0121  3.0388
 6570TIP3    H243906   2.589  -0.022  12.390  0.9650  0.2477 -0.1977
 6571TIP3   OH243907   1.611   0.919  10.546  0.2181  0.0166 -0.7823
 6571TIP3    H143908   1.613   1.006  10.586  0.1255 -0.8935  1.3387
 6571TIP3    H243909   1.675   0.868  10.597 -1.0884 -1.6468 -0.7309
 6572TIP3   OH243910   5.418   2.345  10.233  0.1357  0.3770 -0.5095
 6572TIP3    H143911   5.425   2.272  10.173  1.3914 -0.4747  0.6139
 6572TIP3    H243912   5.423   2.306  10.320 -1.6912  1.5577  0.1952
 6573TIP3   OH243913   4.089   2.637  12.457  0.3217 -0.5806  0.4184
 6573TIP3    H143914   4.022   2.696  12.424  0.4413 -0.7164 -0.0757
 6573TIP3    H243915   4.073   2.554  12.413  0.5988 -0.7139  0.5620
 6574TIP3   OH243916   6.985   4.364  11.724 -0.4512  0.3807 -0.1991
 6574TIP3    H143917   6.890   4.377  11.721 -0.4629  0.3908  0.2269
 6574TIP3    H243918   7.004   4.314  11.644 -1.1642 -1.8839  0.9740
 6575TIP3   OH243919   0.240   7.259  11.360 -0.8076 -0.0227 -0.5730
 6575TIP3    H143920   0.225   7.200  11.434 -1.2815 -0.6319 -1.1385
 6575TIP3    H243921   0.209   7.210  11.284 -0.2807  0.5750 -1.1838
 6576TIP3   OH243922   3.857   5.603  10.492 -0.3343  0.8999  0.0534
 6576TIP3    H143923   3.841   5.695  10.510  0.1668  0.8769  0.6728
 6576TIP3    H243924   3.781   5.574  10.442 -1.2261  1.2826  1.1410
 6577TIP3   OH243925   6.589   5.423  11.408  0.1142  0.3523  0.1636
 6577TIP3    H143926   6.680   5.452  11.409  0.1588  0.5750 -2.5060
 6577TIP3    H243927   6.556   5.449  11.322 -1.9607 -1.3169  0.3494
 6578TIP3   OH243928   6.285   1.583  10.366  0.5651 -0.5959 -0.6667
 6578TIP3    H143929   6.288   1.597  10.271 -2.1643  3.3378 -0.4058
 6578TIP3    H243930   6.316   1.666  10.403  1.9930 -2.1871  1.9715
 6579TIP3   OH243931   2.365   4.834  12.890 -0.6875  0.1424 -0.0408
 6579TIP3    H143932   2.454   4.866  12.878 -0.5346 -1.1764 -3.1588
 6579TIP3    H243933   2.373   4.768  12.959  0.5919  0.4940  0.1783
 6580TIP3   OH243934   7.606   0.946  11.617  0.5655 -0.4610 -0.1396
 6580TIP3    H143935   7.532   0.895  11.585 -0.7506  0.9119  0.6342
 6580TIP3    H243936   7.681   0.912  11.568 -0.4075 -2.4570 -0.3404
 6581TIP3   OH243937   5.429   5.608  10.774  0.0220 -0.3246  0.3039
 6581TIP3    H143938   5.394   5.530  10.731 -1.3191  0.4657 -0.0972
 6581TIP3    H243939   5.491   5.644  10.710 -0.5107 -0.2245 -0.1684
 6582TIP3   OH243940   0.866   3.154  12.809 -0.6244  0.0679 -0.0276
 6582TIP3    H143941   0.873   3.142  12.904  0.2084 -2.9905 -0.3796
 6582TIP3    H243942   0.774   3.135  12.790 -0.3928 -1.1502 -0.0032
 6583TIP3   OH243943   7.448   6.350  12.049  0.3822 -0.5142 -0.0643
 6583TIP3    H143944   7.448   6.401  11.968  1.4647 -0.1436  0.1517
 6583TIP3    H243945   7.375   6.290  12.039  1.1401 -1.2350 -1.8143
 6584TIP3   OH243946   0.696   6.903  12.578  0.1543  0.7750  0.3757
 6584TIP3    H143947   0.619   6.957  12.562  0.3457  1.0697  0.4478
 6584TIP3    H243948   0.743   6.948  12.648  0.9834  1.2014 -0.4418
 6585TIP3   OH243949   1.182   4.633  12.724  0.2212  0.0161  0.5447
 6585TIP3    H143950   1.272   4.655  12.748  0.7594 -0.0507 -1.2454
 6585TIP3    H243951   1.151   4.708  12.674 -0.5232 -0.1997  0.6718
 6586TIP3   OH243952   5.286   1.830  10.770 -0.1825  0.4102 -0.5375
 6586TIP3    H143953   5.324   1.765  10.711  1.4660 -0.4998  1.3700
 6586TIP3    H243954   5.320   1.805  10.857 -1.0980  2.6751  0.5415
 6587TIP3   OH243955   5.867   0.849  12.266 -0.2661  0.0568  0.4701
 6587TIP3    H143956   5.840   0.779  12.207 -0.5354  0.6837 -0.1712
 6587TIP3    H243957   5.790   0.866  12.321  0.1025 -0.7753  1.2686
 6588TIP3   OH243958   2.092   5.764  10.525  0.1584  0.0482  0.0116
 6588TIP3    H143959   2.047   5.840  10.561  1.1064  1.2604 -1.2684
 6588TIP3    H243960   2.168   5.800  10.480  0.8595 -1.7040 -0.2761
 6589TIP3   OH243961   5.457   4.247  13.450 -0.0776  0.5501  0.1276
 6589TIP3    H143962   5.393   4.272  13.385 -0.5243 -0.0094  0.3397
 6589TIP3    H243963   5.455   4.151  13.450  1.0085  0.5175 -0.1131
 6590TIP3   OH243964   3.746   1.597  12.005  0.1434 -0.7087  0.1958
 6590TIP3    H143965   3.711   1.508  12.004 -0.1039 -0.6187  0.5795
 6590TIP3    H243966   3.688   1.644  12.065 -0.9053  0.1945 -1.4586
 6591TIP3   OH243967   3.270   0.418  10.643 -0.3442 -0.6128  0.4767
 6591TIP3    H143968   3.183   0.413  10.684 -1.2987  0.0996 -1.3535
 6591TIP3    H243969   3.254   0.400  10.551  1.4050 -0.0320  0.0222
 6592TIP3   OH243970   1.719   6.350  10.735 -0.3420  0.2697  0.1846
 6592TIP3    H143971   1.632   6.311  10.727  0.6850 -2.0119 -1.0388
 6592TIP3    H243972   1.723   6.416  10.666 -0.8274 -0.1791 -0.2792
 6593TIP3   OH243973   6.708   1.532  11.448 -0.3640 -0.0772  0.2315
 6593TIP3    H143974   6.677   1.505  11.535 -1.0329 -2.1736 -0.5872
 6593TIP3    H243975   6.641   1.498  11.388  0.5782  0.4836 -1.1771
 6594TIP3   OH243976   4.798   0.265  11.293 -0.5619 -0.2361  0.2137
 6594TIP3    H143977   4.735   0.208  11.249 -0.4797  0.3800 -0.7389
 6594TIP3    H243978   4.805   0.341  11.235 -0.7790  0.8076  1.5237
 6595TIP3   OH243979   3.362   1.864  10.989 -0.6893 -0.0059  0.1276
 6595TIP3    H143980   3.296   1.902  10.931 -0.6049 -1.6068 -1.0664
 6595TIP3    H243981   3.318   1.790  11.031 -0.2534  0.1574  0.9100
 6596TIP3   OH243982   0.456   1.136  12.386 -0.0203  0.2916 -0.3439
 6596TIP3    H143983   0.451   1.103  12.296 -0.5616  1.1150 -0.6290
 6596TIP3    H243984   0.549   1.144  12.404  0.0835  1.1295 -1.2145
 6597TIP3   OH243985   5.146   5.399  11.865 -0.0954  0.3904 -0.4995
 6597TIP3    H143986   5.064   5.386  11.818 -0.6676 -2.5129  1.0780
 6597TIP3    H243987   5.133   5.480  11.915 -1.6121  0.5130 -1.0499
 6598TIP3   OH243988   4.210   5.829  11.351  0.7481 -0.0182 -0.4180
 6598TIP3    H143989   4.218   5.756  11.413  1.2692 -1.5916 -2.2586
 6598TIP3    H243990   4.117   5.832  11.330  0.5686  0.5184  0.3699
 6599TIP3   OH243991   5.855   2.402  11.462  0.2419 -0.5440 -0.4237
 6599TIP3    H143992   5.783   2.427  11.520  0.9798  1.1783 -0.1943
 6599TIP3    H243993   5.813   2.354  11.390 -0.8200 -1.6662  0.8967
 6600TIP3   OH243994   4.225   6.586  11.251  0.3645  0.2375 -0.2290
 6600TIP3    H143995   4.205   6.680  11.250  1.6508  0.5323 -1.5195
 6600TIP3    H243996   4.210   6.560  11.342 -2.8412  1.0089 -0.4017
 6601TIP3   OH243997   0.683   3.968  12.954  0.2793 -0.1194  0.4502
 6601TIP3    H143998   0.678   3.889  13.008  0.8081 -0.1343  0.4839
 6601TIP3    H243999   0.591   3.991  12.937  0.1118 -0.3098  1.0613
 6602TIP3   OH244000   4.548   1.544  12.558 -0.3840 -0.1200  0.2167
 6602TIP3    H144001   4.535   1.612  12.491 -1.2805  0.3286  0.8224
 6602TIP3    H244002   4.642   1.532  12.562 -0.3436 -0.6302 -1.5909
 6603TIP3   OH244003   0.654   4.377  10.720  0.4181 -0.3803 -0.0580
 6603TIP3    H144004   0.565   4.369  10.755 -0.0507 -1.5360 -1.3929
 6603TIP3    H244005   0.688   4.287  10.722 -0.2674 -0.9041 -3.9597
 6604TIP3   OH244006   3.356   5.741  10.557 -0.5494 -0.2104 -0.2232
 6604TIP3    H144007   3.294   5.798  10.604  2.2211 -0.1492  3.8817
 6604TIP3    H244008   3.440   5.785  10.566  1.0560 -3.0391 -0.4594
 6605TIP3   OH244009   1.733   5.563  11.778 -0.3865 -0.0725 -0.7186
 6605TIP3    H144010   1.781   5.589  11.699 -2.2991  0.8629 -1.6345
 6605TIP3    H244011   1.772   5.478  11.802  2.7667  1.2940 -0.4229
 6606TIP3   OH244012   0.093   1.942  12.821 -0.1703 -0.0295  0.0738
 6606TIP3    H144013   0.184   1.969  12.808 -0.3273  0.8232  0.6494
 6606TIP3    H244014   0.084   1.931  12.916 -0.4929 -0.7482 -0.0350
 6607TIP3   OH244015   6.503   6.798  12.671 -0.6650  0.0078  0.1016
 6607TIP3    H144016   6.525   6.891  12.676 -1.6009  0.2548 -0.1869
 6607TIP3    H244017   6.421   6.790  12.719  0.0250 -0.8967  1.1831
 6608TIP3   OH244018   6.031   2.173  11.458 -0.4897 -0.4192  0.3582
 6608TIP3    H144019   6.024   2.249  11.400  1.2467 -0.3991  0.1165
 6608TIP3    H244020   6.108   2.192  11.512 -0.3038 -1.7930  0.5943
 6609TIP3   OH244021   1.514   2.688  12.916 -0.0235  0.6451  0.8924
 6609TIP3    H144022   1.419   2.673  12.918 -0.1194  1.2697  1.8853
 6609TIP3    H244023   1.527   2.767  12.968  1.1530 -0.1440  1.8748
 6610TIP3   OH244024   1.669   2.798  17.725  0.6917 -0.5800 -0.5522
 6610TIP3    H144025   1.722   2.878  17.716  0.9511 -0.5711  0.8602
 6610TIP3    H244026   1.712   2.735  17.667  0.6247  0.2245 -1.5088
 6611TIP3   OH244027   2.420   2.300  11.394  0.0755  0.7182  0.1247
 6611TIP3    H144028   2.504   2.274  11.432  0.9538  1.1784 -1.4021
 6611TIP3    H244029   2.377   2.218  11.372  1.1582  0.4558 -1.1778
 6612TIP3   OH244030   1.932   4.486  12.059 -0.0267  0.0777 -0.6310
 6612TIP3    H144031   1.918   4.567  12.011  1.0251  1.0716  0.6899
 6612TIP3    H244032   1.871   4.424  12.018 -0.2914  1.2879 -2.1820
 6613TIP3   OH244033   4.816   6.886  11.931 -0.5126 -0.2782  0.2162
 6613TIP3    H144034   4.909   6.898  11.952 -1.0117  1.9626  1.4924
 6613TIP3    H244035   4.814   6.809  11.874  2.4992  1.4323 -2.5762
 6614TIP3   OH244036   7.193   4.119  12.594 -0.3980  0.0500  0.0339
 6614TIP3    H144037   7.151   4.045  12.549  0.1576  0.9741 -2.1342
 6614TIP3    H244038   7.153   4.197  12.555 -0.1429  0.9238  1.4526
 6615TIP3   OH244039   1.729   3.718  12.886  0.5176  0.1242  0.1904
 6615TIP3    H144040   1.737   3.625  12.907  0.4057  0.1148  0.1915
 6615TIP3    H244041   1.740   3.763  12.969 -3.7223 -0.0640  1.0549
 6616TIP3   OH244042   1.926   3.017  10.245 -0.2083 -0.0284  0.2498
 6616TIP3    H144043   1.981   3.062  10.180  0.9114 -0.1728  1.0534
 6616TIP3    H244044   1.930   3.074  10.322 -1.0995 -0.1142  0.3696
 6617TIP3   OH244045   5.641   4.631  10.434  0.1683 -0.1660 -0.1568
 6617TIP3    H144046   5.572   4.697  10.445 -0.4444 -1.0505  1.8390
 6617TIP3    H244047   5.594   4.552  10.407  0.4152 -0.6430  0.7403
 6618TIP3   OH244048   7.503   3.106  10.966  0.0323 -0.0656 -0.3402
 6618TIP3    H144049   7.420   3.071  10.998  0.3031 -0.0676  0.3653
 6618TIP3    H244050   7.566   3.035  10.980  0.3432  0.2786  0.0133
 6619TIP3   OH244051   5.471   3.412  12.058  0.0209  0.0357  0.4306
 6619TIP3    H144052   5.560   3.415  12.023 -0.3573  0.5015 -0.5376
 6619TIP3    H244053   5.447   3.320  12.055  1.2072 -0.4259  2.6997
 6620TIP3   OH244054   0.003   5.379  12.048 -0.0183  0.6218  0.0567
 6620TIP3    H144055   0.013   5.469  12.080 -1.4991  0.4965  0.9443
 6620TIP3    H244056   0.083   5.364  11.996  0.8303  2.0154  0.8728
 6621TIP3   OH244057   1.569   1.342  11.842 -0.1741  0.1779 -0.2257
 6621TIP3    H144058   1.570   1.375  11.753  4.3126 -0.9538 -0.8482
 6621TIP3    H244059   1.493   1.383  11.883 -2.9371  0.0830 -4.6889
 6622TIP3   OH244060   7.516   4.750  12.279 -0.0306 -0.1476 -0.4908
 6622TIP3    H144061   7.580   4.681  12.259  0.3357  0.1958 -0.5068
 6622TIP3    H244062   7.563   4.811  12.336 -1.3314 -1.5902  2.3308
 6623TIP3   OH244063   7.366   2.912  11.296  0.0579  0.1414  1.3076
 6623TIP3    H144064   7.345   2.890  11.205  0.6648  1.2578  0.8772
 6623TIP3    H244065   7.459   2.891  11.305  0.2782  1.0893  1.3264
 6624TIP3   OH244066   7.553   7.599  12.073 -0.0439 -0.9345 -0.0342
 6624TIP3    H144067   7.637   7.641  12.057 -0.1879 -0.3262  0.7460
 6624TIP3    H244068   7.524   7.633  12.158 -0.8846 -1.4484 -0.0939
 6625TIP3   OH244069   5.175   3.337  10.396  0.1917  0.0938  0.3815
 6625TIP3    H144070   5.195   3.420  10.440  1.2731  0.7863 -1.2984
 6625TIP3    H244071   5.225   3.341  10.314 -1.6692 -1.1183 -0.8996
 6626TIP3   OH244072   5.483   2.921  13.645 -0.3383  0.2174  0.5638
 6626TIP3    H144073   5.569   2.961  13.632  0.6863 -2.2142 -0.9275
 6626TIP3    H244074   5.455   2.895  13.557 -1.6786 -0.8102  1.2452
 6627TIP3   OH244075   4.448   1.028  12.471 -0.0169  0.2140 -0.4740
 6627TIP3    H144076   4.459   1.096  12.404  1.5433 -0.4309 -0.9108
 6627TIP3    H244077   4.425   1.077  12.550  1.5910  1.3315 -0.6491
 6628TIP3   OH244078   2.903   6.382  12.897  0.2079  0.1724  0.0426
 6628TIP3    H144079   2.959   6.459  12.894 -0.0458  0.3917  0.7975
 6628TIP3    H244080   2.897   6.353  12.806  0.1734  1.1354 -0.2730
 6629TIP3   OH244081   7.170   5.279  11.965  0.3332 -0.1264 -0.4357
 6629TIP3    H144082   7.226   5.297  12.040  0.4635 -1.2227 -0.2600
 6629TIP3    H244083   7.228   5.289  11.889  0.5500 -0.4118 -0.3071
 6630TIP3   OH244084   0.177   3.874  13.454 -0.3782 -0.1616  0.0675
 6630TIP3    H144085   0.252   3.900  13.508 -1.6137  0.2660  1.6758
 6630TIP3    H244086   0.172   3.779  13.465 -1.1858  0.0156  1.5796
 6631TIP3   OH244087   3.891   3.933  10.323  0.1374 -0.0646  0.0603
 6631TIP3    H144088   3.898   3.940  10.228  2.1527  1.2435  0.2359
 6631TIP3    H244089   3.981   3.919  10.352 -0.3320  0.3282  1.8187
 6632TIP3   OH244090   4.937   5.966  11.004 -0.0813 -0.0455  0.1876
 6632TIP3    H144091   4.977   6.007  11.081 -1.2777  2.6887 -0.5015
 6632TIP3    H244092   5.006   5.967  10.938  0.0273  0.6182  0.2983
 6633TIP3   OH244093   3.688   2.080  10.505 -0.4046 -0.7484  0.5792
 6633TIP3    H144094   3.713   1.988  10.497  4.1620  0.1445  1.4704
 6633TIP3    H244095   3.741   2.125  10.439  1.1133  1.5675  3.1497
 6634TIP3   OH244096   7.652   0.377  11.621 -0.7759 -0.2082 -0.2081
 6634TIP3    H144097   7.690   0.439  11.559  1.2798  0.2216  1.4121
 6634TIP3    H244098   7.577   0.423  11.658 -0.0151  0.8335  0.0606
 6635TIP3   OH244099   0.749   4.083  10.792 -0.1063  0.0459 -0.2429
 6635TIP3    H144100   0.670   4.045  10.754 -0.3159  0.1867  0.0491
 6635TIP3    H244101   0.737   4.076  10.887  0.7630 -1.0143 -0.1923
 6636TIP3   OH244102   1.198   0.270  12.158  0.2611  0.0803 -0.5147
 6636TIP3    H144103   1.145   0.191  12.171  0.6320 -0.3421 -1.4658
 6636TIP3    H244104   1.278   0.238  12.116  1.7601  0.5341  1.7624
 6637TIP3   OH244105   5.011   6.716  12.593  0.3112  0.2198  0.8660
 6637TIP3    H144106   5.072   6.682  12.527  0.8347  1.2832  0.7849
 6637TIP3    H244107   4.989   6.804  12.564 -1.9093 -0.3931  0.4874
 6638TIP3   OH244108   5.962   1.840  11.080 -0.0598 -0.3688  0.1501
 6638TIP3    H144109   5.921   1.793  11.153 -0.1651  1.8763  1.6118
 6638TIP3    H244110   6.040   1.788  11.059  1.1030 -0.0920  3.2420
 6639TIP3   OH244111   1.862   6.638  11.779  0.0680 -0.1021 -0.4190
 6639TIP3    H144112   1.902   6.635  11.865  1.6984  1.7747 -1.0533
 6639TIP3    H244113   1.862   6.547  11.749 -1.8661 -1.0313  2.0564
 6640TIP3   OH244114   3.485   5.392  11.509 -0.7001  0.3219 -0.2484
 6640TIP3    H144115   3.432   5.469  11.489 -1.5173 -0.1455  0.0719
 6640TIP3    H244116   3.464   5.371  11.600 -1.4062 -0.9763 -0.6791
 6641TIP3   OH244117   2.561   5.687  12.077 -0.0771  0.1194  0.0696
 6641TIP3    H144118   2.625   5.712  12.010 -1.0641  1.2027 -0.5021
 6641TIP3    H244119   2.614   5.646  12.146  1.0541 -0.3105 -1.0091
 6642TIP3   OH244120   3.999   5.628  11.910 -0.0719  0.6394 -0.6335
 6642TIP3    H144121   3.906   5.648  11.903  0.1119  2.3106  0.7187
 6642TIP3    H244122   4.029   5.685  11.982  1.1801 -2.7250  1.7388
 6643TIP3   OH244123   6.238   5.587  11.266  0.0459 -0.7361 -0.4999
 6643TIP3    H144124   6.204   5.517  11.321  0.4283  0.4593  1.3422
 6643TIP3    H244125   6.319   5.551  11.230  0.3705 -1.1838  0.6160
 6644TIP3   OH244126   6.173   1.329  10.876  0.0594 -0.1396 -0.5777
 6644TIP3    H144127   6.249   1.279  10.849 -0.3542 -0.8456 -0.4615
 6644TIP3    H244128   6.098   1.272  10.858 -0.3706  0.1430  0.2323
 6645TIP3   OH244129   4.965   6.714  10.866 -0.0504  0.2647 -0.1478
 6645TIP3    H144130   4.966   6.803  10.829 -0.2503  0.0749 -0.6189
 6645TIP3    H244131   4.873   6.693  10.875 -0.1276  1.3903  3.1899
 6646TIP3   OH244132   2.921   3.648  10.469 -0.0857  0.6192 -0.1322
 6646TIP3    H144133   3.012   3.620  10.480 -0.6490 -0.6248  1.7417
 6646TIP3    H244134   2.923   3.704  10.391  2.0707 -0.2991 -0.8193
 6647TIP3   OH244135   4.308   4.077  12.733  0.1937  0.2003  0.3947
 6647TIP3    H144136   4.254   4.126  12.795 -0.5807  1.9659 -1.5859
 6647TIP3    H244137   4.386   4.131  12.720 -0.3588  0.6612 -1.2909
 6648TIP3   OH244138   4.684   6.848  11.077 -0.3061 -0.2762 -0.3676
 6648TIP3    H144139   4.598   6.838  11.117  0.3232 -0.6338  0.9481
 6648TIP3    H244140   4.670   6.828  10.984 -1.4028 -1.6003  0.0521
 6649TIP3   OH244141   7.273   3.263  11.641 -0.1225  0.9842  0.9972
 6649TIP3    H144142   7.318   3.269  11.557 -0.5740 -1.2279  0.5222
 6649TIP3    H244143   7.335   3.219  11.698 -0.9500 -0.4103  0.8676
 6650TIP3   OH244144   2.710   3.741  11.568 -0.0185 -0.3273  0.4263
 6650TIP3    H144145   2.716   3.813  11.630 -1.3535  1.2304 -1.1136
 6650TIP3    H244146   2.617   3.738  11.544  0.0408 -2.4641  0.2989
 6651TIP3   OH244147   1.856   5.896  11.084 -0.1495  1.0512 -0.3226
 6651TIP3    H144148   1.886   5.814  11.125 -1.4422  0.8846  0.3523
 6651TIP3    H244149   1.893   5.965  11.139  0.0844  0.8921 -0.2781
 6652TIP3   OH244150   3.910   2.674  10.697 -0.5987  0.0953 -0.2682
 6652TIP3    H144151   3.908   2.720  10.613 -0.5755  0.2046 -0.2091
 6652TIP3    H244152   3.895   2.742  10.762  0.0439  0.1185 -0.1397
 6653TIP3   OH244153   4.961   5.795  12.112  0.4978  0.4684 -0.3769
 6653TIP3    H144154   4.981   5.888  12.106  0.1625  0.4778 -1.6861
 6653TIP3    H244155   4.939   5.781  12.204  2.2751  1.3021  0.2146
 6654TIP3   OH244156   6.246   7.327  11.334  0.1300 -0.1904 -0.5345
 6654TIP3    H144157   6.276   7.237  11.328  0.1040 -0.1240 -1.8548
 6654TIP3    H244158   6.150   7.320  11.333  0.1264 -0.1351 -1.1217
 6655TIP3   OH244159   7.284   0.012  12.223  0.4920  0.3467 -0.3126
 6655TIP3    H144160   7.229  -0.039  12.164 -0.1379  1.8217 -1.0592
 6655TIP3    H244161   7.244   0.099  12.224  1.0814  0.6425  1.5176
 6656TIP3   OH244162   1.007   4.310  13.215  0.0898  0.0885 -0.1863
 6656TIP3    H144163   0.963   4.360  13.284 -1.6305  1.7839 -2.3625
 6656TIP3    H244164   0.955   4.231  13.204 -0.3648  0.4078 -0.3565
 6657TIP3   OH244165   6.388   4.097  12.242 -0.1345 -0.2234  0.0247
 6657TIP3    H144166   6.331   4.040  12.189  1.4853  0.0595 -2.1482
 6657TIP3    H244167   6.328   4.158  12.285 -1.5133  0.4664 -2.6528
 6658TIP3   OH244168   3.861   6.563  11.260  0.4753  0.1453  0.7527
 6658TIP3    H144169   3.852   6.654  11.287  2.3275  0.4508  0.4711
 6658TIP3    H244170   3.890   6.568  11.169 -1.5719 -0.8062 -0.0226
 6659TIP3   OH244171   6.344   4.222  11.781  0.0858  0.8066  0.0738
 6659TIP3    H144172   6.385   4.166  11.846 -0.4300  1.1619  0.7168
 6659TIP3    H244173   6.417   4.260  11.732  0.5308  1.3937  1.1674
 6660TIP3   OH244174   0.237   1.890  11.854  0.2358  0.6717 -0.2273
 6660TIP3    H144175   0.165   1.887  11.791  0.7042 -4.4049 -0.9407
 6660TIP3    H244176   0.207   1.837  11.928  2.5819 -0.2344  0.1790
 6661TIP3   OH244177   4.427   3.242  13.460  1.0664 -0.0923 -0.1503
 6661TIP3    H144178   4.337   3.212  13.448  0.5919  1.7235 -1.7361
 6661TIP3    H244179   4.479   3.162  13.461 -0.3675 -1.1116 -1.2699
 6662TIP3   OH244180   3.931   6.020  11.518 -0.3923  0.1566 -0.0932
 6662TIP3    H144181   3.943   6.005  11.424 -0.5205  2.0474 -0.4543
 6662TIP3    H244182   3.862   6.087  11.523  0.4739  0.9956  1.2681
 6663TIP3   OH244183   1.189   3.787  10.191 -0.9394 -0.0749 -0.1876
 6663TIP3    H144184   1.162   3.868  10.148 -0.2264 -0.2394 -0.9783
 6663TIP3    H244185   1.115   3.764  10.248 -1.8816  0.2089 -1.2622
 6664TIP3   OH244186   7.394   2.054  10.607 -0.1439 -0.0848  0.0125
 6664TIP3    H144187   7.308   2.034  10.568  0.6891  0.1783 -2.1243
 6664TIP3    H244188   7.428   2.126  10.553  2.1326 -1.3181 -0.3148
 6665TIP3   OH244189   0.335   5.724  12.439  0.4865 -0.3017 -0.0024
 6665TIP3    H144190   0.333   5.630  12.458  0.9067 -0.4855 -0.8453
 6665TIP3    H244191   0.416   5.754  12.480  0.3658 -0.3100  0.2443
 6666TIP3   OH244192   6.557   5.353  13.254 -0.7769 -0.1134 -0.0205
 6666TIP3    H144193   6.506   5.346  13.173 -2.4465  0.0713  0.9513
 6666TIP3    H244194   6.583   5.445  13.259 -1.2011  0.0113 -0.0639
 6667TIP3   OH244195   0.858   7.410  12.743  0.3066 -0.3491  0.0844
 6667TIP3    H144196   0.845   7.501  12.769  1.5803 -0.4507  1.2082
 6667TIP3    H244197   0.941   7.410  12.695  0.8650 -1.0523  1.0107
 6668TIP3   OH244198   6.771   7.190  12.348 -0.0604  0.4536 -0.2404
 6668TIP3    H144199   6.842   7.127  12.359 -0.1271  0.6511  1.5397
 6668TIP3    H244200   6.692   7.136  12.341  0.1750  0.2514 -1.8522
 6669TIP3   OH244201   3.379   2.192  12.087 -0.5521  0.1028  0.2274
 6669TIP3    H144202   3.456   2.140  12.110 -0.3259  0.2433 -0.1922
 6669TIP3    H244203   3.349   2.229  12.170  0.9886  1.6278  0.1690
 6670TIP3   OH244204   1.056   0.974  11.737  0.0069 -0.2252 -0.0064
 6670TIP3    H144205   1.049   0.903  11.801  0.2935 -1.3414 -1.1770
 6670TIP3    H244206   0.998   0.947  11.666 -0.9950  1.4278  0.1462
 6671TIP3   OH244207   0.855   3.997  11.960 -0.2464 -0.6748  0.6487
 6671TIP3    H144208   0.813   3.926  12.009  0.4840 -1.6760 -0.1166
 6671TIP3    H244209   0.925   4.028  12.017 -1.0354 -0.0401  1.2952
 6672TIP3   OH244210   3.394   6.477  10.704 -0.6133 -0.1017 -0.7565
 6672TIP3    H144211   3.441   6.414  10.758 -1.1256  0.5957  0.5641
 6672TIP3    H244212   3.454   6.498  10.632  0.9762  0.5067  0.6721
 6673TIP3   OH244213   5.272   4.907  11.920 -0.9797  0.2114 -0.2881
 6673TIP3    H144214   5.298   4.997  11.898 -0.7773  0.2895  0.2531
 6673TIP3    H244215   5.183   4.899  11.886 -1.3075  0.8936  0.3725
 6674TIP3   OH244216   6.231   4.280  12.409  0.2866 -0.5737 -0.0966
 6674TIP3    H144217   6.246   4.254  12.500 -0.9859  1.5086  0.7673
 6674TIP3    H244218   6.143   4.317  12.408  0.6228  0.3143 -1.9782
 6675TIP3   OH244219   5.604   4.730  13.219  0.0792 -0.0649  0.3516
 6675TIP3    H144220   5.522   4.690  13.248  0.5665 -1.1762  0.2234
 6675TIP3    H244221   5.665   4.657  13.208  0.3478  0.4172 -2.0773
 6676TIP3   OH244222   6.650   1.227  10.931  0.0190 -0.5617  0.4692
 6676TIP3    H144223   6.607   1.192  11.009  2.3850 -2.5498  1.0153
 6676TIP3    H244224   6.668   1.319  10.953 -3.7797  0.4105  0.1547
 6677TIP3   OH244225   1.889   1.418  10.964 -0.2394 -0.2643 -0.6514
 6677TIP3    H144226   1.874   1.454  11.051  0.1996  0.6469 -0.9440
 6677TIP3    H244227   1.925   1.331  10.980  0.3974  0.1304  0.0824
 6678TIP3   OH244228   5.519   0.548  11.006  0.0048 -0.3150 -0.1248
 6678TIP3    H144229   5.510   0.644  11.001 -2.7936 -0.4517  0.8376
 6678TIP3    H244230   5.573   0.533  11.083  1.7375  0.4756 -1.1277
 6679TIP3   OH244231   3.847   5.331  10.696 -0.0369  0.6880  0.5832
 6679TIP3    H144232   3.838   5.353  10.788 -1.1389  0.3124  0.5714
 6679TIP3    H244233   3.759   5.338  10.660  0.1307 -0.5397 -0.1291
 6680TIP3   OH244234   7.526   0.767  10.618 -0.9494 -0.1168 -0.3187
 6680TIP3    H144235   7.483   0.831  10.675  0.2356 -0.0728  0.5682
 6680TIP3    H244236   7.494   0.788  10.531 -0.1137  2.1485 -0.1689
 6681TIP3   OH244237   5.811   6.629  12.808 -0.1372  0.0131 -0.3828
 6681TIP3    H144238   5.874   6.701  12.799 -0.7491  0.5565 -0.3641
 6681TIP3    H244239   5.863   6.550  12.794  0.9073  0.3505  1.3135
 6682TIP3   OH244240   4.553   0.356  10.914 -0.0192 -0.0808 -0.2973
 6682TIP3    H144241   4.610   0.288  10.880 -0.5886  0.2907 -2.0762
 6682TIP3    H244242   4.593   0.438  10.886 -0.5958  0.2330 -0.2305
 6683TIP3   OH244243   4.052   5.523  12.633 -0.2685  0.4982  0.2616
 6683TIP3    H144244   4.108   5.445  12.632 -1.7084 -0.5871 -1.5020
 6683TIP3    H244245   3.980   5.501  12.692  0.1703  1.1976  1.0952
 6684TIP3   OH244246   0.455   3.068  10.539 -0.5549 -0.5037 -0.1480
 6684TIP3    H144247   0.519   3.131  10.505  1.4570 -1.1573  2.0691
 6684TIP3    H244248   0.391   3.122  10.586  1.3211  0.0472  2.0071
 6685TIP3   OH244249   3.210   2.506  11.605 -0.2630  0.2555  0.7736
 6685TIP3    H144250   3.283   2.538  11.658  1.0040 -1.8501  0.3916
 6685TIP3    H244251   3.236   2.525  11.515 -0.1343 -0.5804  0.6288
 6686TIP3   OH244252   0.344   5.456  12.472 -0.0399  0.4826  0.2674
 6686TIP3    H144253   0.295   5.407  12.405  0.2097  0.7129 -0.0855
 6686TIP3    H244254   0.325   5.410  12.553  1.3492 -1.0804 -0.2538
 6687TIP3   OH244255   7.680   4.736  12.696 -0.6785  0.4460 -0.1225
 6687TIP3    H144256   7.755   4.698  12.650 -1.1347 -0.4965 -0.0983
 6687TIP3    H244257   7.641   4.796  12.632  0.4973  1.5194  0.1032
 6688TIP3   OH244258   5.027   4.489  10.735 -0.5586  0.7932 -0.5240
 6688TIP3    H144259   5.030   4.541  10.815 -1.6683  1.5829 -0.9789
 6688TIP3    H244260   5.119   4.478  10.711 -0.1899  0.1557  1.0852
 6689TIP3   OH244261   0.430   6.170  11.359 -0.0389 -0.0092  0.2852
 6689TIP3    H144262   0.415   6.155  11.266  0.0957  0.4733  0.1796
 6689TIP3    H244263   0.447   6.084  11.396 -0.7509 -0.2830 -0.0147
 6690TIP3   OH244264   1.791   0.497  11.262 -0.0175  0.5243  0.4242
 6690TIP3    H144265   1.807   0.404  11.247  1.0210  0.5238  1.3380
 6690TIP3    H244266   1.869   0.527  11.311 -0.4809  1.7918  0.4302
 6691TIP3   OH244267   3.228   1.189  11.443 -0.2019 -0.0820 -0.4723
 6691TIP3    H144268   3.155   1.166  11.386 -0.6594  0.0963  0.0272
 6691TIP3    H244269   3.249   1.108  11.490 -3.0199  0.7398  2.6445
 6692TIP3   OH244270   0.486   5.279  12.245  0.2261  0.1891 -0.0690
 6692TIP3    H144271   0.505   5.282  12.339  0.0366  2.4595 -0.0527
 6692TIP3    H244272   0.568   5.306  12.203  0.3600 -0.9657 -0.5883
 6693TIP3   OH244273   2.225   2.526  13.505 -0.2810 -0.1209  0.0656
 6693TIP3    H144274   2.233   2.551  13.412  0.2956 -1.6809 -0.3364
 6693TIP3    H244275   2.286   2.453  13.515 -1.8731 -1.3887  1.1459
 6694TIP3   OH244276   5.510   5.579  12.444  0.1971 -0.6204  0.0540
 6694TIP3    H144277   5.416   5.559  12.444  0.1345 -0.3516  0.6111
 6694TIP3    H244278   5.515   5.674  12.441  0.4618 -0.6482 -0.4287
 6695TIP3   OH244279   4.641   3.475  10.568  0.3058 -0.0185 -0.0228
 6695TIP3    H144280   4.688   3.401  10.606  1.5971  1.0295  0.5179
 6695TIP3    H244281   4.574   3.497  10.633  0.8840  0.2083  0.5032
 6696TIP3   OH244282   5.022   6.165  10.689  0.1160  0.0395  0.2298
 6696TIP3    H144283   4.990   6.098  10.750 -3.1276  0.5349 -0.7279
 6696TIP3    H244284   5.009   6.248  10.734 -0.7088  0.2972 -0.4503
 6697TIP3   OH244285   4.383   3.445  10.966 -0.7429 -0.3694  0.8518
 6697TIP3    H144286   4.464   3.413  11.007  0.5913  0.5202 -0.9846
 6697TIP3    H244287   4.357   3.519  11.020 -0.2667 -0.5681  1.3742
 6698TIP3   OH244288   6.244   1.541  12.545  0.5221 -0.0576  0.7453
 6698TIP3    H144289   6.306   1.614  12.547 -0.5424  0.9424 -0.7631
 6698TIP3    H244290   6.159   1.581  12.563 -0.1943 -0.7572 -0.8847
 6699TIP3   OH244291   3.716   3.739  10.820 -0.0417  0.0311 -0.7793
 6699TIP3    H144292   3.766   3.802  10.872  0.9926 -1.3473 -0.0351
 6699TIP3    H244293   3.629   3.778  10.812  0.9354  2.2021 -1.5615
 6700TIP3   OH244294   0.259   4.834  12.281  0.1498  0.1849  0.3410
 6700TIP3    H144295   0.203   4.854  12.206  0.6438 -0.7381 -0.2874
 6700TIP3    H244296   0.334   4.788  12.244 -0.0620 -1.1724  1.5012
 6701TIP3   OH244297   0.876   0.652  12.352  0.2437  0.3236  0.4472
 6701TIP3    H144298   0.795   0.612  12.383 -0.4699  1.3360 -0.0766
 6701TIP3    H244299   0.917   0.584  12.298  0.9844 -1.0807  2.6678
 6702TIP3   OH244300   5.624   0.811  10.964  0.3958 -0.1010  0.2789
 6702TIP3    H144301   5.551   0.853  10.918  0.6335 -3.1683 -3.4021
 6702TIP3    H244302   5.702   0.839  10.916  0.9696 -1.3419  0.4526
 6703TIP3   OH244303   2.975   0.325  10.706  0.3510  0.2689  0.3024
 6703TIP3    H144304   2.922   0.270  10.649  1.4161 -1.6825  1.0552
 6703TIP3    H244305   2.921   0.401  10.725 -1.3186 -0.6352 -0.6217
 6704TIP3   OH244306   3.845   1.271  11.248 -0.2203 -0.3570  0.1916
 6704TIP3    H144307   3.817   1.324  11.323 -0.0635  0.0619 -0.0447
 6704TIP3    H244308   3.858   1.334  11.178  1.1372 -0.5573  0.2415
 6705TIP3   OH244309   5.545   6.722  11.458 -0.0230 -1.1413 -0.3122
 6705TIP3    H144310   5.550   6.665  11.535 -1.7508 -0.4772  0.3517
 6705TIP3    H244311   5.573   6.808  11.491 -0.8294 -0.8418 -0.3930
 6706TIP3   OH244312   2.135   3.070  10.503  0.0592  0.4917  0.2075
 6706TIP3    H144313   2.140   3.138  10.570 -2.0962  0.7675  0.1635
 6706TIP3    H244314   2.145   3.117  10.420 -0.0201  0.5526  0.2321
 6707TIP3   OH244315   3.578   4.153  10.603 -0.3086 -0.4215  0.3080
 6707TIP3    H144316   3.515   4.190  10.541 -1.7512 -1.8159  0.8689
 6707TIP3    H244317   3.640   4.104  10.548 -0.5944 -0.2749 -0.1485
 6708TIP3   OH244318   3.323   1.676  13.335  0.4910 -0.0055  0.2607
 6708TIP3    H144319   3.381   1.624  13.279 -0.0684 -0.3079 -0.0424
 6708TIP3    H244320   3.371   1.757  13.351  0.4172  0.3248 -1.1231
 6709TIP3   OH244321   0.071   2.450  10.736  0.2118  0.0463 -0.2496
 6709TIP3    H144322   0.157   2.474  10.770 -0.0423  1.7420 -0.7279
 6709TIP3    H244323   0.061   2.501  10.656 -0.3696 -1.7707 -1.4048
 6710TIP3   OH244324   3.664   6.617  11.571  0.0198 -0.3172 -0.8000
 6710TIP3    H144325   3.618   6.605  11.654 -0.4985 -0.4624 -1.1049
 6710TIP3    H244326   3.748   6.573  11.583  0.0158 -0.1878 -0.2955
 6711TIP3   OH244327   4.692   7.419  11.941  0.4365 -0.2022  0.4676
 6711TIP3    H144328   4.710   7.326  11.927 -0.4835 -0.4489  0.7952
 6711TIP3    H244329   4.736   7.440  12.023  1.6302 -0.0404 -0.2052
 6712TIP3   OH244330   6.738   2.812  13.158  0.3662  0.5388  0.3087
 6712TIP3    H144331   6.643   2.801  13.150  0.4802 -0.8042  0.6739
 6712TIP3    H244332   6.767   2.830  13.068 -0.3496  2.1268  0.3599
 6713TIP3   OH244333   1.945   2.494  13.539 -0.5759  0.0408  0.1123
 6713TIP3    H144334   1.907   2.568  13.585  1.1016  0.7273  0.4916
 6713TIP3    H244335   2.039   2.515  13.533  0.0151 -2.1682  0.5273
 6714TIP3   OH244336   4.657   6.327  12.262 -0.2534  0.0770 -0.5143
 6714TIP3    H144337   4.635   6.411  12.223 -0.6559  0.4953  0.5628
 6714TIP3    H244338   4.636   6.262  12.195  0.2590  0.8444 -1.4272
 6715TIP3   OH244339   5.198   2.548  12.596 -0.1660  0.0365  0.3908
 6715TIP3    H144340   5.284   2.584  12.574 -0.5152  0.3310 -0.5264
 6715TIP3    H244341   5.194   2.465  12.548 -0.2918 -0.1169  0.6607
 6716TIP3   OH244342   3.439   3.526  11.869 -0.3331 -0.3062  0.0862
 6716TIP3    H144343   3.347   3.533  11.846  0.2581 -0.1816 -2.5526
 6716TIP3    H244344   3.474   3.459  11.810  1.7767  1.4634 -0.8032
 6717TIP3   OH244345   5.640   3.159  10.462 -0.7337 -0.2562  0.4514
 6717TIP3    H144346   5.545   3.168  10.458 -0.7031  1.8550  2.2709
 6717TIP3    H244347   5.658   3.125  10.550  0.1942  0.1271  0.4309
 6718TIP3   OH244348   3.816   4.258  13.525  0.7640  0.4809 -0.4723
 6718TIP3    H144349   3.895   4.217  13.491 -0.3718 -1.1552 -1.3100
 6718TIP3    H244350   3.751   4.247  13.455 -0.5440  0.6165  0.6687
 6719TIP3   OH244351   5.409   7.176  10.490  0.3614 -0.2492  0.2631
 6719TIP3    H144352   5.434   7.234  10.563 -3.7812  0.6789  1.2161
 6719TIP3    H244353   5.398   7.090  10.531  0.6557 -0.3452  0.1415
 6720TIP3   OH244354   7.048   3.905  12.475  0.7177  0.1967  0.3334
 6720TIP3    H144355   7.068   3.897  12.382  0.9457  0.8989  0.3175
 6720TIP3    H244356   6.957   3.877  12.483  0.9239 -0.5810  0.0183
 6721TIP3   OH244357   3.259   4.189  10.691  0.0317 -0.6824  0.1184
 6721TIP3    H144358   3.280   4.270  10.646 -0.1843  0.2238  1.5640
 6721TIP3    H244359   3.340   4.165  10.737 -0.1973 -0.7004  0.5250
 6722TIP3   OH244360   6.844   4.475  13.078 -0.0100 -0.1116 -0.0303
 6722TIP3    H144361   6.870   4.383  13.081  0.3684 -0.2216 -3.1663
 6722TIP3    H244362   6.925   4.523  13.063 -0.2920  0.6834  0.9001
 6723TIP3   OH244363   7.326   6.437  12.617 -0.2809 -0.1833  0.7896
 6723TIP3    H144364   7.374   6.464  12.538  2.1520  0.0171  2.2124
 6723TIP3    H244365   7.255   6.501  12.625  1.4873  1.9475  0.5719
 6724TIP3   OH244366   5.803   3.918  13.070 -0.1178 -0.5052  0.0156
 6724TIP3    H144367   5.803   3.903  13.165 -1.5489  1.5177  0.4118
 6724TIP3    H244368   5.879   3.974  13.054  0.1411 -0.8716 -0.0463
 6725TIP3   OH244369   2.707   4.582  13.256 -0.4452 -0.4452  0.2865
 6725TIP3    H144370   2.739   4.598  13.344 -0.1689  0.1893  0.0754
 6725TIP3    H244371   2.680   4.668  13.224  0.1175 -0.5454 -0.5003
 6726TIP3   OH244372   5.265   1.176  10.758 -0.7046  0.3468 -0.2698
 6726TIP3    H144373   5.172   1.191  10.778  0.0579  3.0858  1.8684
 6726TIP3    H244374   5.289   1.099  10.809 -1.5968  0.1757 -0.0937
 6727TIP3   OH244375   7.303   3.764  12.944 -0.4358  0.4364  0.4132
 6727TIP3    H144376   7.232   3.707  12.971 -0.3613 -0.5031 -1.2514
 6727TIP3    H244377   7.382   3.722  12.977 -0.3860 -0.4071 -0.7592
 6728TIP3   OH244378   6.216   3.856  11.002 -0.0239  0.3077  0.0069
 6728TIP3    H144379   6.130   3.893  10.985 -1.2983 -2.2887  0.2434
 6728TIP3    H244380   6.277   3.925  10.977 -2.1279  3.3607  2.5543
 6729TIP3   OH244381   5.211   2.584  11.671 -0.4290  0.2039  0.1332
 6729TIP3    H144382   5.190   2.495  11.642  2.4169 -0.4928 -0.1043
 6729TIP3    H244383   5.268   2.619  11.602 -0.9904  2.0151  0.5230
 6730TIP3   OH244384   3.768   0.712  10.950 -0.3547  0.0585 -0.5311
 6730TIP3    H144385   3.806   0.628  10.924  0.7732  0.6486 -0.8717
 6730TIP3    H244386   3.698   0.727  10.886  0.0552 -0.1913 -1.0526
 6731TIP3   OH244387   7.195   7.379  11.820 -0.3915 -0.0902 -0.2598
 6731TIP3    H144388   7.193   7.435  11.742  1.1421  1.9543  1.0486
 6731TIP3    H244389   7.144   7.428  11.885 -1.0437 -1.4087  0.2374
 6732TIP3   OH244390   6.621   4.121  13.440  0.1547  0.6000 -0.4057
 6732TIP3    H144391   6.555   4.139  13.373  1.1558 -0.5986 -1.7811
 6732TIP3    H244392   6.579   4.056  13.497 -0.3678  0.9122 -0.4302
 6733TIP3   OH244393   1.019   1.796  12.835  0.2193 -0.3095 -0.5572
 6733TIP3    H144394   1.105   1.755  12.834 -0.5801 -2.0687 -1.5123
 6733TIP3    H244395   1.030   1.875  12.781  1.2071 -0.5343 -0.7059
 6734TIP3   OH244396   5.354   7.551  11.398 -0.0174  0.7746  0.2388
 6734TIP3    H144397   5.262   7.556  11.370 -0.1803 -0.1910  0.5722
 6734TIP3    H244398   5.400   7.515  11.322 -0.2740 -0.7439  0.7625
 6735TIP3   OH244399   0.020   7.658  12.754  0.3391 -0.0934  0.2155
 6735TIP3    H144400   0.085   7.656  12.824 -0.0789 -1.5987  0.6083
 6735TIP3    H244401   0.070   7.684  12.676  1.2766 -0.5588  0.6426
 6736TIP3   OH244402   5.949   0.522  11.789 -0.3780 -0.4654 -0.6675
 6736TIP3    H144403   5.958   0.533  11.694  0.6560 -0.7960 -0.6107
 6736TIP3    H244404   6.024   0.469  11.815  0.1095  0.7629  0.5385
 6737TIP3   OH244405   4.444   1.605  10.642  0.2721  0.2321 -0.7185
 6737TIP3    H144406   4.423   1.511  10.644  0.0818  0.2463 -1.5688
 6737TIP3    H244407   4.408   1.639  10.724  0.1241 -0.3967 -0.5119
 6738TIP3   OH244408   5.380   5.931  12.825  0.7513 -0.4284  0.2643
 6738TIP3    H144409   5.321   6.001  12.855  0.4691  0.8628 -2.9270
 6738TIP3    H244410   5.351   5.853  12.872 -0.8864  0.9862  1.7445
 6739TIP3   OH244411   6.353   0.417  12.494 -0.4986  0.5290  0.0523
 6739TIP3    H144412   6.372   0.326  12.470 -1.6276  0.4831 -0.7178
 6739TIP3    H244413   6.440   0.458  12.501 -0.0326  0.0650 -2.2588
 6740TIP3   OH244414   2.182   0.520  12.613 -0.1092  0.5189 -0.3536
 6740TIP3    H144415   2.261   0.529  12.667 -0.3592 -2.2898  0.6607
 6740TIP3    H244416   2.117   0.575  12.656 -0.7113 -2.5997  3.2852
 6741TIP3   OH244417   7.443   5.448  11.885  0.4765 -0.7312 -0.3259
 6741TIP3    H144418   7.494   5.459  11.965 -2.8397  1.8216  1.7642
 6741TIP3    H244419   7.465   5.524  11.832 -0.4349 -0.0124  0.2655
 6742TIP3   OH244420   2.935   7.256  11.289  0.1731  0.0449  0.0254
 6742TIP3    H144421   2.849   7.215  11.301 -0.0253  0.4885  0.1463
 6742TIP3    H244422   2.968   7.268  11.378  0.6648 -0.7393 -0.0337
 6743TIP3   OH244423   2.172   6.917  11.963  0.2780 -0.2434  0.1395
 6743TIP3    H144424   2.181   6.838  11.909  1.6817 -0.2296  0.3115
 6743TIP3    H244425   2.253   6.920  12.015 -0.1659  0.8127  0.8034
 6744TIP3   OH244426   6.821   2.424  11.568 -0.1735  0.1968 -0.0746
 6744TIP3    H144427   6.905   2.469  11.575  0.0567  0.1576 -1.9340
 6744TIP3    H244428   6.843   2.338  11.532 -1.0311  0.3917 -1.1262
 6745TIP3   OH244429   0.235   7.431  11.573  0.0480  0.5115  0.2298
 6745TIP3    H144430   0.250   7.382  11.492  1.6651  0.4648  0.5358
 6745TIP3    H244431   0.240   7.523  11.547  0.6530  0.4963  0.2730
 6746TIP3   OH244432   5.147   3.074  12.041 -0.1405  0.5635  0.1650
 6746TIP3    H144433   5.084   3.022  11.991 -1.2652  2.5552 -0.5825
 6746TIP3    H244434   5.229   3.066  11.992 -0.3914 -0.1635 -0.1512
 6747TIP3   OH244435   1.917   4.310  11.509 -0.2829  0.4212 -0.5107
 6747TIP3    H144436   1.887   4.225  11.541  1.0453  0.1026 -0.0414
 6747TIP3    H244437   1.909   4.304  11.414 -1.7959  0.4103 -0.3975
 6748TIP3   OH244438   4.502   3.625  11.762  0.1303 -0.0297  0.3233
 6748TIP3    H144439   4.522   3.695  11.700 -0.2955 -0.3175 -0.1530
 6748TIP3    H244440   4.529   3.659  11.847  0.4420  0.4920  0.0194
 6749TIP3   OH244441   5.938   4.298  12.463 -0.1750  0.4935 -0.2218
 6749TIP3    H144442   5.888   4.282  12.543  0.9956 -0.8761  0.2853
 6749TIP3    H244443   5.903   4.380  12.429 -2.6541 -0.3265  0.1377
 6750TIP3   OH244444   5.926   1.708  10.675 -0.1016 -0.2185 -0.5137
 6750TIP3    H144445   5.939   1.756  10.594  0.0596  0.3491 -0.1597
 6750TIP3    H244446   6.013   1.701  10.714 -0.0729 -1.0847 -0.7118
 6751TIP3   OH244447   3.644   2.389  10.328 -0.2578 -0.1152  0.1235
 6751TIP3    H144448   3.723   2.401  10.381  0.2573  1.0213 -0.8687
 6751TIP3    H244449   3.670   2.328  10.259  0.1081  1.1556 -0.8847
 6752TIP3   OH244450   2.952   6.413  11.678  0.4509  0.2320 -0.5118
 6752TIP3    H144451   3.034   6.378  11.643  0.5620 -0.2088  0.1855
 6752TIP3    H244452   2.947   6.379  11.767  0.6344  2.1092  0.2556
 6753TIP3   OH244453   5.477   4.311  11.095 -0.4549 -0.0401  0.1237
 6753TIP3    H144454   5.401   4.368  11.083 -0.7449 -0.6126 -0.9370
 6753TIP3    H244455   5.439   4.223  11.106  0.0573 -0.4267 -1.0557
 6754TIP3   OH244456   5.999   4.246  11.181 -0.4307  0.3426 -0.3040
 6754TIP3    H144457   5.950   4.175  11.223 -0.8658  0.9635  0.2544
 6754TIP3    H244458   5.934   4.289  11.125 -0.3801  0.8073 -0.0072
 6755TIP3   OH244459   3.965   2.343  11.025 -0.1205 -0.5193 -0.9566
 6755TIP3    H144460   3.932   2.306  11.106  1.7905 -0.2949 -0.0255
 6755TIP3    H244461   3.944   2.437  11.031 -2.3253 -0.8782 -1.9816
 6756TIP3   OH244462   0.374   0.736  10.801  0.2235  0.8616 -0.5001
 6756TIP3    H144463   0.330   0.723  10.716 -0.0464  0.3908 -0.2968
 6756TIP3    H244464   0.389   0.830  10.806  1.4430  0.7587 -1.6599
 6757TIP3   OH244465   7.172   3.555  11.984 -0.1876  0.4830  0.1195
 6757TIP3    H144466   7.223   3.568  11.904 -1.2968  0.6877 -0.5815
 6757TIP3    H244467   7.204   3.622  12.044 -0.8674  1.8177 -0.9440
 6758TIP3   OH244468   0.735   4.095  12.221 -0.0969 -0.7396  0.2811
 6758TIP3    H144469   0.825   4.114  12.247 -0.1382 -0.4743  0.2259
 6758TIP3    H244470   0.700   4.043  12.293  0.0707 -0.7637  0.3458
 6759TIP3   OH244471   1.909   3.467  12.164  1.1183  0.2784 -0.2473
 6759TIP3    H144472   1.841   3.531  12.184  0.6572 -0.0223 -0.8275
 6759TIP3    H244473   1.970   3.514  12.108  0.9590  0.3146 -0.3920
 6760TIP3   OH244474   1.371   3.611  10.297  0.3485  0.4408 -0.3888
 6760TIP3    H144475   1.319   3.683  10.259  1.3155  0.6193 -1.4481
 6760TIP3    H244476   1.312   3.570  10.360 -1.0581  0.6791 -1.4819
 6761TIP3   OH244477   0.993   2.409  10.846 -0.2479  0.2334 -0.0241
 6761TIP3    H144478   0.964   2.483  10.899 -0.3840 -1.0970  1.8807
 6761TIP3    H244479   1.072   2.440  10.801 -0.5646  1.6541  0.3742
 6762TIP3   OH244480   3.927   2.922  10.839 -0.2373 -0.0676 -0.1377
 6762TIP3    H144481   3.939   2.937  10.933  1.1277 -1.0597 -0.1318
 6762TIP3    H244482   3.840   2.959  10.820 -1.0441 -0.8858  1.7361
 6763TIP3   OH244483   0.802   4.099  10.536 -0.4262  0.0960  0.3072
 6763TIP3    H144484   0.790   4.004  10.527 -0.0862  0.0842 -0.0552
 6763TIP3    H244485   0.796   4.115  10.630  1.2439 -0.5455  0.5630
 6764TIP3   OH244486   4.815   7.205  10.782 -0.2738 -0.6505 -0.6232
 6764TIP3    H144487   4.749   7.195  10.851 -2.8745 -2.0342 -3.1090
 6764TIP3    H244488   4.859   7.287  10.804 -3.6850  1.0795  0.5903
 6765TIP3   OH244489   3.448   0.836  12.403 -0.4597  0.0307 -0.7107
 6765TIP3    H144490   3.475   0.768  12.465  0.3501 -0.3937 -1.4869
 6765TIP3    H244491   3.527   0.888  12.389 -0.6384  0.1462 -1.3367
 6766TIP3   OH244492   3.209   4.149  13.009 -0.4213 -0.2318 -0.2221
 6766TIP3    H144493   3.139   4.143  13.074  1.4612 -1.2144  1.8273
 6766TIP3    H244494   3.204   4.066  12.962  0.2182 -0.9111  0.8744
 6767TIP3   OH244495   6.793   2.174  10.739 -0.0894  0.1107  0.6609
 6767TIP3    H144496   6.819   2.087  10.709 -1.0656  0.5728 -1.6653
 6767TIP3    H244497   6.700   2.166  10.758  0.2862  0.0925  2.8271
 6768TIP3   OH244498   6.787   5.289  10.576 -0.3124  0.1611 -0.7949
 6768TIP3    H144499   6.734   5.366  10.558  1.3340  1.6584  0.3922
 6768TIP3    H244500   6.857   5.292  10.511 -1.1211 -1.3093 -1.7957
 6769TIP3   OH244501   4.261   3.236  10.612  0.1930  0.7349 -0.2267
 6769TIP3    H144502   4.298   3.194  10.690 -1.3508  1.0033  0.6928
 6769TIP3    H244503   4.243   3.164  10.552  0.9426  0.4734 -0.1475
 6770TIP3   OH244504   5.942   0.947  12.868  0.3463  0.0138  0.0595
 6770TIP3    H144505   5.914   1.038  12.862  0.8726  0.1775  0.0322
 6770TIP3    H244506   5.865   0.896  12.844 -1.1218  0.3159  3.5257
 6771TIP3   OH244507   1.307   1.863  11.345 -0.0641 -0.0679  0.1247
 6771TIP3    H144508   1.321   1.825  11.432  1.4973 -0.0179 -0.0789
 6771TIP3    H244509   1.328   1.792  11.285 -0.3921  0.1338 -0.2300
 6772TIP3   OH244510   4.165   3.340  13.082 -0.2592  0.1062 -0.7614
 6772TIP3    H144511   4.075   3.360  13.057 -0.1862  1.1155 -0.2845
 6772TIP3    H244512   4.217   3.413  13.047  0.1635  0.3038  0.2246
 6773TIP3   OH244513   1.079   1.581  11.971  0.1184 -0.3085  0.0272
 6773TIP3    H144514   0.994   1.581  12.015  0.3179  1.1296  0.4502
 6773TIP3    H244515   1.071   1.513  11.904 -1.1655 -0.5881  0.4342
 6774TIP3   OH244516   0.595   3.132  12.728 -0.5090 -0.2892 -0.2113
 6774TIP3    H144517   0.537   3.203  12.755 -0.8713 -0.4705 -0.5136
 6774TIP3    H244518   0.572   3.059  12.786  0.9634  0.2925  1.2195
 6775TIP3   OH244519   2.173   4.526  12.474 -0.4209  0.5492 -0.4125
 6775TIP3    H144520   2.145   4.479  12.395  1.8170 -0.2909 -0.7837
 6775TIP3    H244521   2.109   4.502  12.540 -0.9118 -0.8210 -1.3365
 6776TIP3   OH244522   1.449   3.885  10.876  0.1908 -0.1354  0.1780
 6776TIP3    H144523   1.416   3.974  10.878 -1.5382 -0.7215 -0.3987
 6776TIP3    H244524   1.521   3.887  10.813  0.0523  0.8100  0.0399
 6777TIP3   OH244525   3.223   3.036  10.533 -0.2240 -0.4972  0.1842
 6777TIP3    H144526   3.238   3.021  10.626  0.1272 -0.6698  0.0991
 6777TIP3    H244527   3.296   2.993  10.489  0.5482  1.0186 -0.0805
 6778TIP3   OH244528   2.789   0.967  12.001 -0.2189 -0.5735 -0.1642
 6778TIP3    H144529   2.799   1.021  11.923  2.2224 -0.1600  0.3778
 6778TIP3    H244530   2.716   1.008  12.049 -1.7468 -0.8215 -2.1254
 6779TIP3   OH244531   4.851   2.839  11.414 -0.4867  0.2226  0.3499
 6779TIP3    H144532   4.798   2.761  11.397  1.4354 -0.7307 -1.8291
 6779TIP3    H244533   4.798   2.912  11.382 -1.5179 -0.3988  0.6039
 6780TIP3   OH244534   0.629   6.437  12.192 -0.0044  0.5221 -0.5303
 6780TIP3    H144535   0.706   6.392  12.159  1.1728  1.4147  0.9020
 6780TIP3    H244536   0.652   6.529  12.192 -1.0773  0.8117 -0.0909
 6781TIP3   OH244537   4.181   1.999  10.740 -0.2242 -0.2567  0.4693
 6781TIP3    H144538   4.144   2.084  10.762 -0.5136 -0.4653  0.7941
 6781TIP3    H244539   4.179   1.950  10.822 -1.9282 -1.2760 -0.1335
 6782TIP3   OH244540   0.218   6.461  11.602 -0.4649  0.2220 -0.1122
 6782TIP3    H144541   0.203   6.553  11.580  1.0475  1.3622  2.9986
 6782TIP3    H244542   0.169   6.447  11.683 -0.5181 -1.6776 -0.4303
 6783TIP3   OH244543   0.849   5.586  12.349  0.3510  0.0082 -0.5453
 6783TIP3    H144544   0.773   5.556  12.299  0.1814 -0.6219  0.0621
 6783TIP3    H244545   0.826   5.565  12.440  0.6530  1.1284 -0.2083
 6784TIP3   OH244546   1.097   4.146  11.128 -0.1987  0.3669  0.1711
 6784TIP3    H144547   1.096   4.161  11.033  0.0251  1.9891  0.3865
 6784TIP3    H244548   1.150   4.068  11.140  0.2037  0.4360 -1.0151
 6785TIP3   OH244549   7.599   3.615  12.369  0.2800 -0.3443 -0.0343
 6785TIP3    H144550   7.652   3.693  12.352  0.0771 -0.3183 -0.5433
 6785TIP3    H244551   7.568   3.588  12.283  0.8551 -1.3453  0.0535
 6786TIP3   OH244552   0.155   0.555  11.517 -0.5966 -0.0231  0.5678
 6786TIP3    H144553   0.199   0.577  11.599 -0.6727  1.6410  0.1892
 6786TIP3    H244554   0.147   0.638  11.471 -0.7084 -0.9057 -1.0640
 6787TIP3   OH244555   1.594   5.784  11.614  0.9615 -0.6175  0.3495
 6787TIP3    H144556   1.651   5.739  11.677  2.8101 -0.2867 -0.9981
 6787TIP3    H244557   1.527   5.720  11.593  0.7892 -1.0239  2.0161
 6788TIP3   OH244558   4.195   3.960  12.509  0.5214 -0.5169 -0.2502
 6788TIP3    H144559   4.232   3.992  12.427 -0.6734  0.4126 -0.4568
 6788TIP3    H244560   4.254   3.994  12.576  1.5364 -1.3214 -0.6973
 6789TIP3   OH244561   6.555   4.266  11.564  0.5265 -0.2509  0.4957
 6789TIP3    H144562   6.565   4.171  11.561  1.5957 -0.2102  1.8719
 6789TIP3    H244563   6.528   4.290  11.475  1.2310 -1.7310 -0.1525
 6790TIP3   OH244564   6.042   1.224  11.135 -0.1896 -1.0735 -0.3961
 6790TIP3    H144565   6.112   1.269  11.089 -0.4372  0.0579  0.2913
 6790TIP3    H244566   5.979   1.199  11.067 -1.3539  1.9974 -0.5882
 6791TIP3   OH244567   5.447   3.200  12.229 -0.4825 -0.4519  0.0115
 6791TIP3    H144568   5.360   3.205  12.267  0.2937  0.4492  1.7342
 6791TIP3    H244569   5.497   3.145  12.289  0.4556 -0.0202 -0.3515
 6792TIP3   OH244570   2.848   2.610  11.415 -0.1519  0.2707  0.3835
 6792TIP3    H144571   2.761   2.651  11.416 -0.3900 -0.1785 -0.8185
 6792TIP3    H244572   2.909   2.683  11.410 -0.5423  0.5285 -0.8627
 6793TIP3   OH244573   6.215   2.507  13.147 -0.1051  0.0186 -0.2385
 6793TIP3    H144574   6.209   2.537  13.237  0.6409  0.4622 -0.3386
 6793TIP3    H244575   6.226   2.586  13.095 -0.5236 -0.2338 -0.7299
 6794TIP3   OH244576   4.518   5.212  11.781  0.1261 -0.5006 -0.2309
 6794TIP3    H144577   4.574   5.145  11.821  2.2029 -0.3391 -2.5893
 6794TIP3    H244578   4.467   5.164  11.715 -0.3333 -0.1746 -0.1136
 6795TIP3   OH244579   0.516   3.278  11.018  0.0577 -0.0579  0.5186
 6795TIP3    H144580   0.522   3.373  11.031  1.6668  0.2307 -1.7023
 6795TIP3    H244581   0.587   3.241  11.071 -1.5290 -0.2522  2.6314
 6796TIP3   OH244582   3.120   1.567  13.484  0.2088 -0.3425 -0.2582
 6796TIP3    H144583   3.083   1.655  13.498  1.1919 -0.0190  0.3556
 6796TIP3    H244584   3.191   1.581  13.422 -0.1659 -0.8442 -0.8110
 6797TIP3   OH244585   3.583   5.967  12.574 -0.1083 -0.0780  0.2597
 6797TIP3    H144586   3.556   6.048  12.530 -1.4670 -0.3136  0.6113
 6797TIP3    H244587   3.644   5.996  12.642  2.3375  0.2567 -1.9536
 6798TIP3   OH244588   4.095   1.539  11.237  0.2762 -0.5620 -0.5946
 6798TIP3    H144589   4.025   1.543  11.303 -0.5548 -1.8617 -1.3725
 6798TIP3    H244590   4.137   1.455  11.252  0.4375 -0.6236 -1.3861
 6799TIP3   OH244591   6.483   2.765  13.080 -0.2724  0.1216 -0.1543
 6799TIP3    H144592   6.505   2.685  13.032  0.0012 -0.1319  0.3829
 6799TIP3    H244593   6.387   2.764  13.085 -0.4827  1.2005 -2.4652
 6800TIP3   OH244594   3.619   3.161  11.318 -0.2943 -0.4801 -0.2717
 6800TIP3    H144595   3.679   3.188  11.248 -0.7607 -0.2193 -0.5786
 6800TIP3    H244596   3.574   3.242  11.343 -0.0600 -0.5501  0.4059
 6801TIP3   OH244597   4.967   2.387  10.569  0.1310  0.4287  0.3825
 6801TIP3    H144598   4.884   2.364  10.612  0.8852 -1.3683  0.9857
 6801TIP3    H244599   5.033   2.372  10.636  1.1202 -0.1607 -0.6850
 6802TIP3   OH244600   5.859   1.283  11.749 -0.2035  0.3349  0.3350
 6802TIP3    H144601   5.865   1.229  11.827  0.1568  0.6747  0.5518
 6802TIP3    H244602   5.934   1.256  11.696  0.4449  1.1572  0.8019
 6803TIP3   OH244603   5.629   3.232  11.502 -0.1345  0.0615 -0.0705
 6803TIP3    H144604   5.654   3.205  11.414 -0.3342  0.6128 -0.2982
 6803TIP3    H244605   5.702   3.288  11.531 -0.8578  1.2861 -0.5532
 6804TIP3   OH244606   1.747   5.106  11.960 -0.1707 -0.7844  0.2179
 6804TIP3    H144607   1.813   5.069  12.020  1.7703  0.8858 -0.7644
 6804TIP3    H244608   1.703   5.173  12.012  0.2896 -0.5496  0.3168
 6805TIP3   OH244609   2.791   4.226  11.656  0.1951  0.0029 -0.0980
 6805TIP3    H144610   2.698   4.249  11.649  0.5138  0.9494 -2.0876
 6805TIP3    H244611   2.826   4.288  11.720 -0.1581  1.1310 -0.9588
 6806TIP3   OH244612   4.134   2.501  10.724  0.1163  0.1954  0.1575
 6806TIP3    H144613   4.066   2.563  10.696  2.2466  1.5138 -2.6680
 6806TIP3    H244614   4.172   2.540  10.802 -3.1955 -1.3820  2.8522
 6807TIP3   OH244615   3.853   1.163  10.559  0.6983  0.1592 -0.2086
 6807TIP3    H144616   3.943   1.138  10.579  1.3171  3.1265  1.2744
 6807TIP3    H244617   3.824   1.212  10.636 -2.1250 -0.4433 -0.7761
 6808TIP3   OH244618   0.132   1.589  12.263  0.1323 -0.1870  0.0906
 6808TIP3    H144619   0.100   1.501  12.280  0.8375 -0.2611  1.0974
 6808TIP3    H244620   0.199   1.578  12.195  0.3189 -0.4482  0.3153
 6809TIP3   OH244621   3.899   5.807  11.319  0.0283  0.3469  0.5514
 6809TIP3    H144622   3.888   5.764  11.403 -1.0283  1.6767  1.1512
 6809TIP3    H244623   3.851   5.752  11.257  1.8304 -1.3009  0.5257
 6810TIP3   OH244624   1.217   5.753  12.484  0.0021 -0.1540  0.2567
 6810TIP3    H144625   1.184   5.667  12.510  0.6873 -0.2678  0.7635
 6810TIP3    H244626   1.248   5.792  12.565  1.4547 -0.2037 -0.2533
 6811TIP3   OH244627   7.263   3.806  13.632  0.1969 -0.1172 -0.0294
 6811TIP3    H144628   7.355   3.784  13.651  0.7503  0.1357 -2.1425
 6811TIP3    H244629   7.258   3.901  13.646 -0.7736 -0.5558  3.6721
 6812TIP3   OH244630   3.550   0.620  11.327  0.0995 -0.1589  0.5353
 6812TIP3    H144631   3.460   0.587  11.317  0.3851 -1.4409  1.9009
 6812TIP3    H244632   3.543   0.687  11.395  0.1777 -0.3359  0.7209
 6813TIP3   OH244633   2.849   5.070  11.054 -0.5975  0.1588 -0.1585
 6813TIP3    H144634   2.937   5.104  11.067 -0.6425  0.9663 -1.7311
 6813TIP3    H244635   2.860   4.999  10.990 -1.1380  0.6948 -0.8704
 6814TIP3   OH244636   3.012   2.487  12.864  0.2819  0.2747  0.2455
 6814TIP3    H144637   2.951   2.416  12.848  0.8000 -0.3355  0.8982
 6814TIP3    H244638   2.973   2.563  12.820 -0.9186 -0.1051  0.6195
 6815TIP3   OH244639   1.560   7.613  10.498  0.0234  0.0990 -0.4089
 6815TIP3    H144640   1.517   7.697  10.482  2.1548  1.0764 -1.3828
 6815TIP3    H244641   1.497   7.548  10.469 -1.2416  1.3985 -0.6876
 6816TIP3   OH244642   2.331   7.676  11.668  0.2663  0.0201  0.0274
 6816TIP3    H144643   2.406   7.616  11.669 -0.9841 -1.7845 -2.2439
 6816TIP3    H244644   2.339   7.722  11.584  0.4983  2.1841  1.1775
 6817TIP3   OH244645   3.311   4.694  10.632 -0.1390  0.3402 -0.3836
 6817TIP3    H144646   3.224   4.657  10.616 -0.3185  0.2811  0.6766
 6817TIP3    H244647   3.296   4.761  10.699  0.6978  0.0036  0.1456
 6818TIP3   OH244648   7.533   7.384  11.336 -0.1469  0.1356  0.1522
 6818TIP3    H144649   7.579   7.468  11.343  0.6018 -0.2476 -0.1396
 6818TIP3    H244650   7.554   7.338  11.418 -1.7424  0.7954  0.9902
 6819TIP3   OH244651   3.686   3.688  13.178 -0.0510  0.7068 -0.7008
 6819TIP3    H144652   3.672   3.605  13.134 -1.0090 -0.1767  1.1707
 6819TIP3    H244653   3.751   3.669  13.246  0.8025  1.8422 -1.1571
 6820TIP3   OH244654   5.387   0.704  11.573 -0.0661 -0.7373 -0.3615
 6820TIP3    H144655   5.345   0.635  11.624  1.0897 -0.8526  0.4770
 6820TIP3    H244656   5.360   0.785  11.616  0.4737 -0.8053  0.1154
 6821TIP3   OH244657   5.601   6.876  12.479  0.8592  0.2935 -0.3770
 6821TIP3    H144658   5.515   6.914  12.494  0.1512 -1.5880  0.7619
 6821TIP3    H244659   5.661   6.931  12.528 -0.0233  0.3670  0.6517
 6822TIP3   OH244660   2.448   5.442  12.106  0.6522 -0.4168 -0.0152
 6822TIP3    H144661   2.476   5.526  12.071 -1.0387  0.0099 -0.4504
 6822TIP3    H244662   2.469   5.379  12.037  1.2180 -0.2410 -0.0077
 6823TIP3   OH244663   3.524   4.428  13.103  0.0450 -0.1475 -0.2280
 6823TIP3    H144664   3.511   4.473  13.019  0.5807  2.1871  0.8358
 6823TIP3    H244665   3.458   4.467  13.161 -0.2575 -1.6593  0.4812
 6824TIP3   OH244666   4.354   2.559  17.418  0.5710  0.2327  0.2235
 6824TIP3    H144667   4.293   2.601  17.478  0.5635  0.1008  0.3114
 6824TIP3    H244668   4.298   2.511  17.357  0.4853  1.9709 -1.1430
 6825TIP3   OH244669   1.092   6.779  11.512  0.3196  0.7343 -0.2561
 6825TIP3    H144670   1.170   6.728  11.488 -0.1376 -0.6141  0.9955
 6825TIP3    H244671   1.126   6.866  11.535  1.4832  0.1282  0.4012
 6826TIP3   OH244672   0.110   2.188  10.803 -0.2587  0.0702  0.0241
 6826TIP3    H144673   0.036   2.129  10.789  1.0331 -1.5731 -0.2122
 6826TIP3    H244674   0.085   2.269  10.759 -2.0508 -0.3178  0.2632
 6827TIP3   OH244675   7.034   3.182  11.760  0.2822  0.1801  0.3766
 6827TIP3    H144676   7.007   3.202  11.850  0.7660 -0.5949  0.7001
 6827TIP3    H244677   7.113   3.235  11.747 -0.1745  0.8177  0.1659
 6828TIP3   OH244678   3.695   7.343  11.636 -0.0659  0.0898 -0.1449
 6828TIP3    H144679   3.638   7.269  11.657  1.1640 -1.2644 -1.3051
 6828TIP3    H244680   3.779   7.320  11.676  0.1501  1.2185  0.0778
 6829TIP3   OH244681   1.399   5.614  11.519 -0.3957 -0.4526 -0.0437
 6829TIP3    H144682   1.424   5.666  11.443  0.1627  0.5407  0.7931
 6829TIP3    H244683   1.385   5.526  11.484 -0.3017  0.0114 -1.3132
 6830TIP3   OH244684   4.235   3.210  11.178  1.1350  0.7204 -0.7410
 6830TIP3    H144685   4.178   3.282  11.205 -1.2157 -1.5965  0.9524
 6830TIP3    H244686   4.317   3.226  11.224  0.1925  1.6072  0.7129
 6831TIP3   OH244687   0.594   4.131  11.467 -0.2937  0.1484 -0.6043
 6831TIP3    H144688   0.500   4.117  11.453 -0.3386 -0.1405 -0.0337
 6831TIP3    H244689   0.600   4.215  11.512 -0.2868  0.1118 -0.5366
 6832TIP3   OH244690   4.366   1.202  11.569 -0.4774  0.6515 -0.8842
 6832TIP3    H144691   4.330   1.115  11.588  0.5040  0.1751 -1.1536
 6832TIP3    H244692   4.318   1.231  11.492  1.3081 -1.0246 -2.7606
 6833TIP3   OH244693   7.123   4.320  11.457 -0.0782  0.5185 -0.2061
 6833TIP3    H144694   7.029   4.333  11.441  0.1766  1.7495 -0.8126
 6833TIP3    H244695   7.152   4.266  11.384 -0.2844  0.2225 -0.0727
 6834TIP3   OH244696   0.631   5.254  11.656 -0.0416  0.2861  0.3708
 6834TIP3    H144697   0.571   5.310  11.706 -0.9664  0.2395 -0.6546
 6834TIP3    H244698   0.717   5.275  11.691 -0.6855 -0.0587  2.2945
 6835TIP3   OH244699   3.603   0.251  11.422 -0.4075  0.4227  0.2780
 6835TIP3    H144700   3.634   0.229  11.334  1.2834  1.8053  0.4739
 6835TIP3    H244701   3.648   0.189  11.479 -0.1681  0.6100  0.2986
 6836TIP3   OH244702   7.675   5.713  11.162  0.0749  0.5959  0.0008
 6836TIP3    H144703   7.590   5.689  11.198  0.8430 -1.2040  0.7370
 6836TIP3    H244704   7.673   5.808  11.156 -1.6333  0.6467  0.8614
 6837TIP3   OH244705   0.101   2.129  12.052 -0.4750 -0.0495 -0.7597
 6837TIP3    H144706   0.089   2.045  12.097 -0.4015  0.3138 -0.0473
 6837TIP3    H244707   0.186   2.122  12.009 -0.2203 -0.1289 -0.2416
 6838TIP3   OH244708   1.976   2.171  11.497 -0.5861  0.2094 -0.7456
 6838TIP3    H144709   1.991   2.244  11.437  1.1316 -1.6794 -2.7991
 6838TIP3    H244710   2.021   2.197  11.578  2.4681  0.4033 -2.3313
 6839TIP3   OH244711   6.572   6.136  12.779 -0.5601  0.5127  0.8925
 6839TIP3    H144712   6.617   6.060  12.813 -0.7909 -0.6902 -1.2791
 6839TIP3    H244713   6.633   6.174  12.715 -1.8672 -0.1650 -0.8510
 6840TIP3   OH244714   5.063   6.879  11.987  0.0096 -0.2070  0.2438
 6840TIP3    H144715   5.135   6.866  11.925 -0.3507 -0.0756 -0.1998
 6840TIP3    H244716   5.106   6.913  12.066  0.6010 -1.3130  0.4240
 6841TIP3   OH244717   7.498   6.977  11.183 -0.4941  0.2963 -0.1504
 6841TIP3    H144718   7.406   6.979  11.211 -0.1603  4.4325  1.4135
 6841TIP3    H244719   7.514   7.066  11.149  2.8424 -0.4228 -0.8101
 6842TIP3   OH244720   6.210   5.627  12.379  0.2725 -0.1659 -0.4311
 6842TIP3    H144721   6.268   5.551  12.389  0.9317  0.3125 -0.5993
 6842TIP3    H244722   6.126   5.589  12.354  0.0226 -1.0002  1.4930
 6843TIP3   OH244723   4.983   3.715  10.628  0.4515 -0.2365 -0.5320
 6843TIP3    H144724   4.961   3.797  10.672  1.3667  0.7263 -1.8083
 6843TIP3    H244725   4.926   3.712  10.551  1.4381 -0.0596 -1.2846
 6844TIP3   OH244726   5.628   0.937  10.626 -0.2384  0.3620  0.0320
 6844TIP3    H144727   5.602   1.026  10.601  0.5806  1.1139  1.7342
 6844TIP3    H244728   5.554   0.904  10.676 -0.3258  0.2740 -0.1533
 6845TIP3   OH244729   2.578   2.356  10.582  0.1217 -0.0570  0.1103
 6845TIP3    H144730   2.536   2.391  10.504  0.2528 -0.8681 -0.3377
 6845TIP3    H244731   2.506   2.328  10.638  0.0060  1.1511  0.6009
 6846TIP3   OH244732   2.032   0.789  10.836 -0.1436  0.2398 -0.3306
 6846TIP3    H144733   2.043   0.761  10.745 -2.9101 -1.7623 -0.1801
 6846TIP3    H244734   2.050   0.711  10.888  0.4905  1.1139  0.8154
 6847TIP3   OH244735   6.778   7.162  11.235 -0.2390 -0.8300  0.0792
 6847TIP3    H144736   6.742   7.234  11.287  0.3954 -0.8988  0.6250
 6847TIP3    H244737   6.816   7.103  11.299 -0.0914 -1.2805 -0.4214
 6848TIP3   OH244738   6.347   2.585  12.694  0.1615 -0.1934 -0.8005
 6848TIP3    H144739   6.259   2.592  12.730  0.5386 -1.5725  0.5177
 6848TIP3    H244740   6.401   2.640  12.751  0.2129  0.3318 -1.3568
 6849TIP3   OH244741   0.936   4.610  12.839 -0.4850  0.1439 -0.2845
 6849TIP3    H144742   0.908   4.535  12.892 -1.6378 -0.2473 -1.3802
 6849TIP3    H244743   1.028   4.594  12.820 -0.5586 -0.6785  0.0241
 6850TIP3   OH244744   4.161   0.719  10.812 -0.4064  0.0687 -0.3857
 6850TIP3    H144745   4.119   0.645  10.768 -1.1805  0.3947 -0.1999
 6850TIP3    H244746   4.137   0.709  10.904 -0.4820  0.5250 -0.3545
 6851TIP3   OH244747   6.054   5.605  10.792  0.0728 -0.1812 -0.1783
 6851TIP3    H144748   6.038   5.569  10.880  1.8440 -2.2197 -0.6041
 6851TIP3    H244749   6.047   5.530  10.734 -1.6135  1.2347 -1.9146
 6852TIP3   OH244750   1.473   4.385  12.348 -0.1316  0.2764  0.2315
 6852TIP3    H144751   1.544   4.443  12.321  0.4508 -1.1385 -1.4523
 6852TIP3    H244752   1.400   4.406  12.290 -0.3252  0.1393  0.4205
 6853TIP3   OH244753   4.998   6.669  11.145 -0.2322  0.1984  0.6987
 6853TIP3    H144754   4.982   6.684  11.052 -2.6467 -1.4040  0.7437
 6853TIP3    H244755   5.033   6.580  11.149  0.6964  0.5805  1.2762
 6854TIP3   OH244756   2.137   4.470  13.163 -0.9458  0.7716  0.4156
 6854TIP3    H144757   2.077   4.396  13.155  0.8857 -0.6951 -0.8832
 6854TIP3    H244758   2.081   4.545  13.183 -2.9375 -0.8604  1.3108
 6855TIP3   OH244759   3.569   2.448  12.155 -0.4624  0.1873 -0.2901
 6855TIP3    H144760   3.663   2.450  12.137 -0.6860 -1.4116 -1.9862
 6855TIP3    H244761   3.559   2.379  12.221 -0.2335  2.2295  2.0247
 6856TIP3   OH244762   2.482   2.751  12.691  0.7112 -0.4054  0.5102
 6856TIP3    H144763   2.448   2.763  12.780 -2.4177  0.6272 -0.6889
 6856TIP3    H244764   2.478   2.657  12.676  1.9465 -0.6748  1.6426
 6857TIP3   OH244765   6.658   5.114  12.995 -0.0252 -0.0299  0.1441
 6857TIP3    H144766   6.595   5.165  13.047  1.7235  1.5563  0.8221
 6857TIP3    H244767   6.644   5.023  13.024 -1.6094  0.3374  0.6555
 6858TIP3   OH244768   2.603   4.131  12.638 -0.3614  0.2038 -0.2699
 6858TIP3    H144769   2.554   4.049  12.633 -0.8848  0.3924  1.2063
 6858TIP3    H244770   2.564   4.178  12.712 -1.9818  3.0962 -2.7632
 6859TIP3   OH244771   2.483   5.689  13.043 -0.2824  0.1821 -0.2550
 6859TIP3    H144772   2.423   5.616  13.059 -0.5454  0.6945  1.2652
 6859TIP3    H244773   2.426   5.763  13.023 -0.2073  0.6819  1.2373
 6860TIP3   OH244774   2.856   7.459  12.661 -0.5538  0.1714  0.0822
 6860TIP3    H144775   2.914   7.394  12.622 -0.4021  0.4805 -0.2041
 6860TIP3    H244776   2.888   7.543  12.628 -0.3189  0.4492  0.9934
 6861TIP3   OH244777   5.978   7.293  11.362  0.4537 -0.0868  0.2564
 6861TIP3    H144778   5.908   7.347  11.327  0.5041  0.2895  0.7198
 6861TIP3    H244779   5.945   7.262  11.446  0.3819 -0.8732 -0.0544
 6862TIP3   OH244780   5.902   2.665  13.203  0.1976  0.1317 -0.2639
 6862TIP3    H144781   5.959   2.731  13.164 -0.4738  0.8340 -0.1043
 6862TIP3    H244782   5.912   2.678  13.298  1.0377 -0.8723 -0.2004
 6863TIP3   OH244783   0.988   0.244  11.535  0.1624  0.1007  0.1749
 6863TIP3    H144784   0.923   0.300  11.491  1.5066  1.1755 -0.5199
 6863TIP3    H244785   0.950   0.227  11.621  0.2739  3.3033  1.0015
 6864TIP3   OH244786   5.991   4.969  12.367 -0.7257  0.1874  0.3516
 6864TIP3    H144787   5.966   5.051  12.323 -0.6443  1.5580  2.6808
 6864TIP3    H244788   6.073   4.944  12.325 -1.1614  0.8421 -0.9600
 6865TIP3   OH244789   6.239   5.123  12.347  0.1635  0.4706 -0.4771
 6865TIP3    H144790   6.312   5.064  12.369  0.1787  0.8070  0.4220
 6865TIP3    H244791   6.241   5.130  12.252  0.1599 -0.9883 -0.6064
 6866TIP3   OH244792   4.613   4.647  12.808  0.0465 -0.0631  0.0694
 6866TIP3    H144793   4.535   4.700  12.824  1.1498  1.4032  0.8108
 6866TIP3    H244794   4.601   4.613  12.719 -1.1338  0.6555 -0.0691
 6867TIP3   OH244795   3.343   7.559  11.551  0.0832 -0.3959  0.2401
 6867TIP3    H144796   3.375   7.559  11.460 -0.5624 -1.8534 -0.0131
 6867TIP3    H244797   3.274   7.626  11.551 -1.8807 -2.2789 -1.1310
 6868TIP3   OH244798   6.561   5.048  11.268 -0.1734 -0.2834  0.6112
 6868TIP3    H144799   6.622   5.109  11.226 -1.6915  0.5715 -0.4564
 6868TIP3    H244800   6.562   5.072  11.360  0.3352  0.3965  0.4369
 6869TIP3   OH244801   6.000   0.895  11.599  0.1848  0.2966 -0.3673
 6869TIP3    H144802   5.927   0.846  11.637  0.2094 -0.6752 -1.5308
 6869TIP3    H244803   6.078   0.861  11.642  0.2626 -1.1743 -1.6109
 6870TIP3   OH244804   4.232   2.212  11.280  0.0566  0.0446  0.1050
 6870TIP3    H144805   4.188   2.239  11.360 -1.0300 -1.5216  0.0827
 6870TIP3    H244806   4.173   2.148  11.240  1.9508 -1.5181 -0.3679
 6871TIP3   OH244807   6.941   5.043  11.288 -0.3228  0.1401  0.8949
 6871TIP3    H144808   6.892   5.061  11.208  0.4556  0.1048  0.3999
 6871TIP3    H244809   6.976   4.954  11.275  1.2267  0.7717  0.5148
 6872TIP3   OH244810   0.095   7.468  11.797  0.3654 -0.2587  0.1680
 6872TIP3    H144811   0.004   7.474  11.768  0.5554 -0.1421 -0.4134
 6872TIP3    H244812   0.143   7.436  11.721  0.9762  0.6659  0.1429
 6873TIP3   OH244813   2.283   2.644  13.264 -0.3062  0.2410 -0.0667
 6873TIP3    H144814   2.262   2.683  13.179  3.6896  1.5380 -0.6805
 6873TIP3    H244815   2.309   2.554  13.244  1.6381  0.8466 -0.4980
 6874TIP3   OH244816   4.642   0.801  12.021 -0.0439 -0.3415 -0.2837
 6874TIP3    H144817   4.729   0.761  12.027  1.1137  2.1028  0.5714
 6874TIP3    H244818   4.626   0.810  11.927  1.3400  0.5526 -0.4604
 6875TIP3   OH244819   1.193   2.463  11.504 -0.0709 -0.7293 -0.2216
 6875TIP3    H144820   1.165   2.394  11.444  0.3304 -2.1763  1.1891
 6875TIP3    H244821   1.114   2.514  11.521 -0.5475 -1.2908 -0.7109
 6876TIP3   OH244822   2.263   4.481  10.411 -0.2310 -0.3236  0.6033
 6876TIP3    H144823   2.179   4.518  10.383 -0.0653 -0.9146 -0.7551
 6876TIP3    H244824   2.255   4.472  10.506 -1.5857 -0.0910  0.5300
 6877TIP3   OH244825   7.292   1.245  10.985 -0.3043 -0.4798 -0.6783
 6877TIP3    H144826   7.259   1.209  11.067  0.9439  1.1647  0.6070
 6877TIP3    H244827   7.220   1.300  10.953 -0.1721  0.2334  0.2212
 6878TIP3   OH244828   7.092   3.298  12.586  0.0655 -0.6063 -0.4442
 6878TIP3    H144829   7.029   3.352  12.633 -0.6906  0.2884 -2.3876
 6878TIP3    H244830   7.077   3.209  12.620 -2.3921 -0.4549 -0.9207
 6879TIP3   OH244831   5.807   7.497  10.702 -0.1929  0.0881 -0.0788
 6879TIP3    H144832   5.888   7.526  10.742  0.5511 -1.5572 -0.2906
 6879TIP3    H244833   5.818   7.402  10.693 -0.6710  0.2427 -3.3304
 6880TIP3   OH244834   4.834   5.226  13.062 -0.4565  0.0714  0.6584
 6880TIP3    H144835   4.832   5.135  13.091 -0.3706 -0.1466  0.0045
 6880TIP3    H244836   4.869   5.275  13.136  0.8929 -0.6205  0.4976
 6881TIP3   OH244837   6.106   4.420  12.863  0.2818 -0.2088  0.2218
 6881TIP3    H144838   6.188   4.371  12.869  0.6905  0.3738 -0.4323
 6881TIP3    H244839   6.078   4.431  12.954  1.1627 -0.0385  0.4829
 6882TIP3   OH244840   1.419   5.672  11.055 -0.2254 -0.3775 -0.2337
 6882TIP3    H144841   1.404   5.713  10.970  0.7510  0.0716 -0.2027
 6882TIP3    H244842   1.514   5.658  11.058 -0.4679 -2.2259 -0.0446
 6883TIP3   OH244843   6.134   6.158  11.438  0.1001  0.4885  0.2545
 6883TIP3    H144844   6.182   6.235  11.408  0.2585  0.1179 -0.4828
 6883TIP3    H244845   6.148   6.093  11.368 -2.1634  0.6437 -0.4200
 6884TIP3   OH244846   0.724   1.020  13.287 -0.4604  0.0025  0.2142
 6884TIP3    H144847   0.686   1.077  13.220 -1.4514 -0.3383  0.4729
 6884TIP3    H244848   0.818   1.027  13.273 -0.6546 -0.6282 -1.6924
 6885TIP3   OH244849   3.852   2.721  10.166 -0.6930 -0.2068 -0.0071
 6885TIP3    H144850   3.832   2.754  10.078 -3.1948 -0.1921  0.4962
 6885TIP3    H244851   3.947   2.728  10.173 -0.5881  1.3898 -2.0770
 6886TIP3   OH244852   6.934   2.505  12.279 -0.8269  0.0506  0.0217
 6886TIP3    H144853   6.928   2.593  12.242  1.3563  0.3157  0.1708
 6886TIP3    H244854   6.875   2.452  12.225  0.1265  1.0017 -2.0566
 6887TIP3   OH244855   1.128   6.721  10.645 -0.0599  0.4997 -0.2491
 6887TIP3    H144856   1.192   6.662  10.605  1.5481  0.6831  1.9025
 6887TIP3    H244857   1.175   6.804  10.656 -2.1409  2.1692 -2.8160
 6888TIP3   OH244858   3.417   1.547  13.093  0.0239 -0.0993  0.2493
 6888TIP3    H144859   3.402   1.517  13.003  0.4596  0.5017 -0.0235
 6888TIP3    H244860   3.496   1.501  13.121  0.1242  0.0349  0.1837
 6889TIP3   OH244861   6.843   2.868  11.119 -0.7098  0.0235 -0.4224
 6889TIP3    H144862   6.767   2.924  11.101 -0.0287  0.7312 -1.2398
 6889TIP3    H244863   6.918   2.928  11.113  0.0565 -1.0099 -1.5686
 6890TIP3   OH244864   3.392   3.289  10.618 -0.7080  0.6569  0.3554
 6890TIP3    H144865   3.366   3.207  10.660 -0.7425  0.0812 -0.7274
 6890TIP3    H244866   3.356   3.282  10.529 -1.3449  2.1784  0.4776
 6891TIP3   OH244867   6.462   6.202  11.384  0.4048  0.6898  0.6934
 6891TIP3    H144868   6.431   6.277  11.435  0.8184  1.5769 -0.3127
 6891TIP3    H244869   6.533   6.165  11.436  0.4376  1.2286  1.0401
 6892TIP3   OH244870   4.509   6.020  10.978  0.0992 -0.2018  0.5871
 6892TIP3    H144871   4.579   6.085  10.978 -1.1815  1.2870 -1.1521
 6892TIP3    H244872   4.444   6.055  10.918 -0.4573 -3.3316 -0.8511
 6893TIP3   OH244873   1.371   7.436  11.504  0.1879 -0.3868  0.1145
 6893TIP3    H144874   1.378   7.421  11.598 -2.1301  1.1041  0.6163
 6893TIP3    H244875   1.283   7.405  11.481  1.1449 -1.8987 -1.8756
 6894TIP3   OH244876   4.254   2.959  12.315 -0.3565 -0.6524  0.5554
 6894TIP3    H144877   4.340   3.000  12.322 -0.2972 -0.7869  0.5942
 6894TIP3    H244878   4.271   2.866  12.308 -0.4136 -0.5740 -0.9802
 6895TIP3   OH244879   1.005   3.372  12.732  0.5643 -0.1784  0.1502
 6895TIP3    H144880   1.020   3.420  12.813  0.8568  0.4600 -0.2654
 6895TIP3    H244881   0.943   3.303  12.755  0.2672  0.2959  0.8062
 6896TIP3   OH244882   2.727   6.680  12.742  0.4181  0.2287 -0.6715
 6896TIP3    H144883   2.699   6.613  12.680 -1.5851  1.0495 -0.7223
 6896TIP3    H244884   2.648   6.730  12.760  1.2740  0.9302  1.4229
 6897TIP3   OH244885   2.451   6.715  12.071 -0.0205 -0.0014 -0.8856
 6897TIP3    H144886   2.452   6.810  12.075 -0.1808 -0.0422  1.0628
 6897TIP3    H244887   2.507   6.693  11.996 -0.5104  1.6175 -1.7476
 6898TIP3   OH244888   0.867   3.777  10.612 -0.0750 -0.1481  0.0281
 6898TIP3    H144889   0.782   3.784  10.655  0.2447  1.5457  0.4982
 6898TIP3    H244890   0.930   3.789  10.683  0.5352 -0.5834 -0.4309
 6899TIP3   OH244891   6.662   0.728  11.752 -0.1331  0.0334  0.2025
 6899TIP3    H144892   6.567   0.737  11.740 -0.1233 -0.8315 -0.6642
 6899TIP3    H244893   6.686   0.803  11.806 -1.0211  1.3076 -1.0794
 6900TIP3   OH244894   0.603   6.736  11.669  0.2245 -0.1580  0.1855
 6900TIP3    H144895   0.682   6.697  11.706  1.3259  0.4190 -1.4427
 6900TIP3    H244896   0.560   6.663  11.623 -0.6974 -0.6729  1.7767
 6901TIP3   OH244897   4.850   3.814  13.273  0.3683 -0.0797 -0.1676
 6901TIP3    H144898   4.801   3.738  13.304  0.9103 -1.0511 -1.5872
 6901TIP3    H244899   4.795   3.851  13.204  2.6566 -2.8333 -3.7986
 6902TIP3   OH244900   0.068   6.161  10.953 -0.3778  0.3232  0.3717
 6902TIP3    H144901   0.057   6.094  10.886 -2.0532  0.5695  0.3557
 6902TIP3    H244902   0.019   6.127  11.028 -2.1516  1.9511  0.0202
 6903TIP3   OH244903   3.376   5.641  11.500 -0.0819  0.0670  0.2122
 6903TIP3    H144904   3.423   5.718  11.532  1.3174 -0.3783 -0.6801
 6903TIP3    H244905   3.304   5.677  11.448 -0.3945  0.7662  1.1090
 6904TIP3   OH244906   6.933   3.567  10.622 -0.0845  0.3272  0.3456
 6904TIP3    H144907   6.860   3.621  10.592 -0.3197 -0.8355 -1.2931
 6904TIP3    H244908   6.975   3.619  10.690 -0.3397  2.5335 -1.0967
 6905TIP3   OH244909   3.484   3.978  11.389  0.1440  0.3265  0.1984
 6905TIP3    H144910   3.443   4.040  11.448  0.5494  0.5288  0.2755
 6905TIP3    H244911   3.546   4.031  11.337 -1.0100  0.3602 -1.2065
 6906TIP3   OH244912   6.200   2.629  10.803 -0.5593  0.2904  0.0915
 6906TIP3    H144913   6.167   2.630  10.713 -0.5686 -0.0205  0.0908
 6906TIP3    H244914   6.239   2.716  10.816 -1.2355  0.6093  0.0378
 6907TIP3   OH244915   5.198   4.677  11.304 -0.0770 -0.3793  0.5146
 6907TIP3    H144916   5.199   4.738  11.378 -0.2958  0.4141 -0.1220
 6907TIP3    H244917   5.288   4.673  11.274 -0.4492  1.5951 -0.9996
 6908TIP3   OH244918   3.507   4.108  11.794  0.0373 -0.7564  0.1309
 6908TIP3    H144919   3.412   4.100  11.789 -0.2146  1.3453  0.6871
 6908TIP3    H244920   3.534   4.130  11.705 -0.1160 -0.2732  0.2057
 6909TIP3   OH244921   4.527   6.432  12.471 -0.2774 -0.4759 -0.4926
 6909TIP3    H144922   4.580   6.473  12.540 -1.6369  0.0462  0.2725
 6909TIP3    H244923   4.588   6.423  12.397  0.9654 -0.2035  0.4531
 6910TIP3   OH244924   3.054   4.176  11.394 -0.2220  0.3976 -0.5411
 6910TIP3    H144925   3.021   4.266  11.403 -1.7453 -0.1284 -0.6789
 6910TIP3    H244926   2.990   4.132  11.338  0.6350 -0.7216 -0.6764
 6911TIP3   OH244927   3.758   1.767  10.429  0.6623  0.2925  0.2391
 6911TIP3    H144928   3.772   1.710  10.505  2.0981 -0.8637 -0.8300
 6911TIP3    H244929   3.843   1.808  10.414  0.2880  0.8188 -0.5184
 6912TIP3   OH244930   0.428   3.528  12.081 -0.3577  0.5722  0.2822
 6912TIP3    H144931   0.438   3.439  12.116 -1.1566 -0.0769 -1.0362
 6912TIP3    H244932   0.425   3.585  12.158  0.2493 -0.5264  1.1495
 6913TIP3   OH244933   3.525   1.472  11.668  0.0875  0.2774  0.0044
 6913TIP3    H144934   3.471   1.428  11.602 -0.6455 -0.1632  0.8758
 6913TIP3    H244935   3.506   1.565  11.656  0.8510  0.2982 -1.1598
 6914TIP3   OH244936   3.062   6.410  10.371 -0.2084  0.0314 -0.1523
 6914TIP3    H144937   3.108   6.368  10.444  1.2171  1.0989 -0.3788
 6914TIP3    H244938   2.999   6.468  10.413  1.0802  1.1639  0.3112
 6915TIP3   OH244939   2.888   3.223   9.980 -0.6516 -0.0918 -0.6622
 6915TIP3    H144940   2.891   3.247   9.888 -0.0931  0.6974 -0.4523
 6915TIP3    H244941   2.831   3.288  10.020  1.3149  1.3403  0.0097
 6916TIP3   OH244942   7.477   2.558  10.790  0.3313 -0.1660  0.2648
 6916TIP3    H144943   7.447   2.578  10.878 -0.2251 -0.1089  0.0610
 6916TIP3    H244944   7.432   2.477  10.767  1.5430 -0.9565  0.5656
 6917TIP3   OH244945   5.202   5.987  10.582  0.2550 -0.0850  0.4030
 6917TIP3    H144946   5.156   6.070  10.585  1.1209  0.5135 -1.5960
 6917TIP3    H244947   5.137   5.924  10.551  0.2848  0.3777 -0.6120
 6918TIP3   OH244948   3.000   0.586  11.739  0.1702 -0.8193 -0.0754
 6918TIP3    H144949   2.909   0.608  11.724  0.2463 -1.0741 -0.9537
 6918TIP3    H244950   3.034   0.657  11.793 -0.7209 -1.0803  0.8421
 6919TIP3   OH244951   0.709   3.938  12.429 -0.3817  0.4741 -0.8042
 6919TIP3    H144952   0.716   3.846  12.405  1.7072  0.2690  0.3416
 6919TIP3    H244953   0.787   3.955  12.482 -1.5415  2.4892  0.3876
 6920TIP3   OH244954   1.687   4.547  12.313 -0.1982 -0.1563 -0.5990
 6920TIP3    H144955   1.751   4.578  12.250  0.3647 -1.0949 -0.5057
 6920TIP3    H244956   1.633   4.624  12.333  0.7130  0.5694 -0.8933
 6921TIP3   OH244957   2.199   1.989  10.975  0.2307  0.0813 -0.4508
 6921TIP3    H144958   2.271   1.949  10.926  0.5777 -0.2804  0.3447
 6921TIP3    H244959   2.170   2.061  10.919  1.0145  0.0479 -0.9175
 6922TIP3   OH244960   3.203   7.187  12.724  0.6168 -0.0499 -0.4113
 6922TIP3    H144961   3.163   7.123  12.784 -0.4522  1.3362  0.4099
 6922TIP3    H244962   3.130   7.216  12.669  0.7351  1.5836  0.2474
 6923TIP3   OH244963   4.574   6.947  12.794  0.0724 -0.1351  0.6666
 6923TIP3    H144964   4.599   7.039  12.787 -3.0544  0.7730 -0.2819
 6923TIP3    H244965   4.479   6.947  12.783  0.2048 -3.8106 -2.7336
 6924TIP3   OH244966   0.655   3.903  11.005  0.0558  0.0088  0.1297
 6924TIP3    H144967   0.706   3.957  11.065 -2.0206  5.0154 -2.0548
 6924TIP3    H244968   0.566   3.905  11.040 -0.3571 -0.7744 -0.8148
 6925TIP3   OH244969   2.176   7.035  10.500 -0.6566 -0.5836 -0.1344
 6925TIP3    H144970   2.132   7.093  10.563  0.0677  0.2287 -0.3467
 6925TIP3    H244971   2.117   6.960  10.491 -2.7630  1.1181 -1.5576
 6926TIP3   OH244972   0.933   1.304  11.063  0.4615  0.2541 -0.1290
 6926TIP3    H144973   0.891   1.306  11.149  0.9437  2.7265  0.1075
 6926TIP3    H244974   0.926   1.212  11.036 -1.5828 -0.1900  1.5910
 6927TIP3   OH244975   4.508   5.373  10.668 -0.1796  0.6931  0.1927
 6927TIP3    H144976   4.564   5.429  10.615  2.5580 -0.3320  1.8284
 6927TIP3    H244977   4.454   5.435  10.719 -0.3048  1.7075 -1.1205
 6928TIP3   OH244978   6.426   5.665  12.567  0.1371  0.0909  0.0276
 6928TIP3    H144979   6.335   5.657  12.538  0.4369  1.7213 -1.5516
 6928TIP3    H244980   6.477   5.631  12.494  0.8280  0.9326  0.0959
 6929TIP3   OH244981   5.493   5.993  10.635 -0.3636 -0.3596  0.1254
 6929TIP3    H144982   5.415   5.990  10.581 -1.3823  1.1327  1.4238
 6929TIP3    H244983   5.528   5.904  10.632 -1.8072 -0.9242 -0.8958
 6930TIP3   OH244984   7.236   5.789  11.877  0.0627 -0.4663  0.0539
 6930TIP3    H144985   7.300   5.855  11.902  0.7075 -0.8272 -0.5931
 6930TIP3    H244986   7.153   5.820  11.913  0.5482  0.1540  0.6543
 6931TIP3   OH244987   0.550   5.967  10.892 -0.1823  0.2864 -0.3609
 6931TIP3    H144988   0.538   6.041  10.832 -1.2856  0.2170 -0.2556
 6931TIP3    H244989   0.510   5.893  10.846  0.8530 -0.2380 -0.4332
 6932TIP3   OH244990   6.186   7.336  11.664  0.1491 -0.3098 -0.1307
 6932TIP3    H144991   6.105   7.285  11.661  0.7443 -1.2728 -2.6612
 6932TIP3    H244992   6.177   7.398  11.592  0.6681  1.2399  1.1018
 6933TIP3   OH244993   2.387   0.447  12.451  0.1820  0.3931  0.0681
 6933TIP3    H144994   2.416   0.527  12.408  0.0084 -1.1700 -3.2365
 6933TIP3    H244995   2.306   0.472  12.496 -0.9468  1.7456 -2.5124
 6934TIP3   OH244996   2.806   2.973  10.731 -0.1864  0.0832 -0.2145
 6934TIP3    H144997   2.769   3.050  10.775  0.1978 -0.0837  0.4022
 6934TIP3    H244998   2.827   2.913  10.802  0.6047 -0.1169 -0.6155
 6935TIP3   OH244999   0.518   2.423  11.776  0.0018 -0.0131  0.4860
 6935TIP3    H145000   0.471   2.502  11.747  1.7625  1.2700  0.9244
 6935TIP3    H245001   0.489   2.354  11.717 -0.6175  1.2644 -0.7646
 6936TIP3   OH245002   0.277   5.475  11.595  0.2953  0.7684  0.0278
 6936TIP3    H145003   0.253   5.468  11.688  1.0421 -3.3861  0.0764
 6936TIP3    H245004   0.365   5.513  11.597  0.6178  0.0057  1.0909
 6937TIP3   OH245005   5.856   4.544  13.611 -0.4765  1.0248  0.0098
 6937TIP3    H145006   5.875   4.487  13.536 -0.7525  0.8656  0.0593
 6937TIP3    H245007   5.889   4.495  13.687  0.5416  1.5414 -0.0832
 6938TIP3   OH245008   6.850   4.321  11.458  0.2498  0.0657  0.4199
 6938TIP3    H145009   6.786   4.262  11.498  0.5161  0.7275  1.8757
 6938TIP3    H245010   6.800   4.370  11.393  0.4019 -3.0198 -2.2513
 6939TIP3   OH245011   2.544   5.514  10.415  0.0451  0.5314 -0.2976
 6939TIP3    H145012   2.523   5.543  10.326  1.1514  3.0853  0.1847
 6939TIP3    H245013   2.596   5.586  10.452 -0.8410 -0.1877  2.6085
 6940TIP3   OH245014   7.445   1.945  11.818  0.0740  0.2411 -0.5609
 6940TIP3    H145015   7.446   2.020  11.759 -0.9977 -0.2948 -1.2958
 6940TIP3    H245016   7.357   1.944  11.854 -0.1168 -1.0114 -1.0267
 6941TIP3   OH245017   1.839   4.798  11.344  0.1127  0.4099 -0.4239
 6941TIP3    H145018   1.756   4.836  11.315 -0.9170 -1.4065 -0.0391
 6941TIP3    H245019   1.814   4.720  11.393  2.0716 -0.7536 -1.1176
 6942TIP3   OH245020   3.453   1.468  10.585 -0.5097 -0.0360  0.0678
 6942TIP3    H145021   3.518   1.408  10.549  0.0463  0.2885  0.5136
 6942TIP3    H245022   3.398   1.413  10.641 -0.7715 -0.3549 -0.4986
 6943TIP3   OH245023   0.066   4.163  13.433 -0.1024  0.2323  0.0146
 6943TIP3    H145024   0.097   4.204  13.352 -1.4789  1.2651 -0.0166
 6943TIP3    H245025   0.081   4.070  13.420  0.5971  0.4767 -1.0288
 6944TIP3   OH245026   2.784   0.772  11.663 -0.1413  0.1998 -0.1891
 6944TIP3    H145027   2.693   0.742  11.655  0.0048  0.2663 -2.5137
 6944TIP3    H245028   2.777   0.859  11.702 -0.9381 -0.4449  1.1914
 6945TIP3   OH245029   3.415   7.298  10.868 -0.4684 -0.1578  0.4924
 6945TIP3    H145030   3.460   7.302  10.952 -1.0685  0.2763  0.8055
 6945TIP3    H245031   3.414   7.389  10.837  0.2398 -0.3932 -0.2588
 6946TIP3   OH245032   6.831   4.508  13.648 -0.0042 -0.4442 -0.1726
 6946TIP3    H145033   6.749   4.558  13.639  0.9033  1.1531  0.1314
 6946TIP3    H245034   6.833   4.452  13.570 -1.4491 -0.6381 -0.1031
 6947TIP3   OH245035   4.463   0.079  13.079 -0.0037  0.6472 -0.1089
 6947TIP3    H145036   4.391   0.133  13.048 -0.4944  1.1756  1.8218
 6947TIP3    H245037   4.506   0.132  13.146  4.3274  1.7780 -3.3563
 6948TIP3   OH245038   0.468   4.534  11.863 -0.3447  0.5386  0.1331
 6948TIP3    H145039   0.441   4.610  11.915 -1.5017  0.0345  0.2994
 6948TIP3    H245040   0.395   4.520  11.802  0.1456 -0.0521 -0.3310
 6949TIP3   OH245041   0.386   1.753  11.116 -0.5071  0.3674 -0.3346
 6949TIP3    H145042   0.450   1.789  11.178  0.7011 -0.0809 -1.3039
 6949TIP3    H245043   0.384   1.816  11.044  0.7698 -0.8622 -1.5049
 6950TIP3   OH245044   2.976   4.425  11.723  0.0470 -0.1457  0.7412
 6950TIP3    H145045   2.976   4.520  11.737  2.4656  0.1313 -0.5597
 6950TIP3    H245046   2.938   4.415  11.635 -0.5008 -0.4369  1.0063
 6951TIP3   OH245047   2.124   2.685  12.614 -0.3635  0.2223 -0.0578
 6951TIP3    H145048   2.078   2.711  12.534 -0.7045  3.4592  1.0440
 6951TIP3    H245049   2.201   2.638  12.583 -0.9136  0.6532 -2.2474
 6952TIP3   OH245050   4.152   1.138  10.574 -0.0525 -0.3042 -0.0611
 6952TIP3    H145051   4.183   1.055  10.535  1.2067  0.0244  0.1866
 6952TIP3    H245052   4.127   1.114  10.663 -1.1267 -0.6943 -0.4529
 6953TIP3   OH245053   1.169   5.008  12.196  0.6580 -0.2531  0.1281
 6953TIP3    H145054   1.235   5.024  12.263  2.1486 -1.4587 -0.9778
 6953TIP3    H245055   1.219   4.987  12.117 -1.0491 -0.4441 -0.9646
 6954TIP3   OH245056   2.559   1.420  11.666 -0.4173  0.0652  0.0052
 6954TIP3    H145057   2.580   1.333  11.633 -2.7275 -0.9344  0.9171
 6954TIP3    H245058   2.481   1.446  11.617 -0.3781  1.1560  0.4873
 6955TIP3   OH245059   5.504   3.335  12.594  0.1433  0.0162  0.0815
 6955TIP3    H145060   5.522   3.338  12.687 -1.4551  0.8950  0.4121
 6955TIP3    H245061   5.443   3.261  12.584  0.0101  0.1607 -0.1892
 6956TIP3   OH245062   2.438   4.428  10.800  0.3430  0.1853  0.1737
 6956TIP3    H145063   2.470   4.350  10.754 -1.7411 -0.3818 -0.4165
 6956TIP3    H245064   2.456   4.409  10.893  1.6425 -0.0954 -0.1121
 6957TIP3   OH245065   1.049   2.697  11.684 -0.0758 -0.5610 -0.3811
 6957TIP3    H145066   1.069   2.739  11.600 -3.1273  0.8905 -0.5220
 6957TIP3    H245067   1.098   2.748  11.748  0.2389 -0.0188 -1.0364
 6958TIP3   OH245068   3.136   3.542  10.229  0.3459 -0.6909  0.4800
 6958TIP3    H145069   3.186   3.528  10.149 -0.9649 -1.0871 -0.2957
 6958TIP3    H245070   3.071   3.608  10.206  1.0656  0.5230  1.7443
 6959TIP3   OH245071   4.363   6.653  10.906 -0.5905 -0.0975 -0.2184
 6959TIP3    H145072   4.328   6.708  10.835  0.4671 -0.0912 -0.7635
 6959TIP3    H245073   4.297   6.585  10.918 -0.4305 -0.5885 -1.8124
 6960TIP3   OH245074   3.307   1.697  10.601 -0.1993  0.5919  0.0527
 6960TIP3    H145075   3.216   1.694  10.569 -0.0007 -0.0035 -0.4820
 6960TIP3    H245076   3.344   1.614  10.573  1.1182  1.6649 -1.5368
 6961TIP3   OH245077   1.488   3.685  12.378  0.4821 -0.0571  0.0704
 6961TIP3    H145078   1.484   3.750  12.448 -0.7619  0.5825 -0.5571
 6961TIP3    H245079   1.445   3.608  12.414 -0.9373  0.5583 -0.2578
 6962TIP3   OH245080   2.246   6.020  10.745 -0.0151 -0.6348  0.1583
 6962TIP3    H145081   2.183   5.997  10.813  0.7129 -1.7445  0.4881
 6962TIP3    H245082   2.307   6.080  10.788  0.0751 -0.8323  0.3086
 6963TIP3   OH245083   1.649   1.025  11.582  0.0354  0.3611  0.0232
 6963TIP3    H145084   1.607   1.013  11.667 -0.4488  1.2333 -0.0760
 6963TIP3    H245085   1.626   1.115  11.557  1.4790  0.6675 -0.3060
 6964TIP3   OH245086   4.301   0.482  11.510 -1.0628 -0.1692 -0.1941
 6964TIP3    H145087   4.308   0.508  11.418 -0.3723  1.2948  0.2431
 6964TIP3    H245088   4.226   0.532  11.543 -1.5952 -1.0395 -0.0650
 6965TIP3   OH245089   6.761   1.146  11.577  0.3464  0.0082  0.0348
 6965TIP3    H145090   6.799   1.151  11.490 -0.8903  1.0568 -0.4782
 6965TIP3    H245091   6.826   1.099  11.629  1.3159 -0.2116 -1.3263
 6966TIP3   OH245092   5.323   1.890  11.356  0.0824  0.7901 -0.2242
 6966TIP3    H145093   5.408   1.912  11.393 -0.2217  1.0202  0.3407
 6966TIP3    H245094   5.260   1.942  11.406 -0.4571  0.0964 -0.1764
 6967TIP3   OH245095   3.924   0.004  11.982  0.8480 -0.0032 -0.6080
 6967TIP3    H145096   3.978   0.004  12.061  1.3395 -0.1931 -0.9392
 6967TIP3    H245097   3.917   0.096  11.957 -0.9340  0.2717  0.7453
 6968TIP3   OH245098   0.480   1.031  12.122  0.6391  0.0368 -0.2174
 6968TIP3    H145099   0.509   1.000  12.036  0.2945  0.2523 -0.4222
 6968TIP3    H245100   0.414   0.967  12.150 -1.9690  1.8123 -1.8025
 6969TIP3   OH245101   5.272   1.448  10.876  0.3108  0.0565 -0.5461
 6969TIP3    H145102   5.347   1.507  10.889  0.8067 -0.6671 -0.0202
 6969TIP3    H245103   5.311   1.361  10.874 -0.6725 -0.4663  1.3367
 6970TIP3   OH245104   4.003   1.773  10.552 -0.0926 -0.0280 -0.0582
 6970TIP3    H145105   4.059   1.726  10.491 -0.7891  0.4755 -1.1103
 6970TIP3    H245106   4.063   1.810  10.617  0.8248  0.5956 -1.2248
 6971TIP3   OH245107   0.239   3.376  12.565 -0.4329 -0.5058 -0.2929
 6971TIP3    H145108   0.204   3.357  12.478  0.1217  1.2705 -0.9553
 6971TIP3    H245109   0.240   3.471  12.570 -0.9278 -0.5607  1.8877
 6972TIP3   OH245110   1.026   6.045  11.758 -0.6915 -0.8879  0.0447
 6972TIP3    H145111   1.070   6.075  11.679  0.5356 -3.8758 -0.5560
 6972TIP3    H245112   1.056   6.105  11.827 -0.8902  1.0737 -1.4945
 6973TIP3   OH245113   3.443   2.046  11.839  0.2416 -0.6044  0.5219
 6973TIP3    H145114   3.415   2.075  11.925  0.3957  0.0907  0.3431
 6973TIP3    H245115   3.407   2.110  11.778  0.4464 -0.8795  0.1009
 6974TIP3   OH245116   3.650   2.587  10.796 -0.5860 -0.0361  0.5172
 6974TIP3    H145117   3.603   2.671  10.801 -1.9666 -0.7271 -0.3598
 6974TIP3    H245118   3.736   2.611  10.761 -1.1966  0.9542 -0.3929
 6975TIP3   OH245119   3.755   6.317  10.638  0.0116 -0.1860 -0.1200
 6975TIP3    H145120   3.716   6.316  10.725 -1.7038 -0.0415 -0.8642
 6975TIP3    H245121   3.771   6.410  10.619  0.4873 -0.2251  0.0703
 6976TIP3   OH245122   5.177   2.280  11.069 -0.1081  0.1532 -0.0518
 6976TIP3    H145123   5.167   2.227  10.990  0.1965 -1.8168  1.1845
 6976TIP3    H245124   5.258   2.250  11.109  0.2928  1.8604  0.5229
 6977TIP3   OH245125   4.468   2.587  12.567 -0.0959 -0.3869 -0.2958
 6977TIP3    H145126   4.436   2.497  12.568 -0.6013 -0.2462 -1.3966
 6977TIP3    H245127   4.519   2.593  12.486  0.1866  0.2254 -0.0778
 6978TIP3   OH245128   1.037   1.333  10.739 -0.5914 -0.0759  0.2189
 6978TIP3    H145129   1.113   1.291  10.698  0.5056  0.7612  1.3422
 6978TIP3    H245130   1.071   1.371  10.820 -1.1866  3.9909 -1.2086
 6979TIP3   OH245131   3.538   2.604  11.580 -0.2983  0.0625 -0.1144
 6979TIP3    H145132   3.622   2.578  11.618 -1.3943 -3.0239  0.5250
 6979TIP3    H245133   3.550   2.595  11.485  0.3547  0.5064 -0.0712
 6980TIP3   OH245134   2.555   4.307  11.056  0.1789  0.1083  0.2477
 6980TIP3    H145135   2.606   4.226  11.048  1.6480  0.8741  1.2843
 6980TIP3    H245136   2.617   4.376  11.031 -0.9471  0.9457 -0.2890
 6981TIP3   OH245137   3.951   3.017  12.310  0.2459 -0.2584 -0.1551
 6981TIP3    H145138   3.941   3.010  12.405  0.8747  1.2944  0.0554
 6981TIP3    H245139   4.030   2.966  12.290 -0.7599 -1.9057 -0.0926
 6982TIP3   OH245140   1.933   2.897  10.630  0.1825 -0.1702 -0.1396
 6982TIP3    H145141   1.984   2.838  10.574 -0.2929  1.1640 -2.1113
 6982TIP3    H245142   1.969   2.984  10.611 -1.5088  0.5774 -0.1206
 6983TIP3   OH245143   6.010   1.672  12.573  0.0254 -0.6900  0.5403
 6983TIP3    H145144   5.918   1.697  12.581 -0.1097 -0.9806 -0.0604
 6983TIP3    H245145   6.057   1.739  12.621 -0.5095 -0.6083  0.9668
 6984TIP3   OH245146   6.584   2.873  10.887  0.1884 -0.0394 -0.2280
 6984TIP3    H145147   6.620   2.798  10.839  0.2950  0.3676 -0.7924
 6984TIP3    H245148   6.570   2.840  10.975  1.2731 -0.4061 -0.1811
 6985TIP3   OH245149   4.241   2.732  12.639 -0.0856 -0.2659  0.0056
 6985TIP3    H145150   4.189   2.717  12.560  0.4594 -1.0373 -0.2103
 6985TIP3    H245151   4.330   2.708  12.615  0.2598  0.3875  0.5846
 6986TIP3   OH245152   6.483   7.120  11.550 -0.4941 -0.6585  0.2345
 6986TIP3    H145153   6.555   7.175  11.517 -0.7080 -0.2926  0.3683
 6986TIP3    H245154   6.500   7.113  11.644 -0.3551 -0.9922  0.1843
 6987TIP3   OH245155   0.816   6.272  12.024  0.0147  0.3709  0.0128
 6987TIP3    H145156   0.832   6.279  11.930 -1.0536 -0.2680 -0.2265
 6987TIP3    H245157   0.897   6.304  12.064  1.3932 -1.4758 -1.1190
 6988TIP3   OH245158   7.464   6.582  12.353  0.1528  0.7614 -0.5515
 6988TIP3    H145159   7.370   6.561  12.352  0.0374  1.2343 -0.1087
 6988TIP3    H245160   7.471   6.659  12.410  0.8368  0.6105 -0.4217
 6989TIP3   OH245161   5.115   2.132  11.796  0.2733  0.4275 -0.6802
 6989TIP3    H145162   5.102   2.073  11.871  0.6399  0.7955 -0.3298
 6989TIP3    H245163   5.028   2.169  11.780 -0.1362 -0.7414 -1.3646
 6990TIP3   OH245164   0.114   3.774  12.272  0.2118 -0.8514  0.2936
 6990TIP3    H145165   0.181   3.776  12.203  0.3687 -0.1825  0.4634
 6990TIP3    H245166   0.084   3.864  12.279  0.7551 -0.7566  1.6520
 6991TIP3   OH245167   4.302   6.335  11.938 -0.0430  0.8087  0.0749
 6991TIP3    H145168   4.224   6.335  11.882 -0.7371  1.9938  0.9867
 6991TIP3    H245169   4.337   6.423  11.930  0.1543  0.8308  1.0906
 6992TIP3   OH245170   7.567   4.391  13.582  1.6094 -0.0470  0.2245
 6992TIP3    H145171   7.566   4.370  13.489 -0.7524 -2.5120  0.6781
 6992TIP3    H245172   7.483   4.434  13.598  1.5867 -0.4970  1.3866
 6993TIP3   OH245173   0.172   5.938  13.157  0.0140  0.3590  0.4870
 6993TIP3    H145174   0.140   6.027  13.142  0.5795  0.5017  0.1253
 6993TIP3    H245175   0.103   5.897  13.211 -0.9367  0.5597 -0.5475
 6994TIP3   OH245176   5.900   2.224  11.709 -0.3561 -0.5988 -0.1841
 6994TIP3    H145177   5.939   2.309  11.730 -0.0651 -1.1730  1.7166
 6994TIP3    H245178   5.924   2.210  11.617  2.1932  0.0306  0.2883
 6995TIP3   OH245179   1.220   1.882  10.812 -0.9074 -0.5235 -0.1594
 6995TIP3    H145180   1.234   1.975  10.794  0.3725 -0.4537  1.0215
 6995TIP3    H245181   1.196   1.845  10.727  0.6469  0.5194 -1.1264
 6996TIP3   OH245182   4.557   7.562  11.768  0.3120 -0.2017  0.0106
 6996TIP3    H145183   4.499   7.486  11.757 -1.1092  0.9182 -0.5075
 6996TIP3    H245184   4.620   7.534  11.834  0.3124 -2.1023 -0.7157
 6997TIP3   OH245185   6.559   2.461  11.474  0.0187  0.5170  0.1882
 6997TIP3    H145186   6.646   2.453  11.514  0.1595 -1.1294 -0.3737
 6997TIP3    H245187   6.572   2.438  11.383 -1.1466 -0.6241  0.2777
 6998TIP3   OH245188   5.927   0.235  11.326 -0.2061  0.3653  0.6355
 6998TIP3    H145189   5.834   0.220  11.311 -0.0566  0.2263 -0.1872
 6998TIP3    H245190   5.961   0.263  11.242  0.5809  0.0128  0.8225
 6999TIP3   OH245191   7.211   1.956  12.013 -0.2299 -0.6292  0.0050
 6999TIP3    H145192   7.247   1.885  12.066 -1.3247 -0.2346  1.3540
 6999TIP3    H245193   7.116   1.949  12.025 -0.4035  0.5607 -0.4897
 7000TIP3   OH245194   2.120   2.785  11.790 -0.2577 -0.0367  0.3443
 7000TIP3    H145195   2.026   2.775  11.802 -0.3089  0.3668  0.2729
 7000TIP3    H245196   2.131   2.799  11.696 -0.2387  1.1659  0.5169
 7001TIP3   OH245197   0.224   5.130  10.626 -0.3505 -0.1462  0.6020
 7001TIP3    H145198   0.308   5.101  10.589  0.3901  0.5656  1.6858
 7001TIP3    H245199   0.246   5.207  10.678 -1.7810  0.3879  0.4471
 7002TIP3   OH245200   4.815   4.849  12.561 -0.6015 -0.2954 -0.0326
 7002TIP3    H145201   4.896   4.889  12.529 -0.3383 -0.1913  0.7591
 7002TIP3    H245202   4.751   4.866  12.491 -0.6177  1.8936  0.4464
 7003TIP3   OH245203   1.343   2.954  12.664  0.4142  0.0624  0.3450
 7003TIP3    H145204   1.368   2.967  12.755 -0.4738 -0.0015  0.6058
 7003TIP3    H245205   1.280   2.882  12.666 -0.0264  0.4227 -0.2489
 7004TIP3   OH245206   5.800   6.922  10.706  0.0807 -0.7817 -0.0464
 7004TIP3    H145207   5.880   6.925  10.758  0.0197 -2.4956  0.2228
 7004TIP3    H245208   5.764   6.834  10.722 -2.6302  0.4156  0.9445
 7005TIP3   OH245209   1.935   0.102  11.974  0.2976  0.4877 -0.0575
 7005TIP3    H145210   1.967   0.162  12.042  0.7564 -0.5586  0.6598
 7005TIP3    H245211   1.974   0.018  11.995  0.1024  0.0371 -1.3834
 7006TIP3   OH245212   4.236   0.202  12.036 -0.3406  0.3007 -0.0896
 7006TIP3    H145213   4.217   0.220  11.944 -1.0281  1.6316  0.2837
 7006TIP3    H245214   4.282   0.281  12.067 -0.1162 -0.1317  0.7112
 7007TIP3   OH245215   2.755   1.576  10.997 -0.3785 -0.5308  0.0820
 7007TIP3    H145216   2.805   1.658  10.995  0.1570 -0.5685  4.0405
 7007TIP3    H245217   2.821   1.508  10.986 -0.3340 -0.4968  0.1366
 7008TIP3   OH245218   6.077   7.427  11.931  0.3746  0.0016 -0.2059
 7008TIP3    H145219   6.086   7.333  11.914  2.3798  0.0815  0.1460
 7008TIP3    H245220   6.110   7.468  11.851 -0.1851  0.4298 -0.2248
 7009TIP3   OH245221   3.885   2.951  12.561  0.3719 -0.5375  0.6302
 7009TIP3    H145222   3.947   2.930  12.631 -0.1682 -0.4086  1.1580
 7009TIP3    H245223   3.799   2.931  12.599  0.0673 -0.3716  0.0346
 7010TIP3   OH245224   6.974   5.050  11.938 -0.4001  0.5426  0.4690
 7010TIP3    H145225   7.020   4.974  11.902  0.0017  1.8093 -1.8948
 7010TIP3    H245226   7.042   5.115  11.953 -1.0897  1.6562 -0.9728
 7011TIP3   OH245227   5.940   4.549  11.873  0.0546  0.0830  0.2356
 7011TIP3    H145228   5.944   4.579  11.783  1.7390  0.0583  0.2655
 7011TIP3    H245229   6.008   4.481  11.878 -1.2450 -1.2289  1.0660
 7012TIP3   OH245230   4.826   3.398  12.049  0.0690  0.4203  0.0694
 7012TIP3    H145231   4.843   3.475  11.994  0.6755 -1.0857 -1.9835
 7012TIP3    H245232   4.731   3.387  12.046  0.1431  0.0048 -1.2288
 7013TIP3   OH245233   1.109   6.117  11.515 -0.2814 -0.4668 -0.4672
 7013TIP3    H145234   1.127   6.024  11.500  0.0264 -0.6634  0.9827
 7013TIP3    H245235   1.190   6.151  11.553 -0.6798  0.1909 -0.1947
 7014TIP3   OH245236   4.268   3.001  12.609 -0.6795  0.4651  0.2122
 7014TIP3    H145237   4.273   3.005  12.513 -3.6234 -0.9804 -0.1089
 7014TIP3    H245238   4.299   2.913  12.631 -2.3075 -0.1184  0.2960
 7015TIP3   OH245239   2.826   2.177  12.437  0.1324  0.1705 -0.1005
 7015TIP3    H145240   2.836   2.137  12.351  3.4045  3.1979 -1.3412
 7015TIP3    H245241   2.749   2.232  12.429  0.0968  0.0138 -0.8866
 7016TIP3   OH245242   1.322   5.562  10.746 -0.1602 -0.0447 -0.6998
 7016TIP3    H145243   1.237   5.521  10.730 -1.4037  1.7344  0.9517
 7016TIP3    H245244   1.381   5.488  10.761 -1.2707 -1.3409 -2.2294
 7017TIP3   OH245245   7.541   5.048  11.832  0.2650 -0.0947 -0.1525
 7017TIP3    H145246   7.545   5.127  11.885 -0.2620  1.0017 -1.7042
 7017TIP3    H245247   7.449   5.039  11.808  0.4232 -0.8263 -0.5129
 7018TIP3   OH245248   2.418   3.948  11.637  0.4177 -0.3811  0.1739
 7018TIP3    H145249   2.379   4.035  11.624 -0.4734 -0.1565  3.4865
 7018TIP3    H245250   2.508   3.966  11.665 -0.0542 -0.4296  1.7951
 7019TIP3   OH245251   2.567   6.004  10.904  0.0533 -0.1815 -0.1893
 7019TIP3    H145252   2.489   5.956  10.932 -0.4785  1.1797  0.7707
 7019TIP3    H245253   2.552   6.094  10.933  1.9135  0.1564 -0.1187
 7020TIP3   OH245254   0.749   0.868  11.709 -0.1099 -0.3266 -0.1273
 7020TIP3    H145255   0.819   0.809  11.683 -0.6960 -1.1297  0.1037
 7020TIP3    H245256   0.697   0.880  11.630  0.7161  0.9181 -0.5243
 7021TIP3   OH245257   3.075   1.109  10.835 -0.1671  0.3460 -0.4102
 7021TIP3    H145258   3.096   1.103  10.741  0.5988 -0.0697 -0.2256
 7021TIP3    H245259   2.982   1.089  10.840  0.3208 -2.3833 -0.8341
 7022TIP3   OH245260   1.571   7.177  10.166 -1.0167 -0.1573  0.4453
 7022TIP3    H145261   1.663   7.163  10.189 -0.6047  1.3724 -0.1240
 7022TIP3    H245262   1.564   7.144  10.076 -0.4767  1.5799 -0.2698
 7023TIP3   OH245263   4.521   3.034  12.353  0.4925 -0.5208  0.2090
 7023TIP3    H145264   4.555   3.005  12.437  1.3258 -0.4126 -0.0857
 7023TIP3    H245265   4.509   3.128  12.362  1.2437 -0.4016 -0.0184
 7024TIP3   OH245266   4.849   2.976  13.094  0.2453  0.0500  0.0666
 7024TIP3    H145267   4.783   2.954  13.028  0.6412 -1.1728  0.0397
 7024TIP3    H245268   4.838   3.069  13.109 -1.1037 -0.0184 -0.3521
 7025TIP3   OH245269   1.907   5.578  10.459 -0.0873  0.4869  0.2785
 7025TIP3    H145270   1.867   5.616  10.381  0.1378 -0.7310 -0.4579
 7025TIP3    H245271   1.972   5.642  10.487  2.1240 -0.3450 -2.4372
 7026TIP3   OH245272   4.943   6.201  11.767  0.3481  0.2727 -0.5343
 7026TIP3    H145273   4.871   6.139  11.775  0.0960  0.7118  1.0499
 7026TIP3    H245274   4.984   6.201  11.853  2.1223  0.2045 -1.3395
 7027TIP3   OH245275   2.230   3.161  11.285 -0.1360  0.4760  0.2539
 7027TIP3    H145276   2.271   3.169  11.199  0.2175  2.0476  0.5414
 7027TIP3    H245277   2.173   3.084  11.278 -0.0780  0.5594 -1.3604
 7028TIP3   OH245278   3.960   3.748  13.349 -0.2740 -0.9482  0.1896
 7028TIP3    H145279   4.052   3.727  13.334 -0.7826 -1.9552 -1.9836
 7028TIP3    H245280   3.931   3.685  13.416  0.4158 -1.1514  0.3024
 7029TIP3   OH245281   4.017   6.218  10.613 -0.8901  0.0169  0.1987
 7029TIP3    H145282   4.014   6.183  10.702 -1.8795  1.3084  0.7009
 7029TIP3    H245283   3.936   6.267  10.604 -0.7368  0.0220 -1.3860
 7030TIP3   OH245284   7.321   7.150  10.726 -0.0351  0.7314  0.0230
 7030TIP3    H145285   7.314   7.054  10.727 -0.9352  0.7923 -0.0818
 7030TIP3    H245286   7.234   7.181  10.749  0.1346  1.5356 -0.3718
 7031TIP3   OH245287   6.502   2.172  10.920 -0.1248 -0.3255  0.2804
 7031TIP3    H145288   6.464   2.260  10.923 -1.1157 -0.7655  2.1789
 7031TIP3    H245289   6.443   2.119  10.974  1.2344 -1.8418  0.3394
 7032TIP3   OH245290   5.483   5.313  10.378 -0.0319 -0.3810 -0.7811
 7032TIP3    H145291   5.441   5.227  10.376 -2.0624  0.4870  0.5689
 7032TIP3    H245292   5.416   5.374  10.348  1.0625  0.8512 -0.8536
 7033TIP3   OH245293   4.798   2.129  12.832 -0.2219  1.2195 -0.2641
 7033TIP3    H145294   4.834   2.045  12.857 -1.1490  0.1889 -2.1698
 7033TIP3    H245295   4.711   2.131  12.872  0.4669  2.0784  1.2478
 7034TIP3   OH245296   0.910   4.459  10.383 -0.1732 -0.0466 -0.5066
 7034TIP3    H145297   0.916   4.409  10.301 -1.8632  2.9412 -2.6825
 7034TIP3    H245298   0.823   4.499  10.379 -0.8132 -0.6733  3.4259
 7035TIP3   OH245299   0.304   5.182  11.025 -0.0645 -0.1987  0.3956
 7035TIP3    H145300   0.215   5.209  11.051  0.4690 -0.2479  2.4374
 7035TIP3    H245301   0.323   5.107  11.081  1.3226 -0.1184  0.0562
 7036TIP3   OH245302   7.013   0.384  11.767 -0.1836 -0.0627 -0.4300
 7036TIP3    H145303   6.950   0.435  11.818  1.6616  0.2780  1.6643
 7036TIP3    H245304   6.993   0.293  11.789  0.0161  0.0387  0.1746
 7037TIP3   OH245305   7.098   7.114  11.764 -0.1030  0.3536  0.0805
 7037TIP3    H145306   7.171   7.174  11.780  0.5555 -0.6372  0.9312
 7037TIP3    H245307   7.135   7.047  11.708 -1.0537  1.1247 -1.5331
 7038TIP3   OH245308   2.113   3.835  18.373 -0.5880 -0.4488 -0.0016
 7038TIP3    H145309   2.153   3.763  18.322 -2.3922 -1.9332  0.5812
 7038TIP3    H245310   2.119   3.911  18.315  1.7446 -0.9007 -0.4913
 7039TIP3   OH245311   7.190   1.509  10.902 -0.8386 -0.2827 -0.5108
 7039TIP3    H145312   7.223   1.597  10.885 -0.2820  0.2232  2.5524
 7039TIP3    H245313   7.119   1.522  10.965 -0.5977 -2.0189  0.1857
 7040TIP3   OH245314   2.907   6.845  11.213 -0.1422  0.2695  0.4503
 7040TIP3    H145315   2.813   6.844  11.231  0.0412  0.9754  1.5886
 7040TIP3    H245316   2.914   6.833  11.119 -1.4780  2.0818  0.0588
 7041TIP3   OH245317   4.103   3.454  12.437  0.4220  0.0499  0.2290
 7041TIP3    H145318   4.132   3.545  12.446  1.6278  0.0856 -2.9043
 7041TIP3    H245319   4.183   3.402  12.440 -0.0761 -0.7458  0.1802
 7042TIP3   OH245320   7.018   6.741  11.113  0.4096  0.1096  0.3020
 7042TIP3    H145321   6.938   6.698  11.145 -0.2116  0.1362 -1.1348
 7042TIP3    H245322   6.987   6.801  11.045  1.5826  0.6717  0.2413
 7043TIP3   OH245323   4.345   1.705  12.652  0.8548 -0.2819 -0.2368
 7043TIP3    H145324   4.396   1.625  12.635  0.8919  0.0218 -1.6860
 7043TIP3    H245325   4.323   1.738  12.565 -0.8192  0.2512  0.3438
 7044TIP3   OH245326   5.068   4.412  13.009 -0.4981  0.6475 -0.4063
 7044TIP3    H145327   5.109   4.367  12.935 -1.4068  1.5283 -1.4779
 7044TIP3    H245328   4.977   4.422  12.983 -0.9530  0.5124  1.0814
 7045TIP3   OH245329   2.911   4.422  11.115 -0.2205 -0.0236  0.4094
 7045TIP3    H145330   3.003   4.447  11.102  0.6348 -2.1578  1.7570
 7045TIP3    H245331   2.911   4.327  11.106 -1.8502 -0.3226  2.6205
 7046TIP3   OH245332   2.089   1.504  10.738 -0.1744  0.3304  0.5050
 7046TIP3    H145333   2.016   1.471  10.789  0.0844  0.2579  0.8315
 7046TIP3    H245334   2.161   1.444  10.758  0.1682  0.8131  0.7357
 7047TIP3   OH245335   2.251   1.450  10.253  0.0757  0.0982 -0.0505
 7047TIP3    H145336   2.284   1.538  10.272  0.5181 -0.1047  0.1365
 7047TIP3    H245337   2.157   1.456  10.271  0.2794  0.2393  1.0747
 7048TIP3   OH245338   6.146   5.118  11.710 -0.1998 -0.0994  0.2113
 7048TIP3    H145339   6.215   5.079  11.763  0.3879  1.6379  0.7767
 7048TIP3    H245340   6.188   5.191  11.666 -1.2005 -0.2520 -1.0438
 7049TIP3   OH245341   2.638   3.272  11.677  0.6755  0.1920 -0.2142
 7049TIP3    H145342   2.561   3.320  11.645  0.8848  0.1847 -0.7465
 7049TIP3    H245343   2.710   3.335  11.668  0.4419  0.8663  2.0561
 7050TIP3   OH245344   3.236   5.410  11.604  0.4238 -0.2655  0.2534
 7050TIP3    H145345   3.216   5.490  11.555  0.3594  0.0483  0.7765
 7050TIP3    H245346   3.204   5.339  11.549  0.0835  0.0943 -0.0203
 7051TIP3   OH245347   4.029   2.828  12.094 -1.2239  0.5288  0.1981
 7051TIP3    H145348   4.106   2.793  12.139 -1.8772  0.3939  1.2441
 7051TIP3    H245349   4.060   2.850  12.006 -0.2481 -0.5110  0.2677
 7052TIP3   OH245350   0.735   6.000  12.983 -0.2166 -0.4329 -0.1816
 7052TIP3    H145351   0.777   5.922  12.946  0.2958 -0.8955  1.3089
 7052TIP3    H245352   0.706   5.973  13.070 -1.7915  0.4848 -0.3838
 7053TIP3   OH245353   3.409   6.963  11.481  0.1179  0.4940  0.2890
 7053TIP3    H145354   3.418   6.880  11.434  0.2223 -0.4796  1.9235
 7053TIP3    H245355   3.315   6.975  11.492  0.1040  0.5663  0.0850
 7054TIP3   OH245356   3.334   5.394  13.047 -0.1616  0.4453 -0.2511
 7054TIP3    H145357   3.361   5.304  13.028  2.6188  1.2809 -0.7229
 7054TIP3    H245358   3.400   5.427  13.107  0.7200  3.0736 -2.4313
 7055TIP3   OH245359   1.702   6.910  10.754  0.1519 -0.7838  0.0482
 7055TIP3    H145360   1.710   6.974  10.684 -2.1261 -0.4909 -0.0030
 7055TIP3    H245361   1.788   6.912  10.797  1.3167 -0.3266 -2.1267
 7056TIP3   OH245362   0.890   4.061  10.267  0.5562 -0.1131  0.4202
 7056TIP3    H145363   0.983   4.080  10.254  0.0859  1.4297 -0.7962
 7056TIP3    H245364   0.867   4.110  10.346  0.6092  0.0445  0.3374
 7057TIP3   OH245365   6.968   5.689  11.681  0.4234  0.3213  0.1451
 7057TIP3    H145366   7.008   5.775  11.667  0.5255  0.1615 -0.5811
 7057TIP3    H245367   7.039   5.635  11.715 -0.2742  1.2218  3.4178
 7058TIP3   OH245368   0.941   3.198  11.347  0.0864  0.6637  0.0011
 7058TIP3    H145369   0.846   3.201  11.337  0.2072  0.8651 -1.2128
 7058TIP3    H245370   0.959   3.256  11.421 -0.8302 -0.3793  1.1007
 7059TIP3   OH245371   2.492   1.574  11.111 -0.2283  0.1646  0.1420
 7059TIP3    H145372   2.423   1.612  11.056 -1.7153 -2.3684  0.1171
 7059TIP3    H245373   2.568   1.569  11.054 -0.1961  2.2222 -0.0914
 7060TIP3   OH245374   6.112   3.645  11.910 -0.6238  0.4617  0.2756
 7060TIP3    H145375   6.065   3.717  11.868 -2.3404 -1.3828 -1.1324
 7060TIP3    H245376   6.205   3.666  11.896 -1.0797  2.2454 -0.3085
 7061TIP3   OH245377   4.559   3.897  12.687  0.4666  0.1845  0.4502
 7061TIP3    H145378   4.473   3.926  12.719  0.2321 -0.5167  0.4976
 7061TIP3    H245379   4.575   3.816  12.736  1.7220  0.9376  1.3361
 7062TIP3   OH245380   7.434   0.927  13.011  0.1318 -0.4675 -0.4788
 7062TIP3    H145381   7.475   1.014  13.005 -0.3342 -0.3093 -1.5790
 7062TIP3    H245382   7.505   0.870  13.039  0.4360  0.2677  0.3154
 7063TIP3   OH245383   6.724   5.038  12.596 -0.0664 -0.2360  0.1552
 7063TIP3    H145384   6.739   5.099  12.668 -1.6441 -0.6311  0.8632
 7063TIP3    H245385   6.718   4.953  12.638  0.8377 -0.7241 -0.6772
 7064TIP3   OH245386   4.164   6.450  13.036  0.3549 -0.0290 -0.1108
 7064TIP3    H145387   4.093   6.514  13.033 -1.0221 -1.5563 -1.8915
 7064TIP3    H245388   4.121   6.365  13.041  2.0306 -1.0017 -1.0531
 7065TIP3   OH245389   4.470   1.986  10.454 -0.1992  0.1447  0.0006
 7065TIP3    H145390   4.377   2.008  10.445 -0.2114  0.0945  0.0079
 7065TIP3    H245391   4.510   2.069  10.482 -0.1725  0.2773 -0.4313
 7066TIP3   OH245392   7.147   5.924  10.697 -0.0941  0.4102 -0.1232
 7066TIP3    H145393   7.112   6.012  10.707 -0.5279  0.2142  0.0975
 7066TIP3    H245394   7.221   5.920  10.758 -0.1827  0.5640 -0.0062
 7067TIP3   OH245395   3.479   5.981  10.894  0.0949 -0.5926 -0.0068
 7067TIP3    H145396   3.538   5.944  10.961 -0.5674 -3.1836 -0.7184
 7067TIP3    H245397   3.394   5.944  10.915 -0.7312  0.9041 -0.6150
 7068TIP3   OH245398   4.051   7.571  11.732 -0.3912  0.3744 -0.3846
 7068TIP3    H145399   4.141   7.603  11.730 -0.6487  1.0810 -1.5123
 7068TIP3    H245400   4.004   7.635  11.786 -0.0351 -0.5743  1.1165
 7069TIP3   OH245401   6.012   3.068  11.099 -0.1899  0.1316  0.7867
 7069TIP3    H145402   6.023   3.118  11.017 -2.7731  0.0230  0.2919
 7069TIP3    H245403   6.066   2.990  11.086 -0.0389  0.4202 -0.5605
 7070TIP3   OH245404   4.990   5.751  10.591  0.0747 -0.3076  0.4353
 7070TIP3    H145405   4.973   5.657  10.602  1.2194 -0.3813  1.7989
 7070TIP3    H245406   4.961   5.790  10.673  0.5055  0.4045  0.2493
 7071TIP3   OH245407   1.553   0.600  11.393  0.3093 -0.3516 -0.5541
 7071TIP3    H145408   1.498   0.554  11.330  2.3674 -0.3817 -2.4700
 7071TIP3    H245409   1.642   0.572  11.372  1.3033  1.6943  0.6257
 7072TIP3   OH245410   3.046   3.764  12.590  0.7036 -0.0401  0.2022
 7072TIP3    H145411   3.047   3.681  12.542  1.0026  0.3489 -0.4856
 7072TIP3    H245412   3.137   3.794  12.586  0.5112  0.5276  0.0786
 7073TIP3   OH245413   7.046   5.285  12.670  0.0093  0.2490 -0.8128
 7073TIP3    H145414   6.986   5.220  12.708  1.4706 -0.0245  1.1773
 7073TIP3    H245415   7.005   5.369  12.689  0.2688  0.0759  0.6568
 7074TIP3   OH245416   0.800   2.195  13.064  0.4440  0.0611 -0.5472
 7074TIP3    H145417   0.745   2.201  12.987 -0.0328  1.5785 -0.1161
 7074TIP3    H245418   0.863   2.266  13.055  0.4854  0.1560  0.3814
 7075TIP3   OH245419   5.708   7.183  12.013 -0.2591  0.7350 -0.2809
 7075TIP3    H145420   5.673   7.122  12.078  0.1172  2.1808  1.3543
 7075TIP3    H245421   5.788   7.141  11.982 -0.2665  0.1727  0.4257
 7076TIP3   OH245422   1.664   1.075  11.904 -0.3769 -0.0574 -0.1360
 7076TIP3    H145423   1.649   1.169  11.900 -1.2573 -0.0039  2.3959
 7076TIP3    H245424   1.577   1.036  11.895 -0.2239 -0.5303  0.3383
 7077TIP3   OH245425   7.284   3.361  11.025  0.3771  0.3699  0.5330
 7077TIP3    H145426   7.200   3.408  11.016  0.0773 -0.5119 -2.0021
 7077TIP3    H245427   7.341   3.401  10.960  1.1479 -0.6716  0.5500
 7078TIP3   OH245428   0.252   1.359  10.949 -0.3058 -0.1986  0.2811
 7078TIP3    H145429   0.254   1.380  10.855 -0.5623  1.1500  0.5568
 7078TIP3    H245430   0.173   1.306  10.960 -0.7644  0.3856 -0.1270
 7079TIP3   OH245431   0.887   1.854  11.527  0.0181  0.1797  0.4565
 7079TIP3    H145432   0.969   1.811  11.552 -0.1329 -0.1546  0.3807
 7079TIP3    H245433   0.914   1.925  11.469  0.4358  1.4258  2.1343
 7080TIP3   OH245434   5.373   5.694  12.136 -0.0592  0.0866 -0.0158
 7080TIP3    H145435   5.330   5.755  12.196 -0.2219 -1.5968  1.6808
 7080TIP3    H245436   5.462   5.685  12.171  0.8218  1.3448 -1.8166
 7081TIP3   OH245437   1.789   3.106  10.940  0.2541 -0.2834  0.0929
 7081TIP3    H145438   1.723   3.044  10.909  0.1199 -0.6383  1.0799
 7081TIP3    H245439   1.765   3.123  11.031  1.1402  0.1024  0.2582
 7082TIP3   OH245440   0.922   0.854  11.349  0.3318  0.0222 -0.4211
 7082TIP3    H145441   0.958   0.828  11.264 -0.1668 -0.7158 -0.4055
 7082TIP3    H245442   0.853   0.917  11.327  1.7356  1.6205 -0.4418
 7083TIP3   OH245443   2.842   3.969  12.498 -0.1567  0.4084  0.2820
 7083TIP3    H145444   2.766   3.912  12.482 -0.1567  0.5995 -0.4441
 7083TIP3    H245445   2.918   3.913  12.480 -0.1619  0.8481 -1.3210
 7084TIP3   OH245446   7.152   2.892  12.045 -0.0880 -0.1736  0.6429
 7084TIP3    H145447   7.070   2.846  12.063  1.0967 -2.7821 -0.1308
 7084TIP3    H245448   7.189   2.845  11.970  1.4168  1.8957  0.0030
 7085TIP3   OH245449   1.934   6.543  10.483  0.1891  0.0969  0.1039
 7085TIP3    H145450   1.951   6.634  10.507 -2.6156  0.6963  0.1162
 7085TIP3    H245451   1.875   6.548  10.408 -0.0238 -1.7323  0.0951
 7086TIP3   OH245452   3.675   6.754  12.376 -0.1712  0.1605  0.1795
 7086TIP3    H145453   3.620   6.677  12.362 -1.1364  0.7461  0.6840
 7086TIP3    H245454   3.746   6.722  12.432  0.6142 -0.8444 -1.3088
 7087TIP3   OH245455   3.730   2.648  10.435 -0.3077 -0.0335 -0.5595
 7087TIP3    H145456   3.650   2.599  10.418 -0.5163  0.6856 -1.8106
 7087TIP3    H245457   3.771   2.657  10.348 -0.4650  2.2610 -0.4524
 7088TIP3   OH245458   5.954   5.492  12.394  0.0092  0.0015 -0.6266
 7088TIP3    H145459   5.954   5.439  12.315 -1.1612  0.3072 -0.8448
 7088TIP3    H245460   5.869   5.475  12.435  0.6821 -0.3243  0.6899
 7089TIP3   OH245461   0.717   5.053  10.529  0.1794  0.8581  0.2300
 7089TIP3    H145462   0.740   5.134  10.483  0.9714  0.1406 -0.6841
 7089TIP3    H245463   0.801   5.019  10.559 -0.1386  0.3087  0.5026
 7090TIP3   OH245464   1.903   4.962  10.844  0.4566  0.0154 -0.1890
 7090TIP3    H145465   1.939   4.974  10.932  3.3325  0.4604 -1.3001
 7090TIP3    H245466   1.892   5.051  10.810  2.9369 -0.0835 -1.4944
 7091TIP3   OH245467   3.823   4.606  11.327  0.0107  0.1132  0.0279
 7091TIP3    H145468   3.795   4.515  11.325 -1.0681  0.3554  2.0032
 7091TIP3    H245469   3.872   4.616  11.408 -0.7625  1.4884  0.3788
 7092TIP3   OH245470   5.340   1.673  10.561 -0.2542 -0.4339  0.2261
 7092TIP3    H145471   5.331   1.655  10.468 -1.1707  1.1310 -0.0200
 7092TIP3    H245472   5.296   1.600  10.604  1.6856 -2.0952 -0.4742
 7093TIP3   OH245473   5.437   4.813  10.456  0.0894  0.3403 -0.0724
 7093TIP3    H145474   5.360   4.770  10.495  1.3863 -1.4457  0.6996
 7093TIP3    H245475   5.416   4.906  10.458 -2.5526 -0.1359 -1.0640
 7094TIP3   OH245476   5.723   2.157  10.291 -0.2669 -0.0903 -0.6011
 7094TIP3    H145477   5.629   2.137  10.287 -0.3153  0.1965 -1.0965
 7094TIP3    H245478   5.764   2.091  10.236 -0.5451  1.7280 -3.1882
 7095TIP3   OH245479   3.329   7.150  12.327 -0.4842  0.4735  0.2403
 7095TIP3    H145480   3.360   7.107  12.406  0.5948 -0.0818 -0.4636
 7095TIP3    H245481   3.235   7.163  12.341 -0.1793  1.0705  1.9051
 7096TIP3   OH245482   0.582   5.846  13.503 -0.1261  0.3616 -0.4282
 7096TIP3    H145483   0.523   5.871  13.574 -1.3429  1.4640 -1.7819
 7096TIP3    H245484   0.530   5.789  13.447  0.2069  1.0031 -1.4174
 7097TIP3   OH245485   1.228   2.993  10.669 -0.3375  0.6934  0.4232
 7097TIP3    H145486   1.253   2.903  10.649 -0.2693  0.6043  0.9052
 7097TIP3    H245487   1.134   2.989  10.685 -0.0313  0.3429  2.3968
 7098TIP3   OH245488   4.088   2.252  10.783 -0.0539 -0.2085 -0.2406
 7098TIP3    H145489   4.117   2.337  10.750 -1.5113  0.5798  0.3875
 7098TIP3    H245490   4.034   2.274  10.860 -0.2047 -1.7193  0.1156
 7099TIP3   OH245491   0.529   4.528  11.335 -0.7112  0.8804  0.4531
 7099TIP3    H145492   0.573   4.455  11.292 -0.9551  0.6565  0.5868
 7099TIP3    H245493   0.438   4.521  11.307 -0.5699  1.6453 -0.2441
 7100TIP3   OH245494   5.096   6.085  11.966  0.0788 -0.4699 -0.5373
 7100TIP3    H145495   5.121   5.999  11.929 -1.0374 -0.2417 -1.9157
 7100TIP3    H245496   5.082   6.068  12.059 -0.0198 -1.7682 -0.7663
 7101TIP3   OH245497   6.134   4.827  10.665  0.0220  0.5625  0.4206
 7101TIP3    H145498   6.064   4.852  10.605 -1.0669 -0.6188  1.1300
 7101TIP3    H245499   6.165   4.743  10.630 -1.6005 -0.8735  2.2009
 7102TIP3   OH245500   1.242   5.652  11.728 -0.1015 -0.4116 -0.0386
 7102TIP3    H145501   1.266   5.683  11.815 -0.1924 -0.3904 -0.0209
 7102TIP3    H245502   1.323   5.654  11.678 -0.1932  0.2974 -0.1728
 7103TIP3   OH245503   0.011   2.932  11.048  0.5095  0.0172 -0.1325
 7103TIP3    H145504  -0.016   2.849  11.087 -1.3446  1.1440  1.1332
 7103TIP3    H245505   0.070   2.971  11.113  0.9992 -0.0809 -0.5109
 7104TIP3   OH245506   4.547   6.930  11.542 -0.0626  0.8061 -0.3879
 7104TIP3    H145507   4.602   6.991  11.592  0.1748 -0.0041  0.3612
 7104TIP3    H245508   4.604   6.855  11.525 -0.6350  0.3984 -0.5086
 7105TIP3   OH245509   7.336   3.684  12.588  0.0590  0.0823 -0.2178
 7105TIP3    H145510   7.358   3.753  12.526 -2.0070 -0.0326 -1.1680
 7105TIP3    H245511   7.295   3.730  12.662 -1.4561 -0.0826 -0.9178
 7106TIP3   OH245512   5.813   4.036  12.797 -0.1248  0.2866 -0.5424
 7106TIP3    H145513   5.748   4.094  12.758 -0.1930  2.1572  2.1157
 7106TIP3    H245514   5.762   3.972  12.846 -0.0129  0.7581  0.2040
 7107TIP3   OH245515   6.065   7.491  10.858  0.2046 -0.1909 -0.1467
 7107TIP3    H145516   6.088   7.498  10.950 -0.7344  1.0907  0.0174
 7107TIP3    H245517   6.149   7.501  10.811  0.6618 -0.7119  0.5399
 7108TIP3   OH245518   6.605   0.803  10.840  0.0037 -0.0346  0.4342
 7108TIP3    H145519   6.664   0.762  10.777  0.4132  1.0907  0.0506
 7108TIP3    H245520   6.624   0.759  10.923  0.1366 -0.8732 -0.0363
 7109TIP3   OH245521   4.922   2.927  11.933 -0.4653 -0.2434  0.2150
 7109TIP3    H145522   4.986   2.877  11.882 -0.0478 -0.0719  0.5679
 7109TIP3    H245523   4.872   2.861  11.980  0.0022 -0.3445  0.5836
 7110TIP3   OH245524   0.230   6.369  12.301 -0.3609 -0.0537 -0.2853
 7110TIP3    H145525   0.203   6.453  12.263 -2.2498 -0.0972  0.8325
 7110TIP3    H245526   0.281   6.393  12.378  0.8917  0.0331 -1.1147
 7111TIP3   OH245527   0.831   2.178  11.396 -0.5413 -0.4184 -0.5321
 7111TIP3    H145528   0.747   2.203  11.434 -0.8335 -2.1202  0.0364
 7111TIP3    H245529   0.886   2.157  11.471 -0.1301 -0.8343 -0.9410
 7112TIP3   OH245530   0.853   5.274  10.452 -0.5029  0.0227 -0.2024
 7112TIP3    H145531   0.945   5.253  10.436 -0.3768  0.2201  0.2496
 7112TIP3    H245532   0.850   5.369  10.456 -0.8631  0.0512 -0.9991
 7113TIP3   OH245533   6.999   4.062  11.210  0.0260 -0.4778 -0.2252
 7113TIP3    H145534   6.914   4.092  11.244 -0.7694 -1.7062 -1.0610
 7113TIP3    H245535   6.993   4.077  11.116  0.0780 -2.0814 -0.5010
 7114TIP3   OH245536   4.641   6.603  12.214 -0.5467  0.1631  0.3556
 7114TIP3    H145537   4.631   6.665  12.286  0.8850 -0.5198  1.1977
 7114TIP3    H245538   4.612   6.651  12.137 -0.8102  1.3896  1.1887
 7115TIP3   OH245539   7.105   3.433  11.514 -0.5217 -0.0215 -0.4260
 7115TIP3    H145540   7.011   3.437  11.535 -0.6655 -1.1303 -0.7601
 7115TIP3    H245541   7.133   3.348  11.549 -0.2418 -0.8541 -2.5055
 7116TIP3   OH245542   0.488   3.781  13.127  0.0703 -0.5486  0.4048
 7116TIP3    H145543   0.490   3.716  13.197 -0.5742 -1.4526 -0.3920
 7116TIP3    H245544   0.398   3.778  13.094 -0.1723  1.2762  0.8273
 7117TIP3   OH245545   6.721   2.547  12.680  0.4065  0.2278  0.3185
 7117TIP3    H145546   6.726   2.476  12.615  1.5314  0.6711 -0.1023
 7117TIP3    H245547   6.665   2.512  12.749 -1.0558 -0.1623 -1.0004
 7118TIP3   OH245548   1.799   5.476  10.858  0.4524  0.5292  0.0024
 7118TIP3    H145549   1.811   5.406  10.794  1.0216 -0.8587  1.5447
 7118TIP3    H245550   1.888   5.504  10.880  0.5127 -1.2645  2.4809
 7119TIP3   OH245551   1.256   4.351  10.672 -0.0202  0.1156 -0.0726
 7119TIP3    H145552   1.191   4.306  10.726 -0.5954  0.6843 -0.2789
 7119TIP3    H245553   1.261   4.439  10.709  1.9601 -0.4268  1.0666
 7120TIP3   OH245554   4.075   2.245  11.502 -0.7253  0.1670 -0.3405
 7120TIP3    H145555   4.042   2.211  11.585  0.0155 -0.6058 -0.3435
 7120TIP3    H245556   4.125   2.323  11.527 -0.3911 -0.1383 -0.0346
 7121TIP3   OH245557   6.853   4.320  12.513 -0.5405 -0.3210  0.2600
 7121TIP3    H145558   6.855   4.263  12.436  1.5294  0.2094 -0.1317
 7121TIP3    H245559   6.853   4.409  12.477  2.9897  0.0040  0.7351
 7122TIP3   OH245560   1.252   7.048  10.877 -0.1795  0.0593 -1.0020
 7122TIP3    H145561   1.278   6.956  10.877 -0.4298 -0.0304 -2.0246
 7122TIP3    H245562   1.182   7.054  10.942 -1.8163 -0.9944 -2.5810
 7123TIP3   OH245563   5.076   1.848  11.673  0.4663 -0.1298  0.4232
 7123TIP3    H145564   5.136   1.923  11.666 -0.1510  0.2601 -0.8346
 7123TIP3    H245565   5.126   1.774  11.638  1.2529 -0.4453  2.1110
 7124TIP3   OH245566   0.645   4.002  10.195 -0.4298 -0.6278  0.8588
 7124TIP3    H145567   0.643   4.039  10.106 -1.6858  0.2423  1.2308
 7124TIP3    H245568   0.737   4.012  10.222 -0.3998  0.7314  0.3202
 7125TIP3   OH245569   0.705   6.573  13.336 -0.0238  0.0074  0.6976
 7125TIP3    H145570   0.693   6.489  13.381 -0.1056  0.5916  1.7832
 7125TIP3    H245571   0.739   6.548  13.249 -0.5311 -1.1689  0.8139
 7126TIP3   OH245572   2.654   2.358  10.899  0.0813  0.2032  0.1315
 7126TIP3    H145573   2.687   2.423  10.961  1.3100 -0.1882 -0.0832
 7126TIP3    H245574   2.675   2.393  10.813  0.4450 -0.3067  0.0057
 7127TIP3   OH245575   2.821   1.043  10.859  0.0651 -0.3330 -0.1980
 7127TIP3    H145576   2.774   0.986  10.798 -0.2760  0.2898 -0.5207
 7127TIP3    H245577   2.753   1.076  10.918  0.2076 -0.0031 -0.2165
 7128TIP3   OH245578   7.312   1.633  12.521 -0.1039  0.6376  0.7083
 7128TIP3    H145579   7.219   1.619  12.538 -0.1258  0.7328  0.6705
 7128TIP3    H245580   7.354   1.617  12.605 -0.1328  0.3954  0.6767
 7129TIP3   OH245581   5.930   7.228  11.694 -0.3658 -0.1706 -0.1451
 7129TIP3    H145582   5.848   7.276  11.689  0.3426  0.9885 -1.3445
 7129TIP3    H245583   5.905   7.136  11.683 -1.4297  0.2434 -1.3991
 7130TIP3   OH245584   3.241   2.083  10.356  0.2375 -0.0757  0.0736
 7130TIP3    H145585   3.165   2.100  10.412  0.4230  1.2635 -0.0381
 7130TIP3    H245586   3.306   2.148  10.384  1.2378 -0.9989 -0.0419
 7131TIP3   OH245587   6.464   0.975  12.143  0.0946  0.2224 -0.1844
 7131TIP3    H145588   6.523   0.962  12.068 -1.7991 -0.3968 -1.6582
 7131TIP3    H245589   6.406   1.046  12.115  1.5350  2.4977  2.1857
 7132TIP3   OH245590   6.298   5.329  11.545 -0.1103 -0.3058 -0.4150
 7132TIP3    H145591   6.215   5.372  11.522 -0.0547 -0.5847 -1.1797
 7132TIP3    H245592   6.339   5.388  11.608 -0.8946 -0.1661 -0.0233
 7133TIP3   OH245593   1.720   4.926  11.745 -0.4190  0.6657 -0.0588
 7133TIP3    H145594   1.715   4.980  11.823  1.0094  2.7845 -1.3226
 7133TIP3    H245595   1.687   4.982  11.675  1.3807  0.0546 -1.4766
 7134TIP3   OH245596   3.173   6.213  12.824  0.6265 -0.1590 -0.1379
 7134TIP3    H145597   3.155   6.275  12.753  0.6635 -0.6454 -0.5779
 7134TIP3    H245598   3.269   6.203  12.823  0.6349 -0.0895  0.0432
 7135TIP3   OH245599   3.115   2.831  11.717 -0.4784 -0.1222  0.1527
 7135TIP3    H145600   3.199   2.785  11.726 -0.3530  0.0511 -0.1463
 7135TIP3    H245601   3.115   2.865  11.628 -1.3370 -1.0639 -0.2284
 7136TIP3   OH245602   3.472   7.026  11.118  0.1317 -0.0131 -0.8075
 7136TIP3    H145603   3.552   6.975  11.105 -0.1997 -1.5376  2.2189
 7136TIP3    H245604   3.418   6.971  11.175 -0.4805  3.4810  2.3394
 7137TIP3   OH245605   0.528   3.566  13.287  0.1820 -0.5579  0.0327
 7137TIP3    H145606   0.535   3.488  13.232  0.1219  0.0165 -0.8078
 7137TIP3    H245607   0.470   3.539  13.359 -2.1327 -0.5086 -1.7082
 7138TIP3   OH245608   5.295   3.763  10.810 -0.2535  0.5482  0.6426
 7138TIP3    H145609   5.359   3.791  10.876 -0.3501  1.0054  0.5468
 7138TIP3    H245610   5.267   3.844  10.769  2.2222  0.1105 -2.2530
 7139TIP3   OH245611   6.042   7.661  11.259 -0.4362 -0.5721 -0.0646
 7139TIP3    H145612   5.954   7.622  11.255  0.0178 -2.0273  2.1738
 7139TIP3    H245613   6.026   7.753  11.279 -1.4919 -1.0105  1.3202
 7140TIP3   OH245614   6.105   4.116  10.548 -0.2106  0.3238 -0.2140
 7140TIP3    H145615   6.102   4.034  10.499 -2.9953  0.6641 -0.7649
 7140TIP3    H245616   6.027   4.114  10.603  0.8754  1.6267  1.4741
 7141TIP3   OH245617   3.197   1.645  11.488 -0.3758 -0.4130 -0.1306
 7141TIP3    H145618   3.204   1.740  11.484 -0.5301 -0.4191 -0.5837
 7141TIP3    H245619   3.117   1.624  11.440 -0.9244 -0.7020  0.8595
 7142TIP3   OH245620   1.257   1.160  11.679  0.2518 -0.0738 -0.1006
 7142TIP3    H145621   1.180   1.107  11.699  0.4081 -0.4184 -0.4151
 7142TIP3    H245622   1.260   1.165  11.584  0.7875 -0.3154 -0.1014
 7143TIP3   OH245623   0.903   4.286  12.075 -0.0822 -0.1533 -0.2772
 7143TIP3    H145624   0.989   4.286  12.033  0.5589 -3.0105  0.8333
 7143TIP3    H245625   0.913   4.344  12.150  1.2976 -1.3367  0.5080
 7144TIP3   OH245626   6.200   0.194  11.013  0.0440  0.7167 -0.7988
 7144TIP3    H145627   6.275   0.177  11.070 -1.2629  1.1258  1.1375
 7144TIP3    H245628   6.180   0.109  10.973  0.4963  0.2329 -0.0068
 7145TIP3   OH245629   2.040   7.244  10.672 -0.0884  0.1415  0.5507
 7145TIP3    H145630   2.107   7.307  10.646 -1.2643  0.7466 -1.0920
 7145TIP3    H245631   2.040   7.249  10.768  2.8892 -0.6176  0.7058
 7146TIP3   OH245632   1.032   6.723  12.661  0.3449  0.2477 -0.0623
 7146TIP3    H145633   0.963   6.659  12.674  1.0794 -0.4124  0.6987
 7146TIP3    H245634   1.113   6.672  12.664  0.8606  0.9610 -1.2112
 7147TIP3   OH245635   2.514   0.232  11.172  0.0344 -0.6078 -0.1433
 7147TIP3    H145636   2.476   0.158  11.124  1.4672 -1.4936  0.0433
 7147TIP3    H245637   2.607   0.213  11.176  0.2945  0.7288  0.7931
 7148TIP3   OH245638   2.356   4.288  12.518 -0.2656 -0.3727 -0.4882
 7148TIP3    H145639   2.317   4.362  12.563 -0.6740 -0.4947 -0.6389
 7148TIP3    H245640   2.320   4.211  12.562 -1.1364 -0.5026 -1.3947
 7149TIP3   OH245641   2.376   5.353  11.039 -0.2804  0.0088  0.2516
 7149TIP3    H145642   2.298   5.365  10.985 -0.8855 -1.0589  0.8512
 7149TIP3    H245643   2.436   5.304  10.983 -0.8168 -0.8985  0.4583
 7150TIP3   OH245644   0.295   3.363  11.286  0.1457  0.4179 -0.1725
 7150TIP3    H145645   0.347   3.285  11.307 -1.2354 -0.4367  0.1787
 7150TIP3    H245646   0.312   3.423  11.359 -0.5506 -0.4716  0.7489
 7151TIP3   OH245647   6.576   0.157  10.787 -0.2604 -0.1008 -0.1442
 7151TIP3    H145648   6.667   0.130  10.777 -0.6833 -2.1903  1.1172
 7151TIP3    H245649   6.577   0.251  10.768  1.9667 -0.2432 -1.0777
 7152TIP3   OH245650   3.367   4.524  12.231 -0.3585 -0.0835  0.1342
 7152TIP3    H145651   3.460   4.545  12.243 -0.2819 -0.7995  0.8157
 7152TIP3    H245652   3.359   4.503  12.138  0.5398 -1.8337  0.4219
 7153TIP3   OH245653   2.662   3.116  10.517  1.2357  0.2082  0.2754
 7153TIP3    H145654   2.748   3.083  10.493  1.6492  0.5109  1.2989
 7153TIP3    H245655   2.601   3.056  10.474  1.9302  0.6739 -1.4091
 7154TIP3   OH245656   0.558   4.790  11.567 -0.0355  1.3519 -0.5343
 7154TIP3    H145657   0.541   4.874  11.611  1.1388  2.1428 -1.5187
 7154TIP3    H245658   0.474   4.765  11.531 -0.8079  1.1820  1.2672
 7155TIP3   OH245659   1.595   7.069  11.685  0.0880 -0.2793  0.0264
 7155TIP3    H145660   1.586   6.985  11.729 -2.1893 -0.5462 -0.8080
 7155TIP3    H245661   1.576   7.134  11.753  3.1801 -0.2742  1.0217
 7156TIP3   OH245662   6.323   3.173  13.752  0.2294 -0.0177  0.2315
 7156TIP3    H145663   6.314   3.197  13.659 -0.7415  0.0645  0.3391
 7156TIP3    H245664   6.245   3.209  13.794 -0.3906 -1.8340  0.7092
 7157TIP3   OH245665   0.579   0.688  13.041 -0.7462  0.0886  0.4068
 7157TIP3    H145666   0.559   0.729  13.126 -1.8375  0.4331  0.0026
 7157TIP3    H245667   0.494   0.657  13.009 -0.4002  0.2639 -0.7222
 7158TIP3   OH245668   4.862   4.366  10.918  0.5551  0.8970 -0.3381
 7158TIP3    H145669   4.916   4.388  10.842 -0.4813  0.0456 -1.3435
 7158TIP3    H245670   4.773   4.386  10.891  0.2166  1.0787  0.8581
 7159TIP3   OH245671   5.302   1.183  12.714  0.6380  0.1848 -0.0534
 7159TIP3    H145672   5.217   1.210  12.747 -0.1808 -1.2112 -0.9366
 7159TIP3    H245673   5.328   1.110  12.770 -1.2344 -2.8987 -2.8614
 7160TIP3   OH245674   4.525   3.153  10.182  0.5407  0.5287 -0.1442
 7160TIP3    H145675   4.502   3.219  10.248  0.4289  0.2838  0.0611
 7160TIP3    H245676   4.443   3.136  10.135  0.4560  0.1693  0.1303
 7161TIP3   OH245677   6.862   3.626  11.861  0.3263  0.7205  0.5750
 7161TIP3    H145678   6.932   3.622  11.925  1.3938  1.1931 -0.5190
 7161TIP3    H245679   6.853   3.719  11.840 -0.0176  0.5765  0.0583
 7162TIP3   OH245680   1.005   5.707  10.912  0.1721 -0.2036  0.2653
 7162TIP3    H145681   1.071   5.776  10.909 -1.0326  1.0301  0.8181
 7162TIP3    H245682   0.922   5.754  10.919 -0.7147 -1.7205  0.3735
 7163TIP3   OH245683   5.520   0.094  10.941 -0.2017 -0.4888  0.2031
 7163TIP3    H145684   5.516   0.031  10.868 -0.1260 -1.0429  0.6653
 7163TIP3    H245685   5.513   0.039  11.019  1.3549 -0.0709  0.6714
 7164TIP3   OH245686   4.031   4.574  11.109 -0.6444  0.6678 -0.1564
 7164TIP3    H145687   4.101   4.638  11.123 -1.1866  1.0884  0.7582
 7164TIP3    H245688   3.970   4.590  11.181 -1.7238  0.3628 -0.9779
 7165TIP3   OH245689   7.540   5.729  13.704 -0.4332  0.0979 -0.6150
 7165TIP3    H145690   7.462   5.675  13.718 -0.4963  0.1596 -0.7243
 7165TIP3    H245691   7.577   5.741  13.791 -0.2900 -0.3144 -0.6167
 7166TIP3   OH245692   6.243   1.090  12.765  0.6374 -0.0321 -0.1307
 7166TIP3    H145693   6.173   1.114  12.826  1.1639  0.7429  0.1832
 7166TIP3    H245694   6.246   1.161  12.702  0.8862 -0.2542 -0.3752
 7167TIP3   OH245695   7.343   4.126  13.383 -0.7015 -0.2121  0.5440
 7167TIP3    H145696   7.381   4.104  13.468  2.0547  0.5786 -0.3550
 7167TIP3    H245697   7.378   4.060  13.323 -1.0339  0.3550 -0.2955
 7168TIP3   OH245698   6.764   1.424  10.386 -0.1693  0.0451  0.3741
 7168TIP3    H145699   6.716   1.385  10.460  0.1418  1.8343  1.5990
 7168TIP3    H245700   6.815   1.495  10.426  0.1519  0.9555 -1.5480
 7169TIP3   OH245701   4.668   6.466  10.772 -0.1112  0.1946  0.4692
 7169TIP3    H145702   4.639   6.552  10.742 -2.3734 -0.2666  1.2049
 7169TIP3    H245703   4.600   6.436  10.831  1.7525 -1.1348  2.0876
 7170TIP3   OH245704   0.245   5.967  12.822 -0.0266 -0.1839 -0.1105
 7170TIP3    H145705   0.151   5.947  12.820  0.5557 -3.2844 -0.6015
 7170TIP3    H245706   0.264   5.979  12.915 -0.3464 -3.0097  0.3948
 7171TIP3   OH245707   3.183   1.729  12.328 -0.1428  0.2068  0.4227
 7171TIP3    H145708   3.273   1.720  12.360  0.4610  1.8010 -0.7412
 7171TIP3    H245709   3.145   1.642  12.342  2.5607 -1.5592 -1.9827
 7172TIP3   OH245710   2.458   3.591  11.865 -0.6842 -0.0481 -0.4373
 7172TIP3    H145711   2.390   3.653  11.840  0.0358  0.7745 -0.4089
 7172TIP3    H245712   2.426   3.506  11.835 -1.6875  0.3311 -0.4774
 7173TIP3   OH245713   7.532   7.572  13.184 -0.2254 -0.1295  0.0348
 7173TIP3    H145714   7.524   7.607  13.095  2.1054 -1.0097 -0.5798
 7173TIP3    H245715   7.607   7.618  13.221 -1.3761  0.4996  1.7588
 7174TIP3   OH245716   0.584   0.785  12.265  0.3221 -0.2590  0.1389
 7174TIP3    H145717   0.582   0.764  12.359 -0.4834  2.5972  0.8727
 7174TIP3    H245718   0.494   0.774  12.236  0.9347 -3.3931 -1.0086
 7175TIP3   OH245719   4.813   4.851  11.490  0.2309  0.2285 -0.3513
 7175TIP3    H145720   4.844   4.785  11.552  1.1709  0.9396 -0.0388
 7175TIP3    H245721   4.870   4.839  11.413  0.3220  0.5994 -0.3406
 7176TIP3   OH245722   7.435   5.598  10.997 -0.6339  0.7291  0.0123
 7176TIP3    H145723   7.442   5.503  10.997 -0.4956  0.7334 -0.6309
 7176TIP3    H245724   7.448   5.623  11.088  1.2747  0.2611 -0.0918
 7177TIP3   OH245725   3.677   0.126  11.730 -0.2096 -0.1565 -0.0161
 7177TIP3    H145726   3.630   0.055  11.775  1.4093 -1.5538 -0.4408
 7177TIP3    H245727   3.718   0.175  11.801 -0.0439 -0.6140  0.2128
 7178TIP3   OH245728   6.006   1.614  11.575  0.4822 -0.6575  0.6299
 7178TIP3    H145729   5.988   1.642  11.664  1.5803  0.7860  0.4446
 7178TIP3    H245730   6.077   1.672  11.546  1.3524 -2.2403 -0.5757
 7179TIP3   OH245731   1.452   4.321  11.430  0.1002 -0.1950 -0.3900
 7179TIP3    H145732   1.443   4.371  11.511  2.6169  1.1019 -0.8006
 7179TIP3    H245733   1.515   4.252  11.452  1.1889  0.4685 -1.3047
 7180TIP3   OH245734   5.203   0.477  12.219 -0.3082 -0.4008  0.3415
 7180TIP3    H145735   5.108   0.484  12.213 -0.3961 -1.4571  0.3906
 7180TIP3    H245736   5.220   0.454  12.311  0.1885  2.3093  1.0357
 7181TIP3   OH245737   7.181   5.138  12.419  0.3618  0.1372 -0.1037
 7181TIP3    H145738   7.144   5.212  12.371  0.7714 -0.0583 -0.7410
 7181TIP3    H245739   7.106   5.081  12.438  0.0417  0.7214  0.4152
 7182TIP3   OH245740   1.925   3.246  11.980  0.0609  0.4364  0.1065
 7182TIP3    H145741   2.003   3.191  11.976 -1.4735 -1.8945  0.1840
 7182TIP3    H245742   1.939   3.303  12.056  2.4036  1.3783 -0.9254
 7183TIP3   OH245743   4.249   4.321  12.423 -0.3292  0.3960  0.1654
 7183TIP3    H145744   4.220   4.269  12.498  0.3957  0.8569  0.7771
 7183TIP3    H245745   4.180   4.308  12.357 -0.3531 -1.0087  0.4390
 7184TIP3   OH245746   6.233   7.235  11.047 -0.1354  0.2660 -1.0491
 7184TIP3    H145747   6.233   7.190  11.131  1.8978  0.7329 -0.7328
 7184TIP3    H245748   6.232   7.328  11.069 -3.1464  0.4740 -1.6720
 7185TIP3   OH245749   5.027   3.771  12.221 -0.1936 -0.3401 -0.4154
 7185TIP3    H145750   4.947   3.824  12.220 -0.8230 -1.0736  2.0849
 7185TIP3    H245751   5.074   3.802  12.298  0.2227 -2.2423  0.1417
 7186TIP3   OH245752   6.101   5.347  10.626 -0.4475 -0.1376 -0.6143
 7186TIP3    H145753   6.180   5.390  10.660 -0.8399 -0.6061  1.0094
 7186TIP3    H245754   6.127   5.256  10.612 -0.0587  0.2307 -2.4736
 7187TIP3   OH245755   0.254   6.890  11.539 -0.0055 -0.3737  0.3149
 7187TIP3    H145756   0.240   6.984  11.532 -1.5810 -0.6084 -0.0326
 7187TIP3    H245757   0.338   6.875  11.494  1.0814  1.0265  1.7752
 7188TIP3   OH245758   7.379   4.558  11.204  0.5178 -0.2169 -0.8103
 7188TIP3    H145759   7.456   4.574  11.258  2.2202 -0.7648 -2.9526
 7188TIP3    H245760   7.355   4.645  11.169 -0.2937  0.0594  0.3660
 7189TIP3   OH245761   1.816   6.387  12.589  0.4599 -0.4486 -0.1407
 7189TIP3    H145762   1.810   6.407  12.682  0.8604  1.0858 -0.4087
 7189TIP3    H245763   1.726   6.392  12.557  0.4229 -0.0426  0.0121
 7190TIP3   OH245764   0.021   2.350  11.838  0.3453 -0.5406 -0.8330
 7190TIP3    H145765  -0.015   2.428  11.882 -0.3754 -1.0676 -0.4521
 7190TIP3    H245766   0.045   2.292  11.910 -0.2712 -1.1663 -1.1159
 7191TIP3   OH245767   1.285   1.271  11.410 -0.5697  0.0320  0.2596
 7191TIP3    H145768   1.282   1.359  11.372 -0.0169  0.5135  1.3150
 7191TIP3    H245769   1.359   1.228  11.367  0.6958  0.9193  1.4853
 7192TIP3   OH245770   3.199   7.089  10.714 -0.4063 -0.5975  0.1297
 7192TIP3    H145771   3.242   7.110  10.797  0.3927 -1.3276 -0.0828
 7192TIP3    H245772   3.198   7.171  10.665  2.3784 -0.8873 -0.5763
 7193TIP3   OH245773   5.418   7.025  12.137  0.0710 -0.1424 -0.2513
 7193TIP3    H145774   5.372   6.978  12.206 -0.3108  1.6809  0.8079
 7193TIP3    H245775   5.511   7.019  12.160 -0.0893  0.8606  0.7283
 7194TIP3   OH245776   4.715   0.733  12.321 -0.2412 -0.4900 -0.5625
 7194TIP3    H145777   4.742   0.825  12.327  1.2159 -0.9485  0.5131
 7194TIP3    H245778   4.626   0.732  12.358  0.0202  0.3870  0.1323
 7195TIP3   OH245779   6.213   3.945  12.088  0.0231 -0.1732 -0.4648
 7195TIP3    H145780   6.177   3.930  12.000  0.3832  0.3441 -0.7079
 7195TIP3    H245781   6.235   3.858  12.120 -1.2459 -0.4901 -0.3915
 7196TIP3   OH245782   5.636   2.345  13.243 -0.9375 -0.1688  0.4457
 7196TIP3    H145783   5.690   2.403  13.296 -1.4096  1.9951 -1.2733
 7196TIP3    H245784   5.696   2.307  13.179 -0.7395 -1.1713  1.1964
 7197TIP3   OH245785   3.324   4.874  11.400 -0.6141  0.1308  0.1789
 7197TIP3    H145786   3.395   4.866  11.337 -0.3984  0.2953  0.3980
 7197TIP3    H245787   3.246   4.890  11.347 -0.9866 -2.6033 -0.2732
 7198TIP3   OH245788   7.641   2.151  12.730 -0.3764 -0.1142  0.1896
 7198TIP3    H145789   7.638   2.153  12.634  0.0721  0.0185  0.1727
 7198TIP3    H245790   7.704   2.082  12.750 -0.3229 -0.0099  0.3838
 7199TIP3   OH245791   2.983   2.905  12.301  0.4049  0.0547  0.8573
 7199TIP3    H145792   2.986   2.917  12.206 -1.3791  1.0340  0.8866
 7199TIP3    H245793   3.007   2.813  12.314 -1.6997 -0.8033 -0.7720
 7200TIP3   OH245794   5.717   4.560  12.033 -0.2893 -0.7732 -0.2106
 7200TIP3    H145795   5.674   4.635  11.992 -0.7560 -1.4727 -1.0182
 7200TIP3    H245796   5.799   4.549  11.985 -1.4562 -2.4480 -1.9698
 7201TIP3   OH245797   6.610   3.846  12.563  0.0536 -0.1066  0.2892
 7201TIP3    H145798   6.602   3.932  12.522  0.9206  0.3979  1.1166
 7201TIP3    H245799   6.603   3.864  12.657  0.4784 -0.9003  0.4799
 7202TIP3   OH245800   2.335   3.040  10.290 -0.0838  0.2303  0.6878
 7202TIP3    H145801   2.262   3.101  10.277 -1.0506 -1.1895 -1.1584
 7202TIP3    H245802   2.413   3.090  10.268 -0.5736  1.5040  1.7211
 7203TIP3   OH245803   3.375   7.519  11.271  0.1712  0.2157 -0.5889
 7203TIP3    H145804   3.379   7.582  11.198 -0.7989  2.8070  1.4212
 7203TIP3    H245805   3.461   7.526  11.313  0.4387 -0.6548 -0.9707
 7204TIP3   OH245806   6.811   4.512  11.254 -0.3595  0.2221 -0.2893
 7204TIP3    H145807   6.838   4.467  11.173 -0.0044 -0.1393  0.0272
 7204TIP3    H245808   6.844   4.601  11.243 -2.9040  1.0981 -1.8783
 7205TIP3   OH245809   4.718   4.619  10.672  0.4208 -0.0352  0.3410
 7205TIP3    H145810   4.708   4.703  10.628  2.1921 -0.9006 -1.8847
 7205TIP3    H245811   4.812   4.605  10.677  0.2565 -0.8583  2.8639
 7206TIP3   OH245812   3.634   5.724  13.268 -0.0401 -0.4772  0.2298
 7206TIP3    H145813   3.664   5.807  13.232 -3.7988  0.6577 -0.6934
 7206TIP3    H245814   3.702   5.661  13.243  1.5050  1.7679 -1.6533
 7207TIP3   OH245815   3.159   3.867  10.527  0.0306 -0.2573  0.4429
 7207TIP3    H145816   3.244   3.910  10.536 -0.1099 -0.0284  0.7179
 7207TIP3    H245817   3.177   3.774  10.538  0.1464 -0.1492  1.2006
 7208TIP3   OH245818   6.371   2.106  11.165  0.1019  0.4978 -0.3381
 7208TIP3    H145819   6.416   2.128  11.247 -1.5760  0.6782  0.5818
 7208TIP3    H245820   6.279   2.095  11.190 -0.0838 -1.9683 -1.7519
 7209TIP3   OH245821   7.329   1.274  11.816 -0.7340 -0.2379 -0.0598
 7209TIP3    H145822   7.341   1.324  11.897  1.5053  1.6372 -1.4212
 7209TIP3    H245823   7.332   1.182  11.844  0.4650  0.3479  1.9526
 7210TIP3   OH245824   4.072   2.074  11.083  0.7096 -0.0811  0.2737
 7210TIP3    H145825   4.049   2.145  11.023  0.9247  0.3027  0.6413
 7210TIP3    H245826   4.044   1.994  11.037  0.0424  0.2701  0.0570
 7211TIP3   OH245827   6.410   5.132  13.123  0.1373 -0.0798  0.4753
 7211TIP3    H145828   6.405   5.225  13.103  0.6441 -0.4052 -1.4248
 7211TIP3    H245829   6.327   5.096  13.092  0.3264 -0.3835  0.3109
 7212TIP3   OH245830   6.340   7.068  11.320 -0.1965 -0.5377  0.0249
 7212TIP3    H145831   6.405   7.033  11.259 -0.5855 -2.9422  0.8715
 7212TIP3    H245832   6.387   7.080  11.402 -0.7052 -2.0924  0.5845
 7213TIP3   OH245833   4.966   2.137  11.420 -0.4357 -0.1571  0.0806
 7213TIP3    H145834   4.953   2.232  11.423 -1.0358 -0.1279 -1.9010
 7213TIP3    H245835   5.059   2.124  11.438  0.0114  0.9536 -1.3042
 7214TIP3   OH245836   0.069   6.512  12.674  0.0736 -0.4525  0.0997
 7214TIP3    H145837   0.059   6.441  12.737  1.3557 -0.4533  0.3335
 7214TIP3    H245838   0.159   6.544  12.687 -0.0374  0.3435 -0.8960
 7215TIP3   OH245839   6.261   2.527  10.130  0.0276 -0.2445 -0.1420
 7215TIP3    H145840   6.182   2.531  10.184 -0.9158 -1.7115 -1.3342
 7215TIP3    H245841   6.242   2.583  10.055  0.4152 -0.0261 -0.0797
 7216TIP3   OH245842   0.612   5.556  12.214  0.5406 -0.9025 -0.5074
 7216TIP3    H145843   0.543   5.621  12.205  1.5381  0.1575 -0.7930
 7216TIP3    H245844   0.657   5.557  12.129  1.2939 -1.0978 -0.1265
 7217TIP3   OH245845   0.112   3.632  10.631  0.0795  0.2939 -0.2019
 7217TIP3    H145846   0.136   3.543  10.658 -3.9343 -0.7637  0.5607
 7217TIP3    H245847   0.187   3.664  10.582  2.3883 -2.8293  0.9991
 7218TIP3   OH245848   0.483   5.055  10.673  0.2097  0.2837  0.0509
 7218TIP3    H145849   0.519   5.007  10.748  1.9284  1.1833 -0.1494
 7218TIP3    H245850   0.554   5.057  10.610 -1.0692 -0.0665 -1.4532
 7219TIP3   OH245851   0.585   1.807  11.307 -0.0923  0.0533  0.2159
 7219TIP3    H145852   0.527   1.850  11.370  0.4120 -1.2017  1.5909
 7219TIP3    H245853   0.658   1.868  11.297 -1.2417  1.3308 -1.0024
 7220TIP3   OH245854   5.798   5.328  10.769  0.0628 -0.0532 -0.5899
 7220TIP3    H145855   5.881   5.340  10.815  0.7462 -1.2660 -1.4430
 7220TIP3    H245856   5.822   5.330  10.676 -1.1329  1.3014 -0.9011
 7221TIP3   OH245857   5.911   5.809  11.786 -0.2871  0.5563  0.0717
 7221TIP3    H145858   5.940   5.729  11.742  1.1571  2.0733 -1.9817
 7221TIP3    H245859   5.881   5.865  11.714 -3.5929  1.0300  1.6634
 7222TIP3   OH245860   3.985   1.607  12.178  0.3771 -0.5719 -0.0002
 7222TIP3    H145861   3.898   1.599  12.141  0.5474  2.4302 -1.3347
 7222TIP3    H245862   4.041   1.632  12.104  1.4611  1.9671  1.5560
 7223TIP3   OH245863   1.039   1.078  11.449  0.3909  0.0850 -0.4740
 7223TIP3    H145864   1.111   1.102  11.391  1.6540  0.0625  0.9904
 7223TIP3    H245865   1.001   1.000  11.410  2.1795 -0.8159 -0.5132
 7224TIP3   OH245866   6.321   4.367  10.593  0.2142 -0.2166  0.2315
 7224TIP3    H145867   6.400   4.356  10.646  0.1770 -1.1193  0.1210
 7224TIP3    H245868   6.310   4.282  10.549  1.1996  0.9654 -2.5399
 7225TIP3   OH245869   5.797   6.076  11.990  0.7877  0.1340  0.3122
 7225TIP3    H145870   5.892   6.074  11.989  0.8028 -2.7706 -0.2209
 7225TIP3    H245871   5.771   6.004  12.048 -1.0347 -0.9905 -1.7459
 7226TIP3   OH245872   7.281   0.104  10.960 -0.3187  0.0802 -0.2827
 7226TIP3    H145873   7.322   0.054  10.890  1.1856  1.0754 -0.1401
 7226TIP3    H245874   7.251   0.038  11.022 -1.3185 -0.7954 -1.6381
 7227TIP3   OH245875   5.781   3.258  12.710 -0.1670  0.2639 -0.5498
 7227TIP3    H145876   5.722   3.294  12.776  0.0667  0.4546 -0.4436
 7227TIP3    H245877   5.865   3.250  12.754  0.2381  1.3099 -1.0911
 7228TIP3   OH245878   0.710   3.135  12.015  0.2118  0.3668  0.0104
 7228TIP3    H145879   0.782   3.085  11.977 -0.5148  1.2344 -2.6878
 7228TIP3    H245880   0.631   3.101  11.972 -0.5901  1.8696  0.2142
 7229TIP3   OH245881   3.899   3.977  12.146  0.0303  0.4243  0.1052
 7229TIP3    H145882   3.805   3.960  12.155  0.1396 -0.7877 -0.8249
 7229TIP3    H245883   3.906   4.037  12.073 -0.0497  0.9569  0.5301
 7230TIP3   OH245884   1.571   6.690  12.560 -0.1148  0.1345 -0.1055
 7230TIP3    H145885   1.611   6.757  12.615 -0.8975  0.0584  0.5823
 7230TIP3    H245886   1.498   6.734  12.517 -0.0310 -0.0307 -0.4222
 7231TIP3   OH245887   2.384   6.004  12.191 -0.2576 -0.0858 -0.2814
 7231TIP3    H145888   2.459   5.960  12.232  0.9589  1.3306 -0.8930
 7231TIP3    H245889   2.327   6.026  12.265  0.8041  0.4015  0.4383
 7232TIP3   OH245890   0.039   7.089  11.824 -0.8055  0.1451 -0.1401
 7232TIP3    H145891   0.005   7.097  11.913 -0.4548 -1.0834  0.1236
 7232TIP3    H245892   0.025   6.997  11.801  1.9064 -0.3391 -0.1661
 7233TIP3   OH245893   4.070   5.316  12.406 -0.1003  0.0976  0.5676
 7233TIP3    H145894   4.135   5.246  12.401  0.6665  0.9011 -2.2678
 7233TIP3    H245895   4.122   5.395  12.423 -0.5786  0.4470  0.4104
 7234TIP3   OH245896   3.394   1.398  12.852 -0.3140  0.4929 -0.1700
 7234TIP3    H145897   3.437   1.424  12.770  1.0076  1.6407  0.8309
 7234TIP3    H245898   3.306   1.373  12.826 -2.0909  6.3491 -1.4280
 7235TIP3   OH245899   1.329   6.523  11.582 -0.4659 -0.3473 -0.8009
 7235TIP3    H145900   1.339   6.579  11.658 -1.0418 -0.5299 -0.5886
 7235TIP3    H245901   1.412   6.477  11.575 -0.0298  0.4336 -0.9059
 7236TIP3   OH245902   7.017   1.791  12.864  0.0365 -0.0145 -0.1304
 7236TIP3    H145903   6.926   1.781  12.836  0.0365 -1.3858  0.2814
 7236TIP3    H245904   7.049   1.701  12.873  1.4713  0.4442 -0.3804
 7237TIP3   OH245905   3.735   6.226  11.560 -0.1813 -0.0032  0.6337
 7237TIP3    H145906   3.748   6.268  11.475 -1.2717  0.9037  0.8938
 7237TIP3    H245907   3.641   6.233  11.576 -0.1029 -0.8777  1.5561
 7238TIP3   OH245908   2.663   4.617  12.476 -0.4288 -0.0091 -0.2684
 7238TIP3    H145909   2.583   4.594  12.429 -0.0915 -0.5427 -0.5912
 7238TIP3    H245910   2.634   4.631  12.566 -0.7476 -1.1934 -0.1679
 7239TIP3   OH245911   2.226   6.296  11.601  0.0223  0.2483  0.5001
 7239TIP3    H145912   2.208   6.222  11.543  0.4527 -0.2662  1.0123
 7239TIP3    H245913   2.321   6.308  11.598  0.1308 -0.2037  1.5843
 7240TIP3   OH245914   5.609   4.256  12.186  0.1094 -1.1017  0.3164
 7240TIP3    H145915   5.649   4.340  12.163 -0.5857 -0.5049  1.2574
 7240TIP3    H245916   5.682   4.204  12.220  0.5453 -0.8957 -0.2840
 7241TIP3   OH245917   2.937   3.786  10.191 -0.2068  0.3346 -0.2649
 7241TIP3    H145918   2.846   3.760  10.185 -0.7117  1.4363  1.5828
 7241TIP3    H245919   2.934   3.882  10.201  1.1694  0.4363 -0.5748
 7242TIP3   OH245920   7.245   0.304  11.236 -0.7187 -0.3254 -0.2906
 7242TIP3    H145921   7.304   0.345  11.172 -0.5191 -0.9257 -0.4946
 7242TIP3    H245922   7.190   0.376  11.266 -1.3073 -0.1620 -1.6864
 7243TIP3   OH245923   7.301   6.585  10.620  0.3237 -0.0669 -0.1619
 7243TIP3    H145924   7.353   6.592  10.700 -1.6940  0.3214  1.1794
 7243TIP3    H245925   7.356   6.533  10.561  1.8693 -0.3966  1.4614
 7244TIP3   OH245926   3.480   6.513  11.762  0.2188  0.5978 -0.2671
 7244TIP3    H145927   3.386   6.509  11.745  0.1596  1.9138 -0.3305
 7244TIP3    H245928   3.508   6.421  11.763 -1.2178  0.1310  0.6980
 7245TIP3   OH245929   0.059   4.470  12.912  0.4545  0.3226 -0.2931
 7245TIP3    H145930   0.076   4.500  13.002 -1.1056 -1.0793  0.5300
 7245TIP3    H245931   0.078   4.376  12.914 -1.9664 -0.2543 -0.6973
 7246TIP3   OH245932   3.055   4.549  10.542  0.0021  0.2134 -0.0818
 7246TIP3    H145933   2.989   4.540  10.611 -1.1261  1.6010 -0.9165
 7246TIP3    H245934   3.004   4.548  10.461  1.0214  1.1922 -0.7534
 7247TIP3   OH245935   7.623   1.962  11.328  0.6595 -0.4301  0.1743
 7247TIP3    H145936   7.686   1.958  11.256 -1.6186 -1.8595 -1.8612
 7247TIP3    H245937   7.597   2.054  11.332  0.1022 -0.4739 -1.5606
 7248TIP3   OH245938   2.497   2.618  10.664  0.2460 -0.5545  0.1443
 7248TIP3    H145939   2.468   2.584  10.580  1.2604 -0.4868 -0.2529
 7248TIP3    H245940   2.580   2.663  10.644  0.0111  0.3036  1.0081
 7249TIP3   OH245941   7.121   0.390  12.064  0.2217  0.0660  0.2242
 7249TIP3    H145942   7.099   0.375  11.972 -0.2858 -0.5515  0.4376
 7249TIP3    H245943   7.166   0.474  12.064 -1.3866  0.9587 -0.3429
 7250TIP3   OH245944   2.269   2.484  10.852  0.5649 -0.0317  0.5502
 7250TIP3    H145945   2.352   2.525  10.826  0.1867  0.2402 -0.2720
 7250TIP3    H245946   2.207   2.557  10.857 -0.4418 -0.5562 -2.2115
 7251TIP3   OH245947   0.901   1.440  12.184  0.3647  0.5803  0.2533
 7251TIP3    H145948   0.814   1.431  12.224  0.8246 -0.4818  1.0402
 7251TIP3    H245949   0.894   1.390  12.102  1.1796 -2.4910  1.8971
 7252TIP3   OH245950   2.871   3.317   9.695 -0.1151  0.1905 -0.1485
 7252TIP3    H145951   2.938   3.384   9.684  0.7035 -0.6905 -0.6333
 7252TIP3    H245952   2.892   3.251   9.630 -0.3421 -0.9861  0.9293
 7253TIP3   OH245953   2.180   4.011  11.312  0.5105 -0.5159 -0.6395
 7253TIP3    H145954   2.222   4.058  11.240 -0.9047  0.4790 -0.8433
 7253TIP3    H245955   2.201   4.065  11.389  0.5461 -0.6348 -0.5659
 7254TIP3   OH245956   6.119   3.433  11.424  0.4599  0.5998  0.1750
 7254TIP3    H145957   6.076   3.502  11.475  0.0968 -0.7646  1.8210
 7254TIP3    H245958   6.117   3.465  11.334 -1.2496  1.9626  0.6352
 7255TIP3   OH245959   1.495   2.540  12.024  0.0455  0.3828  0.0499
 7255TIP3    H145960   1.485   2.483  12.101  0.1520  0.8427  0.4121
 7255TIP3    H245961   1.431   2.610  12.037 -0.9999 -0.3453 -1.0481
 7256TIP3   OH245962   6.930   1.440  11.354 -0.4142 -0.6099 -0.4022
 7256TIP3    H145963   6.853   1.480  11.393  0.0579  0.5643 -0.6209
 7256TIP3    H245964   6.924   1.463  11.261 -0.7382 -2.0778 -0.7734
 7257TIP3   OH245965   2.480   6.385  11.637 -0.6685  0.1052  0.1863
 7257TIP3    H145966   2.455   6.427  11.720 -0.6889 -1.8387  1.2197
 7257TIP3    H245967   2.532   6.309  11.663  1.0246  0.5370 -1.6902
 7258TIP3   OH245968   2.140   7.069  12.568  0.1466  0.2439  0.1002
 7258TIP3    H145969   2.050   7.048  12.542 -0.4382  1.2605  1.2015
 7258TIP3    H245970   2.181   6.983  12.584 -0.6635 -0.2282 -0.2913
 7259TIP3   OH245971   0.090   3.638  12.738 -0.2734 -0.5756  0.7292
 7259TIP3    H145972   0.054   3.720  12.772 -1.9227 -1.6356  1.6678
 7259TIP3    H245973   0.017   3.597  12.692  0.4449 -1.6412  0.5043
 7260TIP3   OH245974   3.518   6.831  10.694  0.3641 -0.0459  0.0968
 7260TIP3    H145975   3.481   6.888  10.762 -0.1473  1.6036 -1.4915
 7260TIP3    H245976   3.485   6.744  10.715 -0.7761  0.6245  1.2606
 7261TIP3   OH245977   0.065   5.390  12.360  0.0456 -0.6782 -0.3737
 7261TIP3    H145978   0.029   5.477  12.372  0.3764 -0.7417  1.2518
 7261TIP3    H245979  -0.003   5.342  12.313  0.4372  0.8249 -2.6543
 7262TIP3   OH245980   4.064   6.357  11.787 -0.1699  0.2709 -0.0341
 7262TIP3    H145981   4.096   6.352  11.697  2.0211 -1.3642  0.7734
 7262TIP3    H245982   4.033   6.269  11.807 -0.4454  0.5622  0.8967
 7263TIP3   OH245983   2.350   6.761  10.606 -0.2638 -0.0122 -0.2600
 7263TIP3    H145984   2.267   6.718  10.588  0.0411  0.2363 -2.5965
 7263TIP3    H245985   2.416   6.697  10.578  0.4895 -0.8993  3.0978
 7264TIP3   OH245986   6.613   6.918  12.203 -0.2968 -0.1361  0.6202
 7264TIP3    H145987   6.636   6.859  12.275 -1.3226 -0.8589  0.3788
 7264TIP3    H245988   6.684   6.908  12.140  0.6560  0.5684  1.5584
 7265TIP3   OH245989   2.213   5.154  17.328  0.1020  0.3086  0.2037
 7265TIP3    H145990   2.168   5.081  17.370  0.2727  0.0645 -0.0379
 7265TIP3    H245991   2.207   5.135  17.234  2.2716 -0.6584  0.2041
 7266TIP3   OH245992   6.290   5.772  10.679 -0.6215  0.4999  0.3875
 7266TIP3    H145993   6.253   5.694  10.719 -2.1798  0.9671 -0.0896
 7266TIP3    H245994   6.253   5.775  10.591 -1.1912  2.1600  0.6394
 7267TIP3   OH245995   1.004   6.314  10.939  0.3051 -0.2326  0.4477
 7267TIP3    H145996   0.909   6.307  10.929  0.3265  1.9060 -2.7041
 7267TIP3    H245997   1.017   6.320  11.034 -2.8665  0.7676  0.9590
 7268TIP3   OH245998   1.430   5.023  10.783  0.4131 -0.1391 -0.6233
 7268TIP3    H145999   1.457   4.933  10.803 -1.6728 -0.9298 -1.0206
 7268TIP3    H246000   1.428   5.027  10.687 -1.1764 -0.2654 -0.6204
 7269TIP3   OH246001   3.964   6.952  11.500 -0.4664 -0.0891 -0.2919
 7269TIP3    H146002   4.001   6.929  11.585 -0.1116  0.4103 -0.3079
 7269TIP3    H246003   3.891   7.011  11.521 -2.6184 -2.6360 -0.1198
 7270TIP3   OH246004   2.694   1.541  13.391 -0.5643 -0.4776  0.5083
 7270TIP3    H146005   2.777   1.506  13.425 -0.8498 -1.5442  0.1615
 7270TIP3    H246006   2.720   1.593  13.316  0.0980  2.0891  2.3877
 7271TIP3   OH246007   5.780   7.554  11.001  0.1025 -0.0971  0.0188
 7271TIP3    H146008   5.799   7.647  10.994  0.7949 -0.0927  1.5202
 7271TIP3    H246009   5.823   7.514  10.925  3.5403  0.3041  1.5684
 7272TIP3   OH246010   2.387   2.688  11.551 -0.0622 -0.7818 -0.3814
 7272TIP3    H146011   2.417   2.735  11.629  1.2855  0.6940 -1.7390
 7272TIP3    H246012   2.360   2.602  11.584 -1.5483  0.4988  2.0132
 7273TIP3   OH246013   6.527   4.377  13.872  0.1376  0.5532  0.0596
 7273TIP3    H146014   6.494   4.393  13.784 -0.5387  1.6479  0.4991
 7273TIP3    H246015   6.449   4.353  13.923  0.4410  0.4393  0.4773
 7274TIP3   OH246016   3.718   7.037  11.589  0.4334 -0.5927  0.7504
 7274TIP3    H146017   3.623   7.042  11.588  0.4764  1.9664  0.7752
 7274TIP3    H246018   3.741   7.037  11.682  0.4473  0.0637  0.7555
 7275TIP3   OH246019   4.917   0.245  12.944  0.6705 -0.4269  0.3059
 7275TIP3    H146020   4.898   0.190  12.868 -0.4635  0.2030  0.1156
 7275TIP3    H246021   5.013   0.247  12.949  0.7881  0.0962 -1.5467
 7276TIP3   OH246022   7.542   2.573  10.533  0.7886 -1.0322  0.0109
 7276TIP3    H146023   7.511   2.588  10.623  0.7417 -1.8050  0.1309
 7276TIP3    H246024   7.601   2.646  10.516 -0.3937 -0.0143  0.0975
 7277TIP3   OH246025   2.529   4.504  10.315  0.2543 -0.1867 -0.5438
 7277TIP3    H146026   2.512   4.496  10.221 -1.7547 -0.2706 -0.2249
 7277TIP3    H246027   2.441   4.508  10.354  1.0554  0.6160  1.2590
 7278TIP3   OH246028   6.520   3.434  12.115 -0.4737  0.1517  0.1225
 7278TIP3    H146029   6.429   3.443  12.144 -0.7838 -0.0806 -0.7482
 7278TIP3    H246030   6.518   3.453  12.021  0.3983  0.2528  0.1110
 7279TIP3   OH246031   7.080   4.594  10.589  0.5481  0.6859 -0.2371
 7279TIP3    H146032   7.082   4.509  10.634  0.6664  0.9992  0.3714
 7279TIP3    H246033   7.157   4.593  10.533  0.8806  0.6219  0.2149
 7280TIP3   OH246034   1.038   6.779  11.131 -0.3100  0.1767 -0.1376
 7280TIP3    H146035   1.035   6.705  11.071  0.6607 -0.2684  0.3443
 7280TIP3    H246036   1.013   6.742  11.216 -1.8319  0.8302 -0.2522
 7281TIP3   OH246037   0.129   1.123  12.192 -0.0754 -0.0895 -0.1210
 7281TIP3    H146038   0.120   1.143  12.099 -0.7991  0.3797  0.0430
 7281TIP3    H246039   0.120   1.028  12.198 -4.0168  0.1530 -0.1214
 7282TIP3   OH246040   1.490   4.326  11.742 -0.5152  0.3091 -0.0886
 7282TIP3    H146041   1.453   4.246  11.707  0.4955 -1.3044  2.2414
 7282TIP3    H246042   1.566   4.297  11.792  1.4403  3.0297 -1.2618
 7283TIP3   OH246043   3.372   4.606  11.731 -0.0920 -0.5163 -0.3743
 7283TIP3    H146044   3.351   4.540  11.665 -1.3198 -0.8054  0.2760
 7283TIP3    H246045   3.414   4.677  11.682 -1.7313 -0.3655 -1.6225
 7284TIP3   OH246046   5.578   2.523  11.286  0.2954 -0.2136 -0.0485
 7284TIP3    H146047   5.667   2.528  11.250  0.8626 -0.8971  1.1743
 7284TIP3    H246048   5.578   2.589  11.356 -0.6549  0.8142 -0.9829
 7285TIP3   OH246049   1.910   2.030  10.662 -0.4235 -0.0863  0.3539
 7285TIP3    H146050   1.968   1.960  10.694  0.6300 -0.0763 -1.4094
 7285TIP3    H246051   1.909   2.094  10.733  3.0140  0.6502 -0.1008
 7286TIP3   OH246052   7.139   5.757  12.357  0.0076  0.2459 -0.2309
 7286TIP3    H146053   7.049   5.734  12.334  0.0576 -0.5098  0.2633
 7286TIP3    H246054   7.140   5.756  12.452 -0.0171  2.5875 -0.1494
 7287TIP3   OH246055   1.422   1.544  12.787 -0.2520 -0.9582  0.4880
 7287TIP3    H146056   1.379   1.459  12.782 -0.6238 -0.7318 -0.5642
 7287TIP3    H246057   1.489   1.534  12.854 -2.0667 -1.2656  2.3572
 7288TIP3   OH246058   4.650   2.713  10.738 -0.1410  0.8105  0.1699
 7288TIP3    H146059   4.598   2.633  10.735  0.4166  0.4715 -1.5663
 7288TIP3    H246060   4.741   2.684  10.728  0.1647  1.5881  0.5449
 7289TIP3   OH246061   7.571   2.302  11.006  0.0395  0.0442  0.2495
 7289TIP3    H146062   7.623   2.313  11.086 -0.8818 -0.5974  0.9549
 7289TIP3    H246063   7.608   2.365  10.944  0.7629  0.5521  1.1851
 7290TIP3   OH246064   7.679   6.081  11.980 -0.0943  0.2593 -0.1707
 7290TIP3    H146065   7.771   6.056  11.983  0.1116  1.0827  1.9063
 7290TIP3    H246066   7.679   6.169  11.941 -0.1083 -0.0518 -0.8954
 7291TIP3   OH246067   6.865   0.574  10.959 -0.0408  0.4582 -0.3710
 7291TIP3    H146068   6.846   0.591  10.866 -2.4401  0.5755  0.0818
 7291TIP3    H246069   6.913   0.491  10.958 -2.4542 -1.0368 -1.6151
 7292TIP3   OH246070   4.268   5.173  11.083 -0.3834  0.0609  0.0233
 7292TIP3    H146071   4.316   5.255  11.093 -0.8826  0.2811  0.6491
 7292TIP3    H246072   4.329   5.106  11.116 -1.0841  0.5172  2.4872
 7293TIP3   OH246073   3.922   5.641  11.543 -0.6770  0.0092 -0.0115
 7293TIP3    H146074   3.848   5.589  11.574 -1.3495  1.8056  1.5775
 7293TIP3    H246075   3.999   5.587  11.563 -1.4276 -1.2681 -0.4008
 7294TIP3   OH246076   2.407   6.543  11.185  0.3773  0.1156  0.4678
 7294TIP3    H146077   2.404   6.575  11.275 -3.2745  0.1783  0.5013
 7294TIP3    H246078   2.444   6.455  11.191  0.0448  0.0660  2.0748
 7295TIP3   OH246079   0.522   6.940  11.871 -1.0616  0.2515  0.2524
 7295TIP3    H146080   0.577   7.013  11.843 -0.0866  0.4532  2.5224
 7295TIP3    H246081   0.555   6.865  11.821  0.4088  0.6396  0.5948
 7296TIP3   OH246082   5.790   3.472  11.302 -0.1965 -0.2809 -0.0061
 7296TIP3    H146083   5.874   3.504  11.268 -0.0182 -1.4760 -0.7610
 7296TIP3    H246084   5.793   3.377  11.287 -1.8699 -0.2860 -0.4775
 7297TIP3   OH246085   1.174   1.544  10.878  0.2977 -0.6761  0.0160
 7297TIP3    H146086   1.096   1.560  10.931  0.0249 -1.7189 -0.0377
 7297TIP3    H246087   1.244   1.593  10.922 -0.5573  1.0711 -0.4743
 7298TIP3   OH246088   0.239   3.423  13.016  0.0742  0.1625 -0.2417
 7298TIP3    H146089   0.311   3.396  13.072 -0.1719  1.1365  0.5684
 7298TIP3    H246090   0.183   3.478  13.072 -1.3593 -0.6551 -0.8019
 7299TIP3   OH246091   7.475   7.122  12.535 -0.2164  0.7859  0.3435
 7299TIP3    H146092   7.570   7.114  12.540 -0.2216 -0.8694 -1.0389
 7299TIP3    H246093   7.442   7.038  12.567 -1.2417  1.4185  1.0156
 7300TIP3   OH246094   3.484   1.790  11.685 -0.7288  0.6589 -0.1915
 7300TIP3    H146095   3.418   1.786  11.615 -1.8056 -0.1331  0.8336
 7300TIP3    H246096   3.465   1.872  11.731 -0.1921  1.0465 -0.6516
 7301TIP3   OH246097   5.972   5.065  12.061 -0.2860  0.2662  0.3469
 7301TIP3    H146098   5.949   5.095  11.973 -0.8507  0.1852  0.4658
 7301TIP3    H246099   5.995   4.973  12.050 -4.0813 -0.8934  0.8337
 7302TIP3   OH246100   1.285   6.389  11.353  0.1061  0.1612 -0.2007
 7302TIP3    H146101   1.290   6.429  11.439  1.9536 -0.4079 -0.0058
 7302TIP3    H246102   1.324   6.453  11.294  1.0119 -0.4005 -0.2295
 7303TIP3   OH246103   1.708   6.357  12.874 -0.3946  0.1131 -0.4104
 7303TIP3    H146104   1.634   6.310  12.911  1.1090 -0.7524  1.6728
 7303TIP3    H246105   1.692   6.449  12.895 -1.0115 -0.0208 -0.2780
 7304TIP3   OH246106   5.225   4.374  10.998  0.2959  0.3193 -0.8094
 7304TIP3    H146107   5.139   4.415  10.986 -1.0285 -1.3067  2.1707
 7304TIP3    H246108   5.215   4.286  10.962  0.9599  0.3516 -1.0919
 7305TIP3   OH246109   1.491   7.162  11.428  0.4511 -0.4305  0.7499
 7305TIP3    H146110   1.485   7.255  11.452  0.3214 -0.4031  0.6096
 7305TIP3    H246111   1.549   7.125  11.494  0.2786 -0.3067  0.9739
 7306TIP3   OH246112   3.074   0.548  12.097 -0.2329  0.0428 -0.1784
 7306TIP3    H146113   3.049   0.482  12.032  2.7835 -1.5308  0.0852
 7306TIP3    H246114   3.035   0.518  12.179  0.3448 -0.8991 -0.2441
 7307TIP3   OH246115   7.443   5.168  12.444  0.0258 -0.2253  0.2012
 7307TIP3    H146116   7.440   5.264  12.437 -0.8087 -0.3406 -3.4491
 7307TIP3    H246117   7.354   5.140  12.421  0.1394 -1.9170  1.6233
 7308TIP3   OH246118   3.970   4.375  10.933  0.8326  0.6118  0.1965
 7308TIP3    H146119   4.023   4.297  10.945  0.5283  0.4442  0.4660
 7308TIP3    H246120   3.991   4.430  11.009  0.5194  0.4860  0.3748
 7309TIP3   OH246121   5.588   0.848  11.459  0.5986  0.2323  0.1781
 7309TIP3    H146122   5.601   0.933  11.501 -0.5059  0.9902 -0.9376
 7309TIP3    H246123   5.519   0.805  11.511 -0.1409  0.8004 -0.3115
 7310TIP3   OH246124   1.999   4.449  12.665 -0.1130  0.0480  0.0787
 7310TIP3    H146125   1.962   4.415  12.747  0.4836  1.2407  0.8791
 7310TIP3    H246126   1.932   4.433  12.600 -1.0359  0.0076  1.0100
 7311TIP3   OH246127   6.823   4.025  11.550 -0.4563 -0.1039 -0.0270
 7311TIP3    H146128   6.728   4.008  11.550 -0.7074  0.9010 -2.4909
 7311TIP3    H246129   6.844   4.043  11.458  2.6796 -3.0119 -0.0658
 7312TIP3   OH246130   1.312   6.958  11.456 -0.6243 -0.0556 -0.2570
 7312TIP3    H146131   1.314   6.960  11.360  1.1544  1.3339 -0.2457
 7312TIP3    H246132   1.354   7.040  11.482 -0.8287 -0.5439  1.7210
 7313TIP3   OH246133   3.684   6.370  11.334  0.0961 -0.0543  0.0064
 7313TIP3    H146134   3.737   6.443  11.303 -0.7958  0.1811 -1.0336
 7313TIP3    H246135   3.600   6.409  11.358  0.5819 -0.3100  2.3639
 7314TIP3   OH246136   1.965   3.065  12.423 -0.0033 -0.2310 -0.5697
 7314TIP3    H146137   1.921   3.150  12.433  0.4874 -0.0095 -0.2460
 7314TIP3    H246138   1.935   3.033  12.338 -1.4339 -0.4771 -0.0039
 7315TIP3   OH246139   6.122   0.518  10.473 -0.1859 -0.1207 -0.0141
 7315TIP3    H146140   6.168   0.480  10.548  0.2644 -0.5927 -0.5285
 7315TIP3    H246141   6.190   0.534  10.408 -0.7333 -0.8578 -0.7951
 7316TIP3   OH246142   5.755   5.937  13.007  0.5309  0.3358 -0.3516
 7316TIP3    H146143   5.831   5.995  13.010  0.5642  0.2996 -0.5028
 7316TIP3    H246144   5.791   5.851  12.986  0.8008 -0.2875  2.2797
 7317TIP3   OH246145   4.497   2.534  11.011 -0.0190  0.0296 -0.1590
 7317TIP3    H146146   4.535   2.552  11.096  0.6851 -2.3829  0.1235
 7317TIP3    H246147   4.410   2.497  11.030  0.7467 -1.9835 -0.3358
 7318TIP3   OH246148   2.866   2.837  13.279  0.1966 -0.3843 -0.1366
 7318TIP3    H146149   2.866   2.745  13.255 -0.4474 -0.6973  0.9945
 7318TIP3    H246150   2.776   2.856  13.305  0.6129  0.1775  1.0019
 7319TIP3   OH246151   3.963   4.804  10.669 -0.1698  0.1442 -1.0030
 7319TIP3    H146152   3.991   4.713  10.658  0.5508  0.3013 -0.5208
 7319TIP3    H246153   3.869   4.803  10.648 -0.4294 -0.9251  0.0694
 7320TIP3   OH246154   7.331   2.452  12.100 -0.0172 -0.2395  0.2143
 7320TIP3    H146155   7.303   2.451  12.008  0.1038 -0.1596  0.1749
 7320TIP3    H246156   7.308   2.366  12.133 -1.8582  0.3853  0.6574
 7321TIP3   OH246157   3.292   0.795  10.814 -0.0070 -0.0872  0.3462
 7321TIP3    H146158   3.349   0.858  10.770  1.7477 -1.3486  0.6758
 7321TIP3    H246159   3.327   0.789  10.903 -0.2413 -1.3529  0.3759
 7322TIP3   OH246160   3.563   4.905  11.827  0.0374  0.0206  0.4241
 7322TIP3    H146161   3.545   4.857  11.746  0.0763 -0.2769  0.5920
 7322TIP3    H246162   3.625   4.974  11.801  0.9522 -0.7849  0.4266
 7323TIP3   OH246163   2.287   1.713  10.361 -0.1630  0.1930 -0.8071
 7323TIP3    H146164   2.215   1.766  10.394  0.6444  0.3891  0.7717
 7323TIP3    H246165   2.338   1.691  10.440  0.7366 -1.0738 -1.7061
 7324TIP3   OH246166   3.595   5.348  12.017 -0.0258  0.9250  0.4170
 7324TIP3    H146167   3.612   5.380  12.105 -0.1604  1.1108  0.3769
 7324TIP3    H246168   3.571   5.256  12.029 -0.4574  1.0593  0.6170
 7325TIP3   OH246169   0.096   2.247  11.543  0.1292 -0.0250  0.1110
 7325TIP3    H146170   0.017   2.252  11.490 -0.5410 -1.6461  0.8744
 7325TIP3    H246171   0.069   2.276  11.630  0.5480  0.0838  0.2097
 7326TIP3   OH246172   1.374   6.026  11.944  0.2348  0.4528  0.3788
 7326TIP3    H146173   1.400   6.118  11.955  2.2407  0.3626 -2.4987
 7326TIP3    H246174   1.349   5.998  12.032  0.4010  3.4810  1.5267
 7327TIP3   OH246175   1.386   0.404  10.572  0.1379  0.5644 -0.1787
 7327TIP3    H146176   1.315   0.409  10.636  1.1816 -1.3543  1.2274
 7327TIP3    H246177   1.412   0.496  10.558 -0.4392  1.0742  1.8175
 7328TIP3   OH246178   5.663   0.549  12.427  0.3128 -0.4227  0.0954
 7328TIP3    H146179   5.708   0.556  12.511  1.5280  0.0218 -0.5580
 7328TIP3    H246180   5.571   0.563  12.447  0.3692 -1.8696  1.5636
 7329TIP3   OH246181   1.323   1.798  12.788 -0.5226 -0.8910 -0.0423
 7329TIP3    H146182   1.272   1.805  12.707  1.1890 -0.6252 -1.1474
 7329TIP3    H246183   1.360   1.710  12.785 -1.9415 -1.6049  1.4447
 7330TIP3   OH246184   0.689   7.041  11.046 -0.0714  0.2139 -0.1494
 7330TIP3    H146185   0.657   7.000  11.126  2.8231 -1.6951  0.1815
 7330TIP3    H246186   0.721   6.968  10.993  2.6234  1.7692 -0.8335
 7331TIP3   OH246187   4.866   3.095  12.170  0.8873 -0.0039  0.0782
 7331TIP3    H146188   4.957   3.073  12.147  0.4424 -0.3197 -1.5404
 7331TIP3    H246189   4.868   3.111  12.264  2.1006 -2.8730  0.6602
 7332TIP3   OH246190   6.209   6.058  10.785  0.1933  0.4339  0.8991
 7332TIP3    H146191   6.116   6.050  10.760  0.1019  0.0130  1.3511
 7332TIP3    H246192   6.223   5.987  10.847  0.8194  0.5116  0.8527
 7333TIP3   OH246193   6.694   5.896  12.392 -0.5028  0.3408 -0.0174
 7333TIP3    H146194   6.742   5.880  12.473 -1.7247  0.3843  0.7341
 7333TIP3    H246195   6.623   5.833  12.393 -0.6779  0.5023 -0.9524
 7334TIP3   OH246196   2.214   6.684  12.400 -0.5144 -0.1872  0.2673
 7334TIP3    H146197   2.261   6.731  12.469 -0.4706  1.4856 -0.8373
 7334TIP3    H246198   2.188   6.752  12.338 -2.1778 -1.4039 -0.4449
 7335TIP3   OH246199   2.793   6.654  11.642  0.3358  0.1779 -0.1783
 7335TIP3    H146200   2.843   6.580  11.679  0.1582  0.4876  0.7231
 7335TIP3    H246201   2.769   6.626  11.554 -0.9119 -1.4438  0.6145
 7336TIP3   OH246202   7.627   6.003  11.153 -0.0432  0.4532 -0.1810
 7336TIP3    H146203   7.697   6.038  11.209 -0.9212 -0.2115  1.3911
 7336TIP3    H246204   7.548   6.049  11.181 -0.5561 -0.0913 -0.7009
 7337TIP3   OH246205   0.868   3.170  12.236 -0.1323 -0.0258 -0.5732
 7337TIP3    H146206   0.804   3.207  12.297  2.5933  2.0309  1.3031
 7337TIP3    H246207   0.821   3.164  12.153 -2.9518  0.5496  0.8402
 7338TIP3   OH246208   6.838   7.418  11.913  0.8393 -0.3166  0.2357
 7338TIP3    H146209   6.906   7.481  11.939  0.7875 -0.1432 -0.0402
 7338TIP3    H246210   6.790   7.400  11.994 -2.2995  3.7385 -0.3676
 7339TIP3   OH246211   0.927   5.444  11.434  0.0170  0.1122  0.5889
 7339TIP3    H146212   0.930   5.487  11.349  1.1337  0.4208  0.7582
 7339TIP3    H246213   0.902   5.513  11.495 -0.9486 -0.1476  0.5036
 7340TIP3   OH246214   0.958   3.013  11.944  0.4062 -0.1996  0.3044
 7340TIP3    H146215   0.993   3.056  11.866 -1.8397  2.2929  0.5416
 7340TIP3    H246216   1.032   3.010  12.005  1.1595  1.6347 -0.4515
 7341TIP3   OH246217   1.180   3.346  11.649  0.3810  0.1808  0.0420
 7341TIP3    H146218   1.124   3.410  11.605  1.5776  0.8153 -0.6329
 7341TIP3    H246219   1.242   3.319  11.581  0.8129 -0.5852  0.7292
 7342TIP3   OH246220   1.937   5.198  12.411 -0.1857 -0.0704  0.6281
 7342TIP3    H146221   1.846   5.182  12.432 -0.4275  0.4578  0.0307
 7342TIP3    H246222   1.984   5.122  12.444 -0.7832 -0.1317  1.3344
 7343TIP3   OH246223   3.087   6.393  11.933 -0.2193 -0.3439 -0.2388
 7343TIP3    H146224   3.159   6.336  11.907  1.0880  1.4195 -0.6821
 7343TIP3    H246225   3.113   6.429  12.018 -0.1701  0.9261 -0.7679
 7344TIP3   OH246226   6.460   7.417  11.607  0.3191 -0.1137 -0.2984
 7344TIP3    H146227   6.382   7.361  11.611  0.6942 -0.7428 -1.5977
 7344TIP3    H246228   6.427   7.500  11.573 -0.0070  0.0712  0.4341
 7345TIP3   OH246229   4.079   1.515  11.922 -0.0323  0.2635 -0.0340
 7345TIP3    H146230   4.123   1.600  11.926 -1.1612  0.8239  1.2370
 7345TIP3    H246231   4.137   1.456  11.970  0.5359  0.4157 -0.5243
 7346TIP3   OH246232   3.422   6.190  11.326  0.2153  0.2554 -0.3031
 7346TIP3    H146233   3.440   6.218  11.416 -2.8699  1.0724  0.1701
 7346TIP3    H246234   3.507   6.160  11.293  1.9054  2.0082  2.1034
 7347TIP3   OH246235   0.480   2.193  10.681  0.4805 -0.4952 -0.1578
 7347TIP3    H146236   0.436   2.214  10.763  1.1459 -0.8674  0.3048
 7347TIP3    H246237   0.547   2.260  10.671  0.5823 -0.6112 -0.2560
 7348TIP3   OH246238   2.522   1.786  13.403 -0.2784  0.4414  0.3281
 7348TIP3    H146239   2.565   1.707  13.433  0.7793  0.8826  0.0480
 7348TIP3    H246240   2.485   1.826  13.482  0.0390  0.1661  0.6166
 7349TIP3   OH246241   0.781   1.507  10.643  0.0297 -0.3440 -0.0608
 7349TIP3    H146242   0.718   1.442  10.672 -1.5484 -0.1469 -2.6817
 7349TIP3    H246243   0.866   1.468  10.662 -0.8729 -2.6249 -0.3446
 7350TIP3   OH246244   5.186   6.976  10.640  0.5820 -0.2374 -0.1387
 7350TIP3    H146245   5.265   6.984  10.587 -0.0165 -1.4781 -1.2800
 7350TIP3    H246246   5.201   7.034  10.715  2.1393  0.3036 -0.8325
 7351TIP3   OH246247   2.113   4.844  11.281  0.2587 -0.4269 -0.1065
 7351TIP3    H146248   2.018   4.831  11.281  0.1362  0.1776  1.3247
 7351TIP3    H246249   2.126   4.919  11.339  1.4114  1.4376 -2.5865
 7352TIP3   OH246250   0.246   1.187  11.755  0.3144  0.0532 -0.1610
 7352TIP3    H146251   0.194   1.215  11.680  0.9682  1.6270 -0.0644
 7352TIP3    H246252   0.190   1.205  11.831  0.1022 -0.4738 -0.1833
 7353TIP3   OH246253   7.160   0.062  10.599 -0.2033 -0.5050  0.0290
 7353TIP3    H146254   7.233   0.035  10.654 -0.1182 -2.6322 -1.0235
 7353TIP3    H246255   7.132  -0.018  10.555 -2.9663  0.2979  0.1176
 7354TIP3   OH246256   6.605   7.629  11.004 -0.4171 -0.4250  0.2776
 7354TIP3    H146257   6.559   7.547  10.988 -1.2107 -0.0864  0.7328
 7354TIP3    H246258   6.636   7.657  10.918 -2.8499  0.3581 -0.4267
 7355TIP3   OH246259   6.694   5.628  13.251 -0.6319  0.3477 -0.2405
 7355TIP3    H146260   6.677   5.673  13.167 -1.5107  0.4430 -0.0247
 7355TIP3    H246261   6.741   5.693  13.303 -0.4106  0.4208 -0.5257
 7356TIP3   OH246262   0.516   4.850  10.948 -0.2224  0.5032  0.1683
 7356TIP3    H146263   0.535   4.762  10.916 -1.5437  0.0067  0.6923
 7356TIP3    H246264   0.601   4.894  10.949  0.2676 -0.3417 -1.3247
 7357TIP3   OH246265   5.041   5.070  11.800  0.5709  0.3274 -0.0167
 7357TIP3    H146266   5.128   5.097  11.830  1.0492 -3.1320  2.3316
 7357TIP3    H246267   4.989   5.063  11.881  0.2298 -4.1249 -0.3856
 7358TIP3   OH246268   6.549   3.396  11.826 -0.2951  0.6807  0.0543
 7358TIP3    H146269   6.513   3.310  11.851  0.6494  0.6567  1.4405
 7358TIP3    H246270   6.640   3.378  11.802 -0.5644  1.0623 -1.3393
 7359TIP3   OH246271   5.745   2.250  10.563  0.3030 -0.3645 -0.4586
 7359TIP3    H146272   5.760   2.329  10.511  1.1638 -0.2395 -0.0266
 7359TIP3    H246273   5.797   2.182  10.521  1.5052 -0.1193  0.5616
 7360TIP3   OH246274   6.190   5.685  10.401  0.7240  0.0852 -0.3956
 7360TIP3    H146275   6.111   5.632  10.392  0.8669  0.0267 -1.3996
 7360TIP3    H246276   6.159   5.775  10.405  0.6058  0.0670 -0.8484
 7361TIP3   OH246277   2.849   4.452  10.733 -0.8336 -0.3635  0.5489
 7361TIP3    H146278   2.817   4.469  10.822 -1.5183  2.7495 -0.1748
 7361TIP3    H246279   2.773   4.469  10.677  0.6071  1.9034 -0.8590
 7362TIP3   OH246280   7.183   3.346  12.868  0.1863 -0.4635  0.5575
 7362TIP3    H146281   7.117   3.392  12.816  0.2695 -0.5192  0.4007
 7362TIP3    H246282   7.198   3.265  12.821  0.1705 -0.5716  0.7378
 7363TIP3   OH246283   4.072   5.715  12.903 -0.8348  0.3307 -0.6782
 7363TIP3    H146284   3.995   5.691  12.955 -1.7897  2.8673 -0.7910
 7363TIP3    H246285   4.142   5.728  12.968 -0.3247 -2.2726 -0.5995
 7364TIP3   OH246286   6.232   4.453  11.956  0.7183 -0.9433  0.2668
 7364TIP3    H146287   6.227   4.359  11.942 -0.3419 -0.9989  0.8581
 7364TIP3    H246288   6.312   4.480  11.912  1.2143 -2.1703  0.3793
 7365TIP3   OH246289   4.576   2.629  11.977  0.0994  0.2840  0.4756
 7365TIP3    H146290   4.535   2.711  11.950  1.1527  0.0659 -2.1585
 7365TIP3    H246291   4.663   2.631  11.937 -0.3532 -2.6953 -0.9861
 7366TIP3   OH246292   7.368   4.719  12.795 -0.0654  0.1288 -0.5065
 7366TIP3    H146293   7.389   4.782  12.864 -0.9124 -0.8450  0.6784
 7366TIP3    H246294   7.333   4.772  12.724  2.0635  1.2983 -0.7461
 7367TIP3   OH246295   0.037   4.586  11.208 -0.9600  0.5543  0.1306
 7367TIP3    H146296  -0.022   4.578  11.283 -0.9002  1.1338  0.2376
 7367TIP3    H246297   0.019   4.672  11.172 -2.9071 -0.7020 -2.1565
 7368TIP3   OH246298   3.321   3.734  10.820 -0.8412  0.1522 -0.3767
 7368TIP3    H146299   3.378   3.808  10.798 -0.4461  0.3429  1.2043
 7368TIP3    H246300   3.266   3.723  10.742  0.0522  1.1815 -1.2002
 7369TIP3   OH246301   4.904   2.253  13.123 -0.0681 -0.5063 -0.2628
 7369TIP3    H146302   4.912   2.163  13.090 -3.3769 -0.8535 -0.5273
 7369TIP3    H246303   4.832   2.248  13.186 -1.3549  2.1845 -1.3939
 7370TIP3   OH246304   1.892   2.948  12.192 -0.4104 -0.1418 -0.2133
 7370TIP3    H146305   1.966   2.967  12.134  1.6854 -0.1633  2.2897
 7370TIP3    H246306   1.820   2.931  12.132  1.8080 -1.1244 -2.8558
 7371TIP3   OH246307   2.159   7.479  11.757  0.1682  0.2395 -0.3035
 7371TIP3    H146308   2.195   7.407  11.705  0.6965  0.2212  0.0865
 7371TIP3    H246309   2.213   7.555  11.732 -0.1765  0.4320 -0.4705
 7372TIP3   OH246310   7.440   7.268  11.851 -0.1308 -0.1156  0.1541
 7372TIP3    H146311   7.359   7.318  11.846  0.4888  0.9762  0.5414
 7372TIP3    H246312   7.495   7.319  11.911  1.2960 -0.1510 -1.0676
 7373TIP3   OH246313   5.393   0.678  12.285 -0.4870  0.3672  0.7497
 7373TIP3    H146314   5.400   0.667  12.379  0.3584  1.2859  0.8143
 7373TIP3    H246315   5.345   0.601  12.255 -0.5657 -0.0475  1.8949
 7374TIP3   OH246316   0.430   4.109  11.073  0.3915 -0.1905 -0.5265
 7374TIP3    H146317   0.491   4.116  11.000  0.3347  2.4406 -0.4050
 7374TIP3    H246318   0.345   4.129  11.035 -0.2947 -2.6528 -0.4507
 7375TIP3   OH246319   3.274   5.328  10.381 -0.0159 -0.5777 -0.0544
 7375TIP3    H146320   3.276   5.416  10.344  0.2421  0.5359  2.4246
 7375TIP3    H246321   3.183   5.300  10.374 -0.3036  0.3152  0.0629
 7376TIP3   OH246322   3.107   5.109  11.060  0.2413 -0.2871  0.0274
 7376TIP3    H146323   3.154   5.155  11.129  1.2104  1.4151 -1.6496
 7376TIP3    H246324   3.139   5.019  11.064  0.2014 -0.2438  1.8139
 7377TIP3   OH246325   2.092   1.180  12.705 -0.1813  0.4100  0.2062
 7377TIP3    H146326   2.177   1.198  12.746  0.7465 -0.6173 -1.1584
 7377TIP3    H246327   2.076   1.087  12.725 -0.7346  0.4689  0.0362
 7378TIP3   OH246328   3.450   6.580  11.398  0.0761  0.0171  0.0600
 7378TIP3    H146329   3.523   6.577  11.460 -1.4296 -0.0055  1.9230
 7378TIP3    H246330   3.379   6.620  11.448 -1.0670  0.4599 -1.8479
 7379TIP3   OH246331   2.168   6.568  11.517 -0.0129 -0.3492  0.4124
 7379TIP3    H146332   2.173   6.483  11.561  1.0401 -0.2181  0.5887
 7379TIP3    H246333   2.084   6.567  11.472 -0.4630 -1.0781  1.2368
 7380TIP3   OH246334   3.189   2.543  12.234 -0.0720  0.4244  0.3270
 7380TIP3    H146335   3.128   2.569  12.165 -1.2826  1.0669  1.5963
 7380TIP3    H246336   3.170   2.450  12.248  1.8728 -0.3935 -1.8251
 7381TIP3   OH246337   6.759   5.650  11.131  0.0346 -0.2992  0.0926
 7381TIP3    H146338   6.852   5.633  11.151 -0.2486  0.6448  2.5138
 7381TIP3    H246339   6.750   5.745  11.139 -1.3064 -0.4632  0.6349
 7382TIP3   OH246340   5.034   1.732  11.966  0.3834  0.2048  0.4836
 7382TIP3    H146341   4.981   1.759  11.890  0.6436 -0.0385  0.2134
 7382TIP3    H246342   5.124   1.747  11.937  0.7895 -3.6884 -0.8226
 7383TIP3   OH246343   3.828   5.629  10.780 -0.0099 -0.0089 -0.3055
 7383TIP3    H146344   3.917   5.640  10.812 -0.0866  0.7540 -0.3305
 7383TIP3    H246345   3.838   5.597  10.690  0.2524  0.7679 -0.5572
 7384TIP3   OH246346   4.670   1.203  10.760  0.4844  0.1432 -0.2165
 7384TIP3    H146347   4.580   1.231  10.775  1.2528  2.9214 -0.1897
 7384TIP3    H246348   4.718   1.235  10.837  1.7191 -0.0153 -0.8965
 7385TIP3   OH246349   2.183   4.746  12.670  0.0114  0.8091  0.0517
 7385TIP3    H146350   2.230   4.728  12.751 -0.6079 -0.3947  0.1634
 7385TIP3    H246351   2.186   4.663  12.622  0.0912  1.4135 -1.0153
 7386TIP3   OH246352   2.456   5.115  10.835  0.0335  0.0611  0.6476
 7386TIP3    H146353   2.536   5.063  10.823 -0.1118  0.0561 -0.4277
 7386TIP3    H246354   2.473   5.197  10.790  0.0174  0.6970  1.7895
 7387TIP3   OH246355   2.196   0.028  12.187  0.0122  0.0704 -0.4590
 7387TIP3    H146356   2.167  -0.029  12.259  0.0230 -0.1770 -0.6504
 7387TIP3    H246357   2.237   0.103  12.231  0.9848 -0.5859 -0.2153
 7388TIP3   OH246358   1.990   3.367  11.212 -0.2928  0.5069 -0.5488
 7388TIP3    H146359   1.899   3.393  11.226 -0.7616 -1.4827  0.5476
 7388TIP3    H246360   1.989   3.272  11.221  1.9149  0.4453 -0.4418
 7389TIP3   OH246361   5.806   0.099  10.868 -0.0220 -0.0808 -0.4369
 7389TIP3    H146362   5.740   0.155  10.909  0.3583  0.0242  0.0405
 7389TIP3    H246363   5.757   0.046  10.805 -0.4952  0.2827 -0.3773
 7390TIP3   OH246364   6.415   3.097  12.839 -0.2075  0.2779  0.1510
 7390TIP3    H146365   6.455   3.128  12.920 -0.6805 -0.7339  0.7827
 7390TIP3    H246366   6.363   3.021  12.865  0.1672 -0.4794 -1.2051
 7391TIP3   OH246367   4.497   6.435  11.004 -0.4183 -0.1386  0.3589
 7391TIP3    H146368   4.431   6.366  11.012  0.4890 -1.0080  0.7620
 7391TIP3    H246369   4.454   6.506  10.957 -1.8507 -0.3778  1.2494
 7392TIP3   OH246370   0.199   2.538  12.059  0.0009 -0.2988 -0.4733
 7392TIP3    H146371   0.189   2.633  12.059 -0.7231 -0.3263 -2.2584
 7392TIP3    H246372   0.124   2.506  12.109  0.9119  0.0682  1.2022
 7393TIP3   OH246373   6.413   2.179  12.030 -0.4536  0.2892 -0.0392
 7393TIP3    H146374   6.437   2.230  12.107  0.1384  0.9832 -0.6682
 7393TIP3    H246375   6.376   2.243  11.969  0.5313  0.0372 -0.9361
 7394TIP3   OH246376   3.467   3.683  11.399 -0.3644 -0.1301 -0.2384
 7394TIP3    H146377   3.514   3.703  11.318 -0.2535  1.3219  0.1683
 7394TIP3    H246378   3.433   3.767  11.428 -0.4185 -0.6419  1.2232
 7395TIP3   OH246379   3.172   4.894  10.774 -0.3559  0.4700  0.6480
 7395TIP3    H146380   3.211   4.977  10.747 -1.4034  0.3657 -1.3511
 7395TIP3    H246381   3.082   4.898  10.742  0.0940 -2.2069 -1.3252
 7396TIP3   OH246382   3.244   3.596  10.587  0.1224  0.0343  0.2196
 7396TIP3    H146383   3.330   3.589  10.545 -0.7202 -1.6459 -1.3285
 7396TIP3    H246384   3.219   3.506  10.606 -2.1601  0.3059 -1.2036
 7397TIP3   OH246385   5.935   7.214  12.969 -0.4846  0.1008  0.3726
 7397TIP3    H146386   5.886   7.133  12.978  1.6799 -1.2411  0.8767
 7397TIP3    H246387   5.869   7.283  12.975 -2.4817 -1.6036 -0.7778
 7398TIP3   OH246388   7.376   6.872  12.571  0.1607  0.3462 -0.4467
 7398TIP3    H146389   7.349   6.867  12.663 -1.3947 -1.5813 -0.9580
 7398TIP3    H246390   7.442   6.803  12.561  0.9676  1.1123 -0.6250
 7399TIP3   OH246391   1.596   2.634  11.541 -0.1535 -0.0011  0.2707
 7399TIP3    H146392   1.658   2.668  11.477  1.3923  2.3952  2.8379
 7399TIP3    H246393   1.526   2.700  11.544  0.7456  0.9386  2.2870
 7400TIP3   OH246394   0.088   6.335  12.886 -0.1264  0.3636 -0.4172
 7400TIP3    H146395  -0.006   6.347  12.902  0.0366  1.0909  0.0377
 7400TIP3    H246396   0.112   6.258  12.937 -0.2188  0.9347  0.5126
 7401TIP3   OH246397   1.661   2.981  13.000  0.7933 -0.2672 -0.0089
 7401TIP3    H146398   1.751   2.947  13.002  1.7099  1.5747 -2.8711
 7401TIP3    H246399   1.651   3.027  13.084  3.2298  0.9354 -0.2743
 7402TIP3   OH246400   1.051   1.857  12.304  0.0171 -0.1133 -0.0094
 7402TIP3    H146401   0.980   1.809  12.261 -0.8993  1.2504 -0.0877
 7402TIP3    H246402   1.066   1.933  12.249  0.9477  0.0719  0.4792
 7403TIP3   OH246403   2.116   1.727  12.320 -0.0879  0.0283  0.6836
 7403TIP3    H146404   2.155   1.712  12.406  1.1705 -0.2945  0.0742
 7403TIP3    H246405   2.117   1.641  12.278 -1.7425 -0.0556  0.7357
 7404TIP3   OH246406   1.612   5.288  12.126 -0.3240 -0.1320 -0.1089
 7404TIP3    H146407   1.538   5.276  12.066 -1.3789  2.0581  0.6391
 7404TIP3    H246408   1.575   5.338  12.199  1.3515 -1.1057  1.4854
 7405TIP3   OH246409   4.511   2.984  10.428  0.6980 -0.1481  0.3500
 7405TIP3    H146410   4.552   2.995  10.515 -0.2516  0.0863  0.7767
 7405TIP3    H246411   4.490   3.074  10.401  0.1305 -0.2975  0.2975
 7406TIP3   OH246412   4.819   5.189  11.171  0.0486 -0.0281 -0.1434
 7406TIP3    H146413   4.739   5.176  11.222  0.2696 -1.7471 -0.1650
 7406TIP3    H246414   4.889   5.193  11.236 -0.0108  1.3236 -0.1342
 7407TIP3   OH246415   7.400   1.766  10.658  0.1941 -0.1577  0.4650
 7407TIP3    H146416   7.426   1.857  10.641  0.3567 -0.0963  1.0252
 7407TIP3    H246417   7.328   1.773  10.721  0.1500 -0.4151  0.4430
 7408TIP3   OH246418   3.407   1.821  12.047  0.2263  0.2036 -0.1479
 7408TIP3    H146419   3.460   1.871  11.983  1.0631 -0.3158  0.1202
 7408TIP3    H246420   3.466   1.809  12.121 -0.2054 -0.5853  0.0714
 7409TIP3   OH246421   6.898   4.720  11.615  0.0605 -0.8041  0.3855
 7409TIP3    H146422   6.929   4.687  11.699  0.1338 -3.0803 -0.4489
 7409TIP3    H246423   6.820   4.668  11.596  0.3562 -0.7286 -1.1907
 7410TIP3   OH246424   3.695   1.841  10.951  0.1946  0.1141  0.2297
 7410TIP3    H146425   3.600   1.838  10.940 -0.6173 -0.3761  5.2068
 7410TIP3    H246426   3.720   1.924  10.910 -2.2122  0.0876 -1.5844
 7411TIP3   OH246427   4.022   3.675  11.037  0.5652  0.0482 -0.3405
 7411TIP3    H146428   3.989   3.752  11.083  1.1614  0.0973  0.0100
 7411TIP3    H246429   4.116   3.688  11.033  0.4332  0.7639 -2.8670
 7412TIP3   OH246430   7.020   0.688  10.602  0.5978 -0.0917 -0.0736
 7412TIP3    H146431   7.077   0.611  10.602 -0.5118 -0.9473  1.2505
 7412TIP3    H246432   7.021   0.718  10.511  0.5582 -2.0603 -0.7639
 7413TIP3   OH246433   3.904   3.336  11.947 -0.1174 -0.2443 -0.2264
 7413TIP3    H146434   3.878   3.416  11.993 -1.4233 -0.0855 -1.1755
 7413TIP3    H246435   3.875   3.265  12.004  0.2750 -0.0469  0.2213
 7414TIP3   OH246436   2.685   2.092  10.755 -0.1129  0.0317 -0.1984
 7414TIP3    H146437   2.646   2.176  10.781 -0.7109 -0.4076  0.3657
 7414TIP3    H246438   2.673   2.089  10.660  0.5482  0.8928 -0.3179
 7415TIP3   OH246439   2.993   5.469  11.155 -0.1822 -0.0495 -0.4997
 7415TIP3    H146440   3.087   5.452  11.141  0.2330  0.5473  1.3402
 7415TIP3    H246441   2.987   5.563  11.168 -0.9040 -0.1976  0.3178
 7416TIP3   OH246442   1.954   0.795  11.131 -0.2437 -0.4098 -0.3809
 7416TIP3    H146443   1.932   0.711  11.091  1.2051 -2.6886  3.1379
 7416TIP3    H246444   2.048   0.790  11.148 -0.1341  1.9081  0.0818
 7417TIP3   OH246445   4.469   6.729  12.612  0.3720 -0.4109 -0.2618
 7417TIP3    H146446   4.525   6.718  12.689  0.9247  2.2978 -0.1609
 7417TIP3    H246447   4.381   6.739  12.649  0.4386 -0.4533 -0.0880
 7418TIP3   OH246448   6.009   0.671  10.956 -0.0173 -0.2641 -0.3947
 7418TIP3    H146449   6.055   0.597  10.915  1.3924  0.7585 -0.7749
 7418TIP3    H246450   5.942   0.695  10.892  0.9379  0.1303 -1.2785
 7419TIP3   OH246451   3.794   3.315  11.149  0.3028 -0.0989  0.1983
 7419TIP3    H146452   3.835   3.278  11.071  3.4199  1.0625  1.1153
 7419TIP3    H246453   3.766   3.403  11.122 -0.1124 -0.2949 -0.0161
 7420TIP3   OH246454   2.400   7.404  11.615  0.5616 -0.0198 -0.2016
 7420TIP3    H146455   2.413   7.433  11.524  2.0089  0.3023  0.0709
 7420TIP3    H246456   2.489   7.394  11.649  0.1380  2.9550  2.1810
 7421TIP3   OH246457   4.240   5.034  11.871  0.0653  0.5730  0.0026
 7421TIP3    H146458   4.292   4.965  11.830 -1.7246 -1.6604  1.2324
 7421TIP3    H246459   4.222   5.001  11.959 -3.4677  1.1089 -0.3813
 7422TIP3   OH246460   2.864   0.580  10.729 -0.1919  0.0875  0.1529
 7422TIP3    H146461   2.941   0.612  10.775 -0.9148  1.2762  0.5730
 7422TIP3    H246462   2.791   0.596  10.790 -0.9055 -0.0986 -0.6276
 7423TIP3   OH246463   0.750   2.617  11.264 -0.4002  0.6110 -0.3449
 7423TIP3    H146464   0.687   2.556  11.302 -0.1325  0.0957 -0.7107
 7423TIP3    H246465   0.806   2.643  11.338  0.5214 -0.8779 -0.4754
 7424TIP3   OH246466   5.991   2.947  13.638 -0.2077 -0.0562  0.1377
 7424TIP3    H146467   6.040   2.939  13.720 -2.2922  0.6072  1.5130
 7424TIP3    H246468   6.005   3.037  13.610  0.4523 -0.2654 -0.2375
 7425TIP3   OH246469   5.323   3.381  11.643  0.0199  0.7373  0.3460
 7425TIP3    H146470   5.241   3.404  11.689  0.1988  2.3764 -0.0953
 7425TIP3    H246471   5.372   3.329  11.707 -1.9336 -1.5139  0.1354
 7426TIP3   OH246472   0.375   2.669  11.716  0.2863 -0.5656  0.8681
 7426TIP3    H146473   0.280   2.656  11.725 -0.2495 -0.2183 -2.8119
 7426TIP3    H246474   0.394   2.744  11.771 -1.5074 -0.7593  1.8499
 7427TIP3   OH246475   0.144   3.995  11.181  0.4200 -0.0576  0.7307
 7427TIP3    H146476   0.175   3.909  11.151 -1.9991 -0.8002  0.1524
 7427TIP3    H246477   0.052   3.998  11.154  0.5884  2.9897  0.2022
 7428TIP3   OH246478   3.654   0.264  10.625 -0.0842 -0.6975  0.2215
 7428TIP3    H146479   3.698   0.287  10.543  0.4449 -0.0120  0.6965
 7428TIP3    H246480   3.721   0.221  10.678 -0.0978 -0.0580  0.7697
 7429TIP3   OH246481   3.684   0.472  11.134 -0.3606  0.4446  0.3473
 7429TIP3    H146482   3.636   0.389  11.133  0.9336 -0.3309  0.0483
 7429TIP3    H246483   3.650   0.519  11.211  1.1875 -1.8011  2.5503
 7430TIP3   OH246484   2.192   4.735  11.665  0.1453  0.2544  0.5924
 7430TIP3    H146485   2.243   4.709  11.742 -1.6491 -1.3375  1.3246
 7430TIP3    H246486   2.122   4.670  11.659 -0.7862  1.3297 -1.3984
 7431TIP3   OH246487   3.163   5.466  12.737 -0.3946  0.2333 -0.2350
 7431TIP3    H146488   3.206   5.380  12.739 -1.5522 -0.4547 -2.4431
 7431TIP3    H246489   3.113   5.469  12.819  0.2767 -0.8628  0.2398
 7432TIP3   OH246490   3.402   5.259  11.058  0.0884 -0.4155  0.1343
 7432TIP3    H146491   3.383   5.349  11.083  0.3611 -0.6060  1.0880
 7432TIP3    H246492   3.364   5.206  11.128  1.1861 -0.9601  0.3489
 7433TIP3   OH246493   3.098   2.293  12.295  0.4183 -0.2962  0.0551
 7433TIP3    H146494   3.022   2.334  12.254  2.0782  2.6018 -0.4176
 7433TIP3    H246495   3.098   2.204  12.261 -2.7851 -0.4874  0.1957
 7434TIP3   OH246496   7.414   0.816  11.425 -0.4128  0.0272 -0.0922
 7434TIP3    H146497   7.452   0.739  11.382 -0.4401  0.2775 -0.5705
 7434TIP3    H246498   7.417   0.884  11.358 -1.2471  0.1919  0.0337
 7435TIP3   OH246499   3.208   6.367  12.290 -0.3134 -0.0423 -0.5243
 7435TIP3    H146500   3.289   6.417  12.291 -0.7936  0.7580 -0.6509
 7435TIP3    H246501   3.213   6.312  12.368  0.0090  0.5607 -0.1109
 7436TIP3   OH246502   5.452   0.164  12.613 -0.5711 -0.2196 -0.0658
 7436TIP3    H146503   5.415   0.244  12.651 -1.6258  0.1354 -1.7297
 7436TIP3    H246504   5.520   0.137  12.675 -0.8766  1.4072  1.0367
 7437TIP3   OH246505   1.198   1.606  10.502 -0.1496  0.5809  0.4354
 7437TIP3    H146506   1.152   1.600  10.586 -1.5141  1.9848 -0.1728
 7437TIP3    H246507   1.193   1.698  10.479  3.2698  0.9199  0.4534
 7438TIP3   OH246508   1.106   0.010  10.748  0.2147 -0.7696 -0.0776
 7438TIP3    H146509   1.189   0.029  10.704  0.4646 -0.7935  0.3721
 7438TIP3    H246510   1.039   0.041  10.687  0.5930  1.7711  0.6710
 7439TIP3   OH246511   1.836   4.502  10.852 -0.3162  0.5278  0.0179
 7439TIP3    H146512   1.743   4.480  10.853  0.1799 -1.8607  0.8486
 7439TIP3    H246513   1.880   4.419  10.833  1.6334  1.7489 -1.1261
 7440TIP3   OH246514   2.939   2.493  12.095  0.1640 -0.3926  0.1629
 7440TIP3    H146515   2.884   2.557  12.140 -0.6234 -1.2569  0.4449
 7440TIP3    H246516   2.944   2.526  12.005  0.8482  0.7517  0.5910
 7441TIP3   OH246517   4.473   3.274  10.440  0.3813  0.6137  0.1733
 7441TIP3    H146518   4.406   3.270  10.507  0.8586 -0.1478  0.6211
 7441TIP3    H246519   4.539   3.334  10.476 -0.5168  2.2006 -0.7181
 7442TIP3   OH246520   3.744   2.413  12.489 -0.2995 -0.4984  0.0491
 7442TIP3    H146521   3.813   2.429  12.424  1.1023 -2.7448  0.8323
 7442TIP3    H246522   3.680   2.359  12.443  0.6880 -2.0810  0.4461
 7443TIP3   OH246523   7.256   6.786  11.229  0.0263  0.5266 -1.0055
 7443TIP3    H146524   7.184   6.773  11.168 -1.0724 -0.6775  0.4777
 7443TIP3    H246525   7.236   6.868  11.274 -0.9878 -0.3207  0.1219
 7444TIP3   OH246526   7.241   2.696  11.813 -0.2025  0.1764  0.0333
 7444TIP3    H146527   7.166   2.722  11.759 -0.1468  1.3944  0.5212
 7444TIP3    H246528   7.243   2.601  11.804 -0.9333  0.2348 -1.1306
 7445TIP3   OH246529   4.549   2.899  11.409  0.1726 -0.0946 -0.0648
 7445TIP3    H146530   4.592   2.984  11.399 -0.3771 -0.0058 -2.0935
 7445TIP3    H246531   4.456   2.919  11.405  0.0457 -0.8304 -1.2073
 7446TIP3   OH246532   5.655   2.091  11.720 -0.7766 -0.6596 -0.0190
 7446TIP3    H146533   5.732   2.148  11.717 -0.7635 -0.6060 -3.6957
 7446TIP3    H246534   5.688   2.008  11.755  0.6821 -0.2679 -0.3827
 7447TIP3   OH246535   6.210   4.584  11.574  0.2383 -0.1352  0.9600
 7447TIP3    H146536   6.245   4.668  11.603  2.0271 -0.7780  0.8334
 7447TIP3    H246537   6.179   4.599  11.485  1.5668  0.1620  0.5283
 7448TIP3   OH246538   5.393   5.361  10.666 -0.1628 -0.0532 -0.6395
 7448TIP3    H146539   5.301   5.358  10.640 -0.0010 -2.9973 -1.2498
 7448TIP3    H246540   5.397   5.310  10.747  0.9283  0.1919 -0.5173
 7449TIP3   OH246541   4.356   0.327  11.101  0.3565  0.5339 -0.5966
 7449TIP3    H146542   4.427   0.341  11.038  1.3991 -1.1789  0.1118
 7449TIP3    H246543   4.347   0.231  11.105 -1.3894  0.6874  0.0189
 7450TIP3   OH246544   6.049   3.211  13.581  0.0727  0.1953  0.0217
 7450TIP3    H146545   6.081   3.285  13.528 -1.8916 -0.8693 -2.9144
 7450TIP3    H246546   5.967   3.243  13.619 -0.0625 -0.0220 -0.0874
 7451TIP3   OH246547   2.776   1.575  10.541 -0.7159 -0.5028 -0.0416
 7451TIP3    H146548   2.838   1.538  10.605  0.9973  0.1623 -1.2569
 7451TIP3    H246549   2.831   1.605  10.469 -2.4508  0.4322 -1.0330
 7452TIP3   OH246550   5.448   6.585  10.776  0.1167 -0.5250 -1.0386
 7452TIP3    H146551   5.461   6.657  10.837 -0.3889 -0.6444 -0.7785
 7452TIP3    H246552   5.355   6.591  10.753  0.7467  0.9265 -3.5674
 7453TIP3   OH246553   0.978   2.105  11.639  0.3279 -0.2710  0.3182
 7453TIP3    H146554   0.991   2.022  11.684 -1.1891 -1.1573 -0.7811
 7453TIP3    H246555   1.066   2.142  11.631  0.7892 -0.6696  2.8049
 7454TIP3   OH246556   4.285   3.940  11.555  0.4598 -0.1735  0.2880
 7454TIP3    H146557   4.234   3.876  11.604 -0.0150  0.8015  1.1224
 7454TIP3    H246558   4.227   3.969  11.484 -0.3352  1.1691  1.4234
 7455TIP3   OH246559   2.906   1.790  11.510  0.0029  0.2318  0.3421
 7455TIP3    H146560   2.874   1.857  11.570 -1.9511  0.4325 -0.8298
 7455TIP3    H246561   2.874   1.708  11.547  1.0087  0.0709  0.9056
 7456TIP3   OH246562   5.504   7.310  12.342  0.3594 -0.1325 -0.0193
 7456TIP3    H146563   5.479   7.238  12.285  2.4916 -1.0703  0.1115
 7456TIP3    H246564   5.447   7.301  12.419  1.6275 -2.7634  0.7389
 7457TIP3   OH246565   2.536   3.332  10.304 -0.1698 -0.0246 -0.3921
 7457TIP3    H146566   2.561   3.249  10.263  0.8881 -0.8045  1.7267
 7457TIP3    H246567   2.612   3.357  10.356 -1.8091  0.3764  1.9324
 7458TIP3   OH246568   3.316   2.756  11.336  0.6087  0.0433  0.3826
 7458TIP3    H146569   3.368   2.676  11.335 -2.0097 -1.8212  0.5600
 7458TIP3    H246570   3.303   2.777  11.244  0.2698 -0.5200  0.2940
 7459TIP3   OH246571   4.885   4.546  12.292 -0.0726  0.3831  0.2334
 7459TIP3    H146572   4.978   4.541  12.269  0.0585 -0.0040  0.8198
 7459TIP3    H246573   4.853   4.456  12.280 -1.2914  1.1381 -3.6162
 7460TIP3   OH246574   2.500   1.027  10.593  0.0832  0.0337 -0.0081
 7460TIP3    H146575   2.586   0.994  10.621  0.7076 -1.0956 -2.8483
 7460TIP3    H246576   2.494   1.114  10.631  2.4166  0.0430  0.4880
 7461TIP3   OH246577   7.321   3.331  10.617  0.0679  0.0515  0.2191
 7461TIP3    H146578   7.341   3.239  10.598 -0.5002 -0.1195  0.4354
 7461TIP3    H246579   7.228   3.340  10.595 -0.7663 -0.2680  3.1944
 7462TIP3   OH246580   6.549   2.996  12.056  0.2134 -0.6663  0.3605
 7462TIP3    H146581   6.466   2.950  12.067  0.4873 -1.6220 -1.2604
 7462TIP3    H246582   6.527   3.071  12.000  0.3531 -0.6330  0.3510
 7463TIP3   OH246583   2.510   3.070  11.314 -0.0978  0.2662 -0.0678
 7463TIP3    H146584   2.545   3.016  11.243 -0.8218  0.8061 -0.8634
 7463TIP3    H246585   2.490   3.154  11.272 -0.7401  0.5236  0.7267
 7464TIP3   OH246586   2.514   3.302  10.687  0.1574 -0.0861  0.1521
 7464TIP3    H146587   2.567   3.241  10.636  0.4420  1.2110 -1.1754
 7464TIP3    H246588   2.577   3.363  10.725 -0.3070  1.1855 -1.0505
 7465TIP3   OH246589   6.972   4.764  11.339  0.3746 -0.0376 -0.0559
 7465TIP3    H146590   7.055   4.716  11.341 -0.1022 -0.8796 -0.2766
 7465TIP3    H246591   6.931   4.745  11.423 -0.2724 -0.8478 -0.5434
 7466TIP3   OH246592   4.583   4.453  13.330  0.6901  0.6344 -0.2833
 7466TIP3    H146593   4.653   4.388  13.339  0.6619  0.5148 -0.8677
 7466TIP3    H246594   4.595   4.488  13.242 -1.4280 -1.0932 -1.3451
 7467TIP3   OH246595   3.617   6.963  12.190  0.2250  0.5390  0.1107
 7467TIP3    H146596   3.639   6.908  12.265 -1.0032  0.2114  0.2587
 7467TIP3    H246597   3.558   6.909  12.137 -1.6117  1.9371  0.6337
 7468TIP3   OH246598   0.261   5.911  13.812  0.4418 -0.1604 -0.2210
 7468TIP3    H146599   0.233   5.821  13.794  4.0819 -1.6271  0.4525
 7468TIP3    H246600   0.276   5.950  13.726  0.1187 -0.6670 -0.5090
 7469TIP3   OH246601   1.315   6.936  10.622  0.4179  0.5814 -0.3973
 7469TIP3    H146602   1.370   6.988  10.679  3.0659  0.7520 -2.8786
 7469TIP3    H246603   1.310   6.986  10.540 -2.7623  0.1259 -0.6258
 7470TIP3   OH246604   1.835   7.515  11.219  0.0947 -0.2705  0.3547
 7470TIP3    H146605   1.813   7.557  11.302 -0.8216 -2.0142  1.0458
 7470TIP3    H246606   1.754   7.519  11.168  0.7558  1.1350 -0.6538
 7471TIP3   OH246607   0.600   5.344  11.391  0.0951 -0.1461  0.1545
 7471TIP3    H146608   0.520   5.291  11.387  0.6139 -1.0210  0.8538
 7471TIP3    H246609   0.631   5.334  11.481  1.5945 -0.7630 -0.3894
 7472TIP3   OH246610   5.550   1.652  12.037 -0.1434  0.4788 -0.2283
 7472TIP3    H146611   5.605   1.605  11.974 -0.1770  0.7181 -0.4375
 7472TIP3    H246612   5.554   1.599  12.116 -0.6028 -0.1639 -0.6214
 7473TIP3   OH246613   1.943   6.129  12.848 -0.1578 -0.3185  0.2605
 7473TIP3    H146614   1.939   6.220  12.878  0.6369  0.0002 -0.5548
 7473TIP3    H246615   2.036   6.110  12.839 -0.3310 -0.8990 -0.4911
 7474TIP3   OH246616   0.062   4.394  11.018  0.6214 -0.4023  0.6065
 7474TIP3    H146617  -0.025   4.364  10.990  0.8931  0.1580 -0.9105
 7474TIP3    H246618   0.045   4.446  11.097 -0.7939  1.8327 -1.0267
 7475TIP3   OH246619   1.746   7.418  10.565 -0.1740  0.1947  0.1132
 7475TIP3    H146620   1.697   7.363  10.625 -0.4112  0.0428 -0.2188
 7475TIP3    H246621   1.689   7.494  10.551  0.4498  0.8742  1.1243
 7476TIP3   OH246622   1.654   1.709  11.289 -0.5028 -0.0500 -0.3470
 7476TIP3    H146623   1.575   1.663  11.261 -1.7986  1.9854 -0.2884
 7476TIP3    H246624   1.725   1.666  11.241 -1.6182 -1.9628 -0.3844
 7477TIP3   OH246625   7.568   6.389  10.878  0.0547 -0.2058 -0.0172
 7477TIP3    H146626   7.599   6.400  10.788  0.7800 -0.6127  0.1738
 7477TIP3    H246627   7.616   6.312  10.910  0.8909  0.7696  1.1800
 7478TIP3   OH246628   2.129   1.915  13.028  0.2460 -0.1425 -0.0456
 7478TIP3    H146629   2.136   1.832  12.980  1.0256 -0.2230  0.1849
 7478TIP3    H246630   2.144   1.891  13.119 -4.8518 -0.6152  0.9451
 7479TIP3   OH246631   2.850   0.054  17.842  0.0090 -0.0406  0.5658
 7479TIP3    H146632   2.800   0.073  17.763  0.6624  1.0791  0.4004
 7479TIP3    H246633   2.791   0.075  17.914  0.2880  1.4763  0.3766
 7480TIP3   OH246634   1.382   4.173  10.919  0.4742 -0.5472  0.4423
 7480TIP3    H146635   1.379   4.213  11.006  0.1103 -1.6926  0.9652
 7480TIP3    H246636   1.306   4.210  10.873  1.4655  1.1769  0.0759
 7481TIP3   OH246637   0.747   2.960  11.015 -0.3817 -0.3356 -0.3116
 7481TIP3    H146638   0.813   2.915  10.962 -0.8494 -2.0641  0.4886
 7481TIP3    H246639   0.668   2.960  10.961 -0.5696 -1.1377 -0.0498
 7482TIP3   OH246640   4.801   0.479  13.026 -0.3708  0.1046  0.1554
 7482TIP3    H146641   4.839   0.393  13.013  0.6337  0.3575  1.2911
 7482TIP3    H246642   4.853   0.537  12.969 -0.7767  0.0379 -0.2910
 7483TIP3   OH246643   4.810   1.675  11.029 -0.3982  0.3288 -0.1186
 7483TIP3    H146644   4.799   1.710  11.117 -0.6266  0.8893 -0.3697
 7483TIP3    H246645   4.776   1.743  10.971 -0.4620 -0.1322 -0.6302
 7484TIP3   OH246646   2.125   6.977  11.312  0.5295  0.5875  0.3647
 7484TIP3    H146647   2.185   6.919  11.265 -1.3479 -1.7125  0.5729
 7484TIP3    H246648   2.078   6.918  11.371 -3.7687  1.5806 -1.6391
 7485TIP3   OH246649   3.286   2.418  13.273 -0.2507 -0.1193  0.8594
 7485TIP3    H146650   3.206   2.451  13.232  0.3780  0.0570 -0.2588
 7485TIP3    H246651   3.308   2.484  13.339  0.4456  1.2552 -0.6797
 7486TIP3   OH246652   6.458   2.970  11.661  0.6990 -0.0703  0.2567
 7486TIP3    H146653   6.504   2.965  11.745  1.4529  1.5095 -0.0271
 7486TIP3    H246654   6.509   2.916  11.602  1.5902  0.7760  0.2259
 7487TIP3   OH246655   0.367   5.516  12.047  0.3431 -0.6408 -0.4240
 7487TIP3    H146656   0.418   5.461  12.107  0.0249 -1.2936 -0.7394
 7487TIP3    H246657   0.356   5.599  12.093 -1.3552 -1.6832  1.1611
 7488TIP3   OH246658   3.048   6.076  13.018 -0.3039 -0.0878  0.0392
 7488TIP3    H146659   3.074   6.140  12.951  1.5900 -0.1742  0.6106
 7488TIP3    H246660   3.131   6.044  13.053 -1.1988 -2.4277  0.2164
 7489TIP3   OH246661   1.042   7.524  11.612  0.3319 -0.1869 -0.6912
 7489TIP3    H146662   1.079   7.439  11.589  0.2402  0.2089 -2.4015
 7489TIP3    H246663   0.951   7.520  11.582 -0.0418  0.0846  0.3560
 7490TIP3   OH246664   5.627   7.609  11.497 -0.3586  0.0751 -0.7562
 7490TIP3    H146665   5.597   7.686  11.545 -0.7693  0.2237 -1.2421
 7490TIP3    H246666   5.548   7.557  11.482  0.2089 -1.5469  1.4636
 7491TIP3   OH246667   2.688   5.034  11.263 -0.2047 -0.1666 -0.0611
 7491TIP3    H146668   2.724   5.047  11.175  0.3399 -0.0494  0.1723
 7491TIP3    H246669   2.605   4.988  11.249  0.0053 -0.3828 -0.6165
 7492TIP3   OH246670   3.507   2.830  10.808 -0.1913  0.3556 -0.4400
 7492TIP3    H146671   3.421   2.796  10.784 -0.0727  0.8821 -1.6979
 7492TIP3    H246672   3.552   2.841  10.725  1.8219 -1.7249  0.2954
 7493TIP3   OH246673   3.672   3.189  11.589  0.0207  0.0442  0.1861
 7493TIP3    H146674   3.667   3.168  11.496  0.4823 -0.4057  0.2617
 7493TIP3    H246675   3.757   3.232  11.601  0.7130 -1.4128  0.6877
 7494TIP3   OH246676   1.780   7.613  11.477  0.1577 -0.3929 -0.3543
 7494TIP3    H146677   1.809   7.546  11.539  1.4629 -0.0295 -0.5486
 7494TIP3    H246678   1.701   7.650  11.516  0.8574 -0.2904  0.9956
 7495TIP3   OH246679   7.526   3.127  11.706  0.1976  0.4928  0.2600
 7495TIP3    H146680   7.534   3.159  11.616  0.3571  0.5031  0.2778
 7495TIP3    H246681   7.483   3.042  11.698 -0.9860  1.0712  0.2750
 7496TIP3   OH246682   3.334   6.680  10.887 -0.9407 -0.1064 -0.0609
 7496TIP3    H146683   3.411   6.679  10.944 -1.1201 -1.4058  0.1926
 7496TIP3    H246684   3.351   6.610  10.823 -0.8934  1.1028 -1.4128
 7497TIP3   OH246685   5.624   4.610  12.861 -0.0024  0.3980 -0.7222
 7497TIP3    H146686   5.543   4.657  12.839 -1.0219 -0.3000  1.3293
 7497TIP3    H246687   5.680   4.677  12.902 -1.4777 -0.0435  2.2566
 7498TIP3   OH246688   3.096   5.040  12.985 -0.1082 -0.5532  0.0086
 7498TIP3    H146689   3.177   5.027  12.936 -0.1952  0.1677 -0.3426
 7498TIP3    H246690   3.046   4.960  12.971  0.3489 -0.8135 -0.1520
 7499TIP3   OH246691   4.688   5.547  11.779  0.3338  0.3170  0.0173
 7499TIP3    H146692   4.604   5.527  11.738 -0.6978  1.7074  1.3381
 7499TIP3    H246693   4.748   5.480  11.745 -0.9723  0.0820 -1.9671
 7500TIP3   OH246694   6.082   1.022  12.285 -0.8929  0.1926 -0.0651
 7500TIP3    H146695   6.138   0.947  12.308  0.8303  1.5350  0.4007
 7500TIP3    H246696   5.996   0.984  12.269  0.0503 -1.9539 -0.4488
 7501TIP3   OH246697   2.971   5.588  12.041  0.3565  0.6534 -0.4908
 7501TIP3    H146698   3.015   5.639  11.973 -0.9916  1.4526 -0.7941
 7501TIP3    H246699   2.982   5.639  12.121 -0.0919  0.8928 -0.5831
 7502TIP3   OH246700   0.812   1.302  11.330  0.1478 -0.0523 -0.2640
 7502TIP3    H146701   0.776   1.387  11.308 -0.4533 -0.2818 -0.1796
 7502TIP3    H246702   0.884   1.321  11.390  1.2790  0.5297 -1.7413
 7503TIP3   OH246703   4.547   0.998  12.188  1.1779  0.0271 -0.4824
 7503TIP3    H146704   4.573   0.980  12.279 -2.1879 -0.3130  0.5599
 7503TIP3    H246705   4.590   0.929  12.137  2.5331 -0.2414  0.9496
 7504TIP3   OH246706   7.481   3.212  11.420  0.2095  0.4948 -0.7108
 7504TIP3    H146707   7.526   3.251  11.345  0.7088 -0.3093 -0.8424
 7504TIP3    H246708   7.441   3.133  11.385 -0.9240  0.9541 -0.4834
 7505TIP3   OH246709   6.450   6.272  11.822  0.0277  0.2803 -0.0608
 7505TIP3    H146710   6.449   6.199  11.884  1.4917  0.6117  0.3929
 7505TIP3    H246711   6.363   6.272  11.783 -0.2059 -1.3035  0.4032
 7506TIP3   OH246712   2.741   2.672  12.570 -0.4283  0.7355 -0.4814
 7506TIP3    H146713   2.798   2.705  12.639 -0.0508 -0.2870 -0.2974
 7506TIP3    H246714   2.661   2.723  12.579  0.9369  3.2787 -1.6788
 7507TIP3   OH246715   1.577   0.303  11.429 -0.0948 -0.2236  0.1275
 7507TIP3    H146716   1.571   0.208  11.434  0.2335 -0.2040  3.9315
 7507TIP3    H246717   1.539   0.325  11.344 -1.0984 -3.6531 -0.4700
 7508TIP3   OH246718   0.864   2.274  10.649 -0.0545  0.5663  0.2107
 7508TIP3    H146719   0.870   2.193  10.700  0.8690  0.8879  0.6346
 7508TIP3    H246720   0.895   2.342  10.708 -0.5416  1.1966 -0.2445
 7509TIP3   OH246721   3.095   0.031  12.324  0.4047 -0.1191 -0.2918
 7509TIP3    H146722   3.133   0.048  12.238  1.5652 -1.4033 -0.0788
 7509TIP3    H246723   3.163   0.060  12.386 -0.4525  0.8765  0.2176
 7510TIP3   OH246724   6.322   2.851  12.113  0.5711  0.2067 -0.1030
 7510TIP3    H146725   6.348   2.761  12.092  2.2837  0.4797  0.7092
 7510TIP3    H246726   6.283   2.845  12.200  0.0470  0.1539 -0.3386
 7511TIP3   OH246727   1.651   5.093  11.517  0.2569  0.1236 -0.2747
 7511TIP3    H146728   1.618   5.183  11.510 -2.0387 -0.5462  1.0546
 7511TIP3    H246729   1.579   5.038  11.489  2.0590 -1.3646 -2.3610
 7512TIP3   OH246730   1.321   6.680  11.815 -0.6042 -0.2878 -0.0993
 7512TIP3    H146731   1.259   6.742  11.778 -0.6924 -0.4357 -0.1974
 7512TIP3    H246732   1.272   6.632  11.881 -0.5364 -0.2555 -0.0248
 7513TIP3   OH246733   0.062   5.117  12.645 -1.0689 -0.3059  0.4012
 7513TIP3    H146734   0.108   5.192  12.606 -0.3034 -0.7614  0.4088
 7513TIP3    H246735   0.047   5.058  12.572 -1.6806 -0.1469  0.3942
 7514TIP3   OH246736   3.586   0.389  11.981  0.6635  0.1599  0.1157
 7514TIP3    H146737   3.594   0.371  12.075 -1.7735 -2.6335 -0.0590
 7514TIP3    H246738   3.507   0.442  11.973  1.0759  0.7165 -0.3674
 7515TIP3   OH246739   2.834   2.561  10.557  0.1595  0.1180  0.2567
 7515TIP3    H146740   2.796   2.646  10.578  0.4430 -0.3629  3.1268
 7515TIP3    H246741   2.821   2.552  10.462  1.5408  4.0025 -0.4865
 7516TIP3   OH246742   3.566   7.563  11.743 -0.2563  0.8886  0.4267
 7516TIP3    H146743   3.623   7.512  11.685 -0.3843  1.7140 -0.4400
 7516TIP3    H246744   3.491   7.587  11.689 -0.8962  0.7787  1.2401
 7517TIP3   OH246745   5.454   7.208  10.768 -0.4439  0.7825 -0.0093
 7517TIP3    H146746   5.526   7.243  10.820 -0.0613  0.3714 -0.2639
 7517TIP3    H246747   5.391   7.175  10.833  0.2728 -0.2202  0.1857
 7518TIP3   OH246748   2.001   2.191  10.866  0.1031 -0.3082  0.1073
 7518TIP3    H146749   1.965   2.244  10.794 -0.1216 -1.2569 -0.4893
 7518TIP3    H246750   2.059   2.251  10.912  1.6046 -0.1319 -1.8808
 7519TIP3   OH246751   2.885   2.933  11.135  0.0372  0.1970  0.4095
 7519TIP3    H146752   2.965   2.954  11.183  0.6610  1.2005 -0.9857
 7519TIP3    H246753   2.903   2.848  11.095  0.9657  0.9677 -0.9195
 7520TIP3   OH246754   4.197   4.966  10.916  0.2534  0.4579  0.4150
 7520TIP3    H146755   4.227   5.049  10.954  0.4175  0.7484 -0.3384
 7520TIP3    H246756   4.131   4.992  10.852  0.6876  0.0349 -0.2065
 7521TIP3   OH246757   2.857   7.369  10.981  0.0657  0.0645 -0.0933
 7521TIP3    H146758   2.835   7.377  11.073 -1.0056  0.9633 -0.4040
 7521TIP3    H246759   2.787   7.316  10.943 -0.4244  1.0717 -0.6694
 7522TIP3   OH246760   7.581   6.694  12.911 -0.0112 -0.6149  0.6998
 7522TIP3    H146761   7.564   6.621  12.852  0.2892 -1.0364  1.1199
 7522TIP3    H246762   7.677   6.695  12.920  0.0455  0.3164  0.1000
 7523TIP3   OH246763   2.148   2.792  10.436  0.0191  0.2582  0.5307
 7523TIP3    H146764   2.159   2.882  10.466  1.7785 -0.0802  1.0233
 7523TIP3    H246765   2.208   2.783  10.362  1.4616 -1.0283  1.7623
 7524TIP3   OH246766   7.235   4.878  10.994 -0.5828  0.0117  0.0387
 7524TIP3    H146767   7.178   4.861  10.919 -0.3543  0.4983 -0.2506
 7524TIP3    H246768   7.321   4.893  10.956 -0.0107 -1.7864  0.5384
 7525TIP3   OH246769   0.059   2.796  12.476  0.2513  0.2896 -0.1435
 7525TIP3    H146770   0.083   2.705  12.458 -1.1170 -0.1062 -0.1122
 7525TIP3    H246771   0.010   2.792  12.559 -2.4274  0.5534 -1.5970
 7526TIP3   OH246772   0.121   2.324  12.865 -0.0721 -0.0428 -0.0755
 7526TIP3    H146773   0.083   2.412  12.862 -2.1468 -0.7447  2.4707
 7526TIP3    H246774   0.061   2.270  12.813  0.1738 -0.3096 -0.0858
 7527TIP3   OH246775   4.960   0.216  12.021  0.1447  0.6891 -0.1035
 7527TIP3    H146776   4.953   0.283  11.952 -0.4098  0.6483 -0.0896
 7527TIP3    H246777   5.016   0.148  11.983  0.2393  0.8914 -0.3309
 7528TIP3   OH246778   7.185   0.416  12.814  0.2467 -0.2803  0.3869
 7528TIP3    H146779   7.160   0.372  12.733 -1.3831 -1.0383  1.2625
 7528TIP3    H246780   7.182   0.510  12.792  0.8701 -0.4969 -0.6917
 7529TIP3   OH246781   5.822   6.623  10.664  0.1576  0.3265 -0.5215
 7529TIP3    H146782   5.824   6.583  10.751  0.0562  0.7694 -0.3122
 7529TIP3    H246783   5.911   6.613  10.631  0.2599  0.3755 -0.2645
 7530TIP3   OH246784   4.498   5.838  10.624  0.5625  0.6265 -0.6132
 7530TIP3    H146785   4.547   5.827  10.706  1.3290 -0.3652 -1.1876
 7530TIP3    H246786   4.565   5.853  10.558 -0.0242  0.8902 -1.1548
 7531TIP3   OH246787   3.036   4.578  12.097  0.4527 -0.6283 -0.0205
 7531TIP3    H146788   3.015   4.514  12.165 -0.1358 -1.2106 -0.7309
 7531TIP3    H246789   3.110   4.628  12.133 -1.1283  0.4671  1.9006
 7532TIP3   OH246790   3.676   3.857  10.500 -0.3496  0.2603 -0.4115
 7532TIP3    H146791   3.677   3.765  10.528  0.9072  0.6568  0.9950
 7532TIP3    H246792   3.745   3.863  10.434  0.5043  0.4345  0.4674
 7533TIP3   OH246793   1.212   7.440  11.228 -0.1941  0.7171  0.1298
 7533TIP3    H146794   1.158   7.465  11.152 -1.1486  2.4351  1.2990
 7533TIP3    H246795   1.246   7.524  11.260 -0.0808  0.0583  1.7800
 7534TIP3   OH246796   3.076   4.673  12.575  0.2473  0.0239 -0.0305
 7534TIP3    H146797   3.098   4.597  12.521  0.1362  0.5096 -0.7707
 7534TIP3    H246798   3.039   4.635  12.655  1.4687 -0.7375  0.1968
 7535TIP3   OH246799   2.768   2.603  11.878 -0.2394  0.4818  0.2046
 7535TIP3    H146800   2.765   2.698  11.871  0.5320  0.5179  0.1958
 7535TIP3    H246801   2.856   2.580  11.848 -0.4010 -0.2283  0.2580
 7536TIP3   OH246802   5.240   4.011  11.832  0.4400 -0.0432 -0.1843
 7536TIP3    H146803   5.273   4.100  11.830  2.0559 -0.5954  0.3910
 7536TIP3    H246804   5.181   4.008  11.908  1.0655  0.3202  0.3234
 7537TIP3   OH246805   4.594   7.199  12.220 -0.2365  0.1861  0.7061
 7537TIP3    H146806   4.685   7.199  12.190 -1.0832 -0.7200 -2.1638
 7537TIP3    H246807   4.565   7.108  12.209 -2.4324  1.0688 -1.8307
 7538TIP3   OH246808   0.265   3.090  11.718  0.2037  0.1330  0.1228
 7538TIP3    H146809   0.235   3.178  11.698 -0.4224 -0.4920 -1.9663
 7538TIP3    H246810   0.203   3.058  11.784 -0.1184  0.9297  0.2195
 7539TIP3   OH246811   1.097   2.205  12.483 -0.5822  0.3143 -0.3765
 7539TIP3    H146812   1.176   2.220  12.431 -1.1403  2.3081 -0.7415
 7539TIP3    H246813   1.035   2.272  12.452 -1.6917  0.1413  1.3449
 7540TIP3   OH246814   2.712   0.173  10.757  0.1881  0.1425  0.1443
 7540TIP3    H146815   2.704   0.080  10.778  1.3696  0.3765  1.8475
 7540TIP3    H246816   2.626   0.209  10.776  0.0272 -0.4159  0.5050
 7541TIP3   OH246817   2.429   6.616  11.443 -0.3900 -0.1544 -0.5337
 7541TIP3    H146818   2.336   6.618  11.464 -0.4020  0.6228 -0.6417
 7541TIP3    H246819   2.452   6.707  11.423  0.6520 -0.1243  0.6317
 7542TIP3   OH246820   0.524   6.430  10.710  0.0516 -0.4682  0.4535
 7542TIP3    H146821   0.434   6.398  10.721 -0.2295  0.8137  2.0862
 7542TIP3    H246822   0.515   6.512  10.662  0.4273 -0.6777  0.0111
 7543TIP3   OH246823   1.351   3.183  11.452  0.1536 -0.3312 -0.0304
 7543TIP3    H146824   1.399   3.192  11.370 -0.1424 -0.5987 -0.2344
 7543TIP3    H246825   1.419   3.163  11.517  0.1360 -2.8863 -0.6829
 7544TIP3   OH246826   3.697   3.022  11.820  0.1679  0.0104 -0.0169
 7544TIP3    H146827   3.692   3.061  11.907 -0.6283 -0.3040  0.0918
 7544TIP3    H246828   3.691   3.095  11.760  1.2189  0.2790  0.1836
 7545TIP3   OH246829   3.076   2.183  12.549 -0.4334 -0.2167 -0.1650
 7545TIP3    H146830   3.091   2.234  12.470  0.0984  1.0456  0.7159
 7545TIP3    H246831   2.982   2.165  12.550 -0.3264 -0.9602 -1.4787
 7546TIP3   OH246832   3.417   0.396  11.544  0.1784 -0.2583  0.2829
 7546TIP3    H146833   3.334   0.410  11.498  1.0636  1.6429 -0.8488
 7546TIP3    H246834   3.474   0.355  11.479  0.3975 -0.7631  0.7833
 7547TIP3   OH246835   4.673   4.919  10.615  0.0103  0.3060  0.2760
 7547TIP3    H146836   4.661   4.993  10.554 -0.3677 -0.4123 -0.5365
 7547TIP3    H246837   4.593   4.918  10.667 -0.9209 -0.8128 -1.1325
 7548TIP3   OH246838   7.031   6.410  12.163 -0.2442  0.6644  0.0318
 7548TIP3    H146839   6.969   6.455  12.107 -1.9110 -1.2923  0.1879
 7548TIP3    H246840   7.071   6.344  12.107  0.1129  0.4924  0.4774
 7549TIP3   OH246841   6.737   2.675  11.899 -0.0158 -0.2569 -0.5128
 7549TIP3    H146842   6.652   2.710  11.873  0.5252  0.3679 -1.4715
 7549TIP3    H246843   6.798   2.706  11.833  1.2271  0.4860  0.9056
 7550TIP3   OH246844   0.349   6.321  12.690  0.0749 -0.3379 -0.0423
 7550TIP3    H146845   0.392   6.369  12.620  1.8458 -1.6775  0.0518
 7550TIP3    H246846   0.282   6.381  12.723  1.4303  1.5965 -0.6438
 7551TIP3   OH246847   4.374   7.456  11.152  0.5382 -0.0750  0.2682
 7551TIP3    H146848   4.365   7.401  11.074  1.7123 -0.3121  0.2853
 7551TIP3    H246849   4.319   7.413  11.218  1.6647 -1.4344  0.3736
 7552TIP3   OH246850   1.748   2.159  11.278  0.4613  0.7224 -0.1568
 7552TIP3    H146851   1.755   2.095  11.349 -1.9871  1.5022  0.9126
 7552TIP3    H246852   1.655   2.160  11.256  1.2151 -0.2129 -4.1782
 7553TIP3   OH246853   6.759   0.316  11.041 -0.4120 -0.1275  0.2639
 7553TIP3    H146854   6.804   0.380  11.097 -2.5348  0.6105  1.2198
 7553TIP3    H246855   6.686   0.364  11.004  0.0871 -1.0408 -2.0241
 7554TIP3   OH246856   6.099   6.513  10.632  0.4747 -0.4984  0.1155
 7554TIP3    H146857   6.188   6.492  10.661  1.3911  1.8851 -0.6511
 7554TIP3    H246858   6.110   6.591  10.576 -1.9753 -0.8135 -0.9502
 7555TIP3   OH246859   5.816   2.873  10.573 -0.1187  0.4320 -0.3704
 7555TIP3    H146860   5.723   2.896  10.566 -0.3522  0.0372  0.9954
 7555TIP3    H246861   5.815   2.779  10.593  0.5863  0.3796 -0.5856
 7556TIP3   OH246862   2.231   4.970  10.854 -0.3860  0.1760  0.3325
 7556TIP3    H146863   2.308   5.026  10.863 -0.4161  0.4978 -1.1747
 7556TIP3    H246864   2.205   4.980  10.763 -0.1557 -2.6370 -0.1027
 7557TIP3   OH246865   4.590   7.118  11.288  0.5891 -1.0844 -0.1907
 7557TIP3    H146866   4.617   7.210  11.284 -0.5576 -0.7137  0.1163
 7557TIP3    H246867   4.579   7.100  11.381 -3.6212 -0.0792 -0.2531
 7558TIP3   OH246868   6.119   2.265  10.482 -0.4665 -0.3638 -0.2008
 7558TIP3    H146869   6.200   2.262  10.532  0.4800  1.1497 -1.5444
 7558TIP3    H246870   6.060   2.320  10.535  0.1021  0.2039 -0.1400
 7559TIP3   OH246871   1.413   2.129  10.975  0.0413 -0.2271  0.2354
 7559TIP3    H146872   1.445   2.180  10.901  1.8751  0.0017  1.0970
 7559TIP3    H246873   1.341   2.181  11.011 -0.8361 -0.3181 -1.3106
 7560TIP3   OH246874   2.063   2.208  13.480  0.2589 -0.0339  0.7889
 7560TIP3    H146875   2.022   2.293  13.464 -1.4195 -1.0695 -0.8330
 7560TIP3    H246876   2.137   2.206  13.419  0.6682  0.4919  1.2618
 7561TIP3   OH246877   7.142   2.423  11.371  0.4872 -0.2864 -0.4677
 7561TIP3    H146878   7.161   2.505  11.416  0.5828 -1.1632  1.1695
 7561TIP3    H246879   7.112   2.449  11.284 -1.6593  1.5837  0.7365
 7562TIP3   OH246880   2.592   1.638  10.762 -0.1503  0.8851  0.7431
 7562TIP3    H146881   2.637   1.603  10.839  0.4813 -0.6376 -0.2876
 7562TIP3    H246882   2.657   1.635  10.692 -1.3477  0.1316 -0.3943
 7563TIP3   OH246883   7.664   2.606  12.859 -0.2639  0.5390  0.1106
 7563TIP3    H146884   7.673   2.692  12.818 -1.0906  1.8534  2.4946
 7563TIP3    H246885   7.624   2.624  12.944  0.0164 -2.1740  0.9099
 7564TIP3   OH246886   2.061   5.445  12.289  0.0348 -0.0007 -0.0835
 7564TIP3    H146887   2.146   5.470  12.326 -0.3605  0.8379  0.3037
 7564TIP3    H246888   2.035   5.368  12.338 -0.3231  0.8978  1.2022
 7565TIP3   OH246889   0.968   3.368  11.842  0.2502  0.5040 -0.4927
 7565TIP3    H146890   0.959   3.369  11.937 -0.8791  1.3810 -0.5826
 7565TIP3    H246891   1.061   3.384  11.825  0.4714  0.2374  0.4572
 7566TIP3   OH246892   2.423   0.017  12.601  0.3887 -0.1877 -0.0455
 7566TIP3    H146893   2.411   0.089  12.663 -1.4380 -1.3050  0.9916
 7566TIP3    H246894   2.496  -0.034  12.636  1.4886  0.9532 -0.6193
 7567TIP3   OH246895   4.448   2.404  11.850 -0.5230 -0.0764 -0.0569
 7567TIP3    H146896   4.424   2.480  11.796 -2.1935  0.3610  1.2159
 7567TIP3    H246897   4.489   2.442  11.927 -1.2602 -0.4603  0.5324
 7568TIP3   OH246898   6.198   3.131  12.357  0.5029 -0.7000  0.0911
 7568TIP3    H146899   6.133   3.093  12.298  0.6407 -0.4634 -0.2149
 7568TIP3    H246900   6.147   3.165  12.430  0.3611 -1.3243  0.2913
 7569TIP3   OH246901   1.994   1.724  11.945  0.4115  0.4248 -0.5953
 7569TIP3    H146902   1.932   1.670  11.994 -1.3727  0.5582 -2.5792
 7569TIP3    H246903   2.015   1.672  11.867  1.7888  0.9475 -0.5963
 7570TIP3   OH246904   3.728   4.605  11.903  0.2256  0.3391  0.6971
 7570TIP3    H146905   3.725   4.700  11.912  0.2499  0.4845 -0.7145
 7570TIP3    H246906   3.822   4.583  11.903  0.2150  0.2794  1.2960
 7571TIP3   OH246907   0.706   6.026  11.902  0.1589 -0.7355  0.2445
 7571TIP3    H146908   0.764   6.086  11.948  1.8650 -1.3877 -0.9267
 7571TIP3    H246909   0.655   6.082  11.843  2.5045 -0.4053 -1.6509
 7572TIP3   OH246910   1.131   4.316  11.950 -0.1852  0.1845  0.7351
 7572TIP3    H146911   1.153   4.375  11.878 -1.9423  0.4256  0.3469
 7572TIP3    H246912   1.153   4.229  11.917 -2.5578  0.0902 -0.8476
 7573TIP3   OH246913   0.768   1.863  11.901  0.0964 -0.0168  0.1308
 7573TIP3    H146914   0.705   1.931  11.876  0.7381  1.6441  2.6486
 7573TIP3    H246915   0.720   1.781  11.892 -1.4326  0.9421 -0.8658
 7574TIP3   OH246916   2.932   5.273  11.725  0.4941 -0.1049  0.0333
 7574TIP3    H146917   2.979   5.192  11.742  1.4911  0.4718  0.1415
 7574TIP3    H246918   2.952   5.329  11.800  0.7577  0.6325 -0.5644
 7575TIP3   OH246919   6.990   4.729  12.885 -0.4077 -0.4361  0.3044
 7575TIP3    H146920   7.063   4.669  12.898  1.0672  0.9613 -1.1088
 7575TIP3    H246921   7.024   4.815  12.908 -1.4959  0.3027 -0.6855
 7576TIP3   OH246922   0.139   3.230  12.364  0.2496 -0.2481 -0.4291
 7576TIP3    H146923   0.166   3.143  12.334 -0.0658 -0.6148  0.3199
 7576TIP3    H246924   0.052   3.243  12.327  0.1664 -0.3875 -0.2833
 7577TIP3   OH246925   3.060   3.056  12.889  0.6037 -0.1097 -0.1427
 7577TIP3    H146926   3.038   2.974  12.935 -0.3555  0.0849 -0.2418
 7577TIP3    H246927   3.155   3.066  12.902  0.6602 -1.0212  0.2186
 7578TIP3   OH246928   1.961   6.477  11.368  0.1894  0.0964 -0.8461
 7578TIP3    H146929   2.012   6.435  11.299  0.4780  1.3036 -1.3996
 7578TIP3    H246930   1.880   6.427  11.373  0.5926 -0.6191 -1.3544
 7579TIP3   OH246931   5.230   6.416  12.297  0.3785  0.0757 -0.0833
 7579TIP3    H146932   5.310   6.365  12.283 -0.2278 -0.9415  0.1016
 7579TIP3    H246933   5.260   6.497  12.337  1.0720 -1.6061  3.1237
 7580TIP3   OH246934   0.191   3.400  10.743  0.1127  0.0339  0.3060
 7580TIP3    H146935   0.191   3.319  10.691  3.1724  1.2997 -1.9369
 7580TIP3    H246936   0.207   3.371  10.832 -2.0790 -1.9931  0.1404
 7581TIP3   OH246937   0.537   3.344  13.086  0.4972  0.2984  0.5865
 7581TIP3    H146938   0.515   3.251  13.086 -0.4382  0.4957 -0.4456
 7581TIP3    H246939   0.615   3.350  13.032  0.0603  0.2068 -0.0632
 7582TIP3   OH246940   4.886   0.105  11.746  0.0577 -0.1418 -0.1903
 7582TIP3    H146941   4.982   0.109  11.745  0.0085  1.9221  0.2441
 7582TIP3    H246942   4.858   0.171  11.683 -1.1118 -1.1549 -0.7861
 7583TIP3   OH246943   2.125   3.652  12.699 -0.1638  0.2097 -0.3041
 7583TIP3    H146944   2.139   3.562  12.669  2.1622  0.1126  0.8382
 7583TIP3    H246945   2.208   3.696  12.681 -0.6169  1.6118  0.8728
 7584TIP3   OH246946   6.488   4.305  13.596 -0.6026 -0.0485 -0.5526
 7584TIP3    H146947   6.468   4.224  13.641  0.1712 -0.5106 -1.0243
 7584TIP3    H246948   6.578   4.295  13.566 -0.3473  1.1529 -0.2589
 7585TIP3   OH246949   2.386   2.299   9.989  0.1317  0.3039 -0.3222
 7585TIP3    H146950   2.318   2.259   9.935  0.2030 -0.8357  0.4150
 7585TIP3    H246951   2.358   2.283  10.079  0.9759  0.5326 -0.0104
 7586TIP3   OH246952   2.024   2.269  12.208  0.0675  0.0733  0.6201
 7586TIP3    H146953   1.953   2.236  12.262  2.0277  0.1670  3.4777
 7586TIP3    H246954   1.995   2.357  12.182 -1.4687 -0.4745  0.3663
 7587TIP3   OH246955   3.038   6.673  11.353  0.0135  0.4999  0.2030
 7587TIP3    H146956   2.983   6.741  11.314  0.9135  0.7443 -0.6761
 7587TIP3    H246957   2.986   6.593  11.346  0.2490  0.4860 -1.7563
 7588TIP3   OH246958   7.309   0.330  12.542 -0.1878 -0.3035 -0.1591
 7588TIP3    H146959   7.378   0.266  12.556 -1.3701 -1.3735  1.0100
 7588TIP3    H246960   7.228   0.280  12.549 -1.1481  1.3186  0.8649
 7589TIP3   OH246961   1.025   7.073  10.738 -0.0532  0.4194 -0.8784
 7589TIP3    H146962   1.118   7.069  10.760 -0.0746  0.5780 -0.7632
 7589TIP3    H246963   1.010   7.164  10.714 -0.2163  0.4271 -0.7412
 7590TIP3   OH246964   0.647   1.313  10.777  0.0431  0.0943  0.3575
 7590TIP3    H146965   0.630   1.295  10.869 -1.3192 -0.3805  0.0438
 7590TIP3    H246966   0.712   1.249  10.751 -2.1787 -2.2230  0.1422
 7591TIP3   OH246967   3.291   6.705  12.306  0.5584  0.3015  0.7098
 7591TIP3    H146968   3.311   6.708  12.399 -0.6908  0.0131  1.0126
 7591TIP3    H246969   3.229   6.776  12.292  0.9008  0.4802  0.0475
 7592TIP3   OH246970   1.665   1.334  11.466  0.1484  0.0914 -0.1515
 7592TIP3    H146971   1.731   1.403  11.460 -0.2338  0.5237  0.5834
 7592TIP3    H246972   1.591   1.374  11.510  0.8291 -1.4143  2.6025
 7593TIP3   OH246973   5.376   7.573  10.470  0.1369 -0.1999 -0.5200
 7593TIP3    H146974   5.377   7.627  10.392  2.3969  1.4030  0.5240
 7593TIP3    H246975   5.462   7.532  10.473  0.2549  0.0694  1.3016
 7594TIP3   OH246976   3.029   5.315  12.085  0.2614 -0.4354 -0.1369
 7594TIP3    H146977   3.014   5.406  12.059  1.4325 -0.8595 -2.5747
 7594TIP3    H246978   3.098   5.285  12.027 -2.9225 -4.1246 -2.4606
 7595TIP3   OH246979   4.757   3.979  11.607  0.4574 -0.1677  0.1245
 7595TIP3    H146980   4.722   3.899  11.568  2.7106  0.4049 -3.6425
 7595TIP3    H246981   4.682   4.038  11.614 -0.9498 -1.9860  1.5462
 7596TIP3   OH246982   7.201   0.529  11.376 -0.1352 -0.0251  0.0597
 7596TIP3    H146983   7.254   0.542  11.455 -0.4714  0.7056  0.1747
 7596TIP3    H246984   7.113   0.512  11.408 -0.3509  0.6392 -0.1481
 7597TIP3   OH246985   0.561   3.935  10.635 -0.3645  0.4106 -0.5378
 7597TIP3    H146986   0.520   3.903  10.556 -0.6273 -0.3346 -0.1052
 7597TIP3    H246987   0.496   3.922  10.704  0.6473 -1.0607  0.2148
 7598TIP3   OH246988   7.417   4.444  12.959  0.7199 -0.2604 -0.3327
 7598TIP3    H146989   7.468   4.372  12.996 -0.1279 -0.9554 -0.4942
 7598TIP3    H246990   7.330   4.435  12.997 -0.0053 -0.6404 -1.9913
 7599TIP3   OH246991   6.089   4.581  11.325  0.7835  0.5715  0.2052
 7599TIP3    H146992   6.012   4.584  11.267  1.0078  2.0107 -0.0607
 7599TIP3    H246993   6.163   4.599  11.267  1.5027 -1.8819  0.2516
 7600TIP3   OH246994   4.467   5.136  12.271  0.6049 -0.4577 -0.2846
 7600TIP3    H146995   4.440   5.173  12.187 -0.2109 -0.4847 -0.0420
 7600TIP3    H246996   4.524   5.203  12.310 -0.8439  0.5726  0.1437
 7601TIP3   OH246997   6.459   2.076  12.355 -0.2381  0.0785 -0.2158
 7601TIP3    H146998   6.423   2.056  12.441  0.7120 -2.6916 -0.3799
 7601TIP3    H246999   6.420   2.010  12.297  0.7024  0.6210 -1.5104
 7602TIP3   OH247000   0.978   2.390  10.430  0.2046 -0.6614 -0.1506
 7602TIP3    H147001   0.928   2.335  10.490  0.5177  0.2929  1.0167
 7602TIP3    H247002   0.913   2.425  10.370 -0.0205 -2.1581 -0.8336
 7603TIP3   OH247003   0.602   7.576  11.115 -0.0184 -0.4574 -0.2474
 7603TIP3    H147004   0.655   7.655  11.123  0.3886 -0.8592  1.5337
 7603TIP3    H247005   0.513   7.608  11.097  0.3993  0.3191 -0.9882
 7604TIP3   OH247006   2.954   2.769  12.701  0.1056 -0.7782  0.4599
 7604TIP3    H147007   3.033   2.803  12.658 -1.4609 -0.0340 -2.0382
 7604TIP3    H247008   2.963   2.795  12.792  2.9528 -1.1544  0.3592
 7605TIP3   OH247009   2.583   7.246  11.058 -0.2317  0.4204 -0.1232
 7605TIP3    H147010   2.622   7.257  11.145 -0.6147 -1.1034  0.2782
 7605TIP3    H247011   2.489   7.239  11.075 -0.2100 -1.0918 -0.5056
 7606TIP3   OH247012   3.962   0.080  11.325  0.4110  0.2427 -0.4453
 7606TIP3    H147013   3.889   0.087  11.386  0.0948  1.4401 -0.9358
 7606TIP3    H247014   3.991  -0.011  11.332  0.3590  0.3461  1.4391
 7607TIP3   OH247015   5.727   5.446  12.537 -0.4529  0.1074 -0.2627
 7607TIP3    H147016   5.673   5.511  12.491 -0.8932 -1.4409 -2.0539
 7607TIP3    H247017   5.667   5.407  12.601 -0.0012  1.8583  1.3233
 7608TIP3   OH247018   3.260   3.892  12.895 -0.1287  0.5844  0.0293
 7608TIP3    H147019   3.307   3.896  12.812  0.0662  0.0161  0.1087
 7608TIP3    H247020   3.321   3.850  12.955 -0.5683  0.2695  0.2578
 7609TIP3   OH247021   7.207   3.516  12.411 -0.1186  0.2212 -0.0511
 7609TIP3    H147022   7.263   3.578  12.457  0.6748 -1.2170  0.9987
 7609TIP3    H247023   7.146   3.485  12.478  0.0982 -0.8004 -0.3086
 7610TIP3   OH247024   1.344   3.208  10.526 -0.3677  0.2572 -0.3260
 7610TIP3    H147025   1.431   3.174  10.506 -0.0336  1.0536 -0.2385
 7610TIP3    H247026   1.299   3.134  10.568 -0.2335 -0.6125 -1.6588
 7611TIP3   OH247027   3.237   0.741  12.250 -0.1615 -0.3393  0.0355
 7611TIP3    H147028   3.276   0.788  12.324  0.9569 -0.0029 -0.7412
 7611TIP3    H247029   3.177   0.678  12.290 -3.5827  3.2121  1.0937
 7612TIP3   OH247030   6.163   4.571  10.566 -0.0288 -0.0373  0.5887
 7612TIP3    H147031   6.212   4.490  10.548 -0.6044 -0.4460  0.8214
 7612TIP3    H247032   6.131   4.560  10.656  1.2428  1.1607  1.2344
 7613TIP3   OH247033   1.367   1.463  12.001  0.2776 -0.7306  0.3348
 7613TIP3    H147034   1.328   1.378  12.023 -0.7838 -0.8842 -1.8591
 7613TIP3    H247035   1.296   1.512  11.961  1.5449  0.1893 -0.8865
 7614TIP3   OH247036   5.576   5.168  11.141  0.0560  0.0927 -0.0563
 7614TIP3    H147037   5.560   5.231  11.211  2.3259  0.6984 -0.0176
 7614TIP3    H247038   5.593   5.086  11.186  1.0454  0.3750  0.1006
 7615TIP3   OH247039   3.911   4.251  12.046 -0.1440  0.0828  0.3656
 7615TIP3    H147040   3.915   4.258  12.141  1.6835  0.3940  0.3050
 7615TIP3    H247041   3.891   4.340  12.017  0.4305  0.2341  0.4251
 7616TIP3   OH247042   6.755   1.694  13.078 -0.1888 -0.0134  0.2366
 7616TIP3    H147043   6.790   1.685  12.989 -0.7207  0.4351 -0.0255
 7616TIP3    H247044   6.660   1.695  13.066 -0.2604  0.1137  0.8031
 7617TIP3   OH247045   1.436   3.165  10.948 -0.0050 -0.1497  0.2507
 7617TIP3    H147046   1.348   3.147  10.916  0.2945  1.4132 -1.6262
 7617TIP3    H247047   1.482   3.081  10.939 -1.3368 -1.0761  1.5674
 7618TIP3   OH247048   2.530   4.278  12.862  0.4091 -0.1094 -0.7814
 7618TIP3    H147049   2.447   4.270  12.908  0.6363 -1.6529 -0.5880
 7618TIP3    H247050   2.587   4.325  12.922  0.1566 -0.5050 -0.2299
 7619TIP3   OH247051   0.148   6.173  12.615 -0.1746  0.1173 -0.3445
 7619TIP3    H147052   0.128   6.119  12.692  1.1888 -1.2358 -0.9000
 7619TIP3    H247053   0.232   6.215  12.637  0.1694 -0.1949 -1.0268
 7620TIP3   OH247054   5.158   1.989  10.333  0.1321  0.3918  0.4723
 7620TIP3    H147055   5.093   1.984  10.263  0.7557  1.1095 -0.1754
 7620TIP3    H247056   5.135   1.917  10.392  0.7602 -1.5125 -1.4749
 7621TIP3   OH247057   5.306   7.628  12.520 -0.2890 -0.6350  0.2463
 7621TIP3    H147058   5.372   7.563  12.540 -0.0278 -0.0741  1.2609
 7621TIP3    H247059   5.350   7.712  12.532 -1.1594 -0.2505  0.9286
 7622TIP3   OH247060   0.648   2.499  12.020 -0.3174 -0.2400  0.1717
 7622TIP3    H147061   0.664   2.409  12.048  1.1368  0.0055  0.2358
 7622TIP3    H247062   0.598   2.491  11.939 -0.4379 -1.0907  0.3216
 7623TIP3   OH247063   2.167   5.658  12.642  0.1397  0.5340 -0.1323
 7623TIP3    H147064   2.169   5.574  12.596 -0.0086  0.8486 -0.7306
 7623TIP3    H247065   2.257   5.671  12.673  0.0243 -0.1286  0.4994
 7624TIP3   OH247066   1.481   2.179  11.293  0.2482  0.7255  0.5885
 7624TIP3    H147067   1.444   2.109  11.239  0.3665  1.4490 -0.4783
 7624TIP3    H247068   1.428   2.179  11.372  0.8282 -1.1548  1.0337
 7625TIP3   OH247069   1.255   3.663  11.969 -0.0347 -0.4510 -0.0289
 7625TIP3    H147070   1.225   3.693  12.054 -0.4687 -1.1447  0.0661
 7625TIP3    H247071   1.218   3.726  11.907  0.8035  0.4260  0.3305
 7626TIP3   OH247072   2.677   5.241  11.428 -0.3440 -0.7820 -0.1036
 7626TIP3    H147073   2.751   5.296  11.400 -0.6169 -0.1124  0.4547
 7626TIP3    H247074   2.665   5.178  11.357 -0.5457  0.3927 -1.1317
 7627TIP3   OH247075   4.639   2.954  12.111  0.6088 -0.0134 -0.2986
 7627TIP3    H147076   4.580   3.006  12.165 -2.2899 -0.5778 -2.6198
 7627TIP3    H247077   4.713   3.012  12.093  0.6834  0.8760  2.4513
 7628TIP3   OH247078   0.200   6.082  11.716  0.2980  0.1637 -0.2780
 7628TIP3    H147079   0.281   6.034  11.701  0.5995 -0.5829  3.0394
 7628TIP3    H247080   0.131   6.021  11.690  0.7069  0.1340 -1.3903
 7629TIP3   OH247081   4.270   5.092  12.443  0.5285  0.0083  0.0874
 7629TIP3    H147082   4.346   5.107  12.386  0.4900 -0.5779 -0.1263
 7629TIP3    H247083   4.281   5.002  12.474  0.9482  0.5531  1.6075
 7630TIP3   OH247084   6.418   2.603  12.066 -0.3100  0.6359 -0.1941
 7630TIP3    H147085   6.401   2.510  12.076 -2.1216  0.8314 -1.1270
 7630TIP3    H247086   6.386   2.624  11.978  0.1375  2.1222 -0.0302
 7631TIP3   OH247087   7.536   4.327  11.686  0.5525  0.1103 -0.0818
 7631TIP3    H147088   7.590   4.259  11.726  0.3113  0.2023  0.4026
 7631TIP3    H247089   7.596   4.401  11.673  0.9877 -0.4270 -1.2548
 7632TIP3   OH247090   6.947   4.993  11.567 -0.2223 -0.1566  0.0527
 7632TIP3    H147091   6.925   5.014  11.476  0.1048 -0.2856 -0.0587
 7632TIP3    H247092   6.940   4.898  11.572 -1.7880 -0.0424  0.5841
 7633TIP3   OH247093   2.255   1.244  12.473  0.0141 -0.4730 -0.4702
 7633TIP3    H147094   2.204   1.198  12.406  0.4336 -1.9487  0.2070
 7633TIP3    H247095   2.236   1.198  12.554  0.7340  0.3401  0.1772
 7634TIP3   OH247096   2.393   5.366  12.939  0.4968 -0.2380 -0.2432
 7634TIP3    H147097   2.403   5.327  13.026  0.9437 -0.6631 -0.4811
 7634TIP3    H247098   2.432   5.303  12.879  0.4731  0.1933 -0.7261
 7635TIP3   OH247099   1.513   3.386  11.657 -0.0748 -0.1558 -0.2739
 7635TIP3    H147100   1.546   3.427  11.737 -3.2853  1.9289  0.1696
 7635TIP3    H247101   1.583   3.400  11.593  0.9466  1.7577  1.1465
 7636TIP3   OH247102   0.422   4.179  11.734  0.1558 -0.2677 -0.3599
 7636TIP3    H147103   0.485   4.249  11.716 -0.0668  0.9062  2.8208
 7636TIP3    H247104   0.477   4.103  11.755  0.4138 -0.4113 -1.4653
 7637TIP3   OH247105   7.408   2.047  13.117 -0.5238 -0.1183 -0.4080
 7637TIP3    H147106   7.366   2.077  13.197 -0.3583 -3.2600  1.0199
 7637TIP3    H247107   7.336   2.013  13.064 -0.3627 -0.4802 -0.3963
 7638TIP3   OH247108   0.716   1.021  11.316  0.2796  0.1603 -0.5555
 7638TIP3    H147109   0.750   1.110  11.319  1.7796 -0.3683 -0.6440
 7638TIP3    H247110   0.621   1.031  11.315  0.4121  1.7911 -1.6490
 7639TIP3   OH247111   1.538   1.271  12.440  0.8133 -0.0653  0.5085
 7639TIP3    H147112   1.604   1.203  12.456  1.5214  0.6220  0.5710
 7639TIP3    H247113   1.566   1.313  12.359  1.2034  1.1040  1.2331
 7640TIP3   OH247114   1.984   3.944  10.942 -0.2452 -0.0740 -0.2700
 7640TIP3    H147115   1.951   3.991  11.019  2.0452  0.6688  0.3646
 7640TIP3    H247116   1.962   3.853  10.959  1.5675 -0.1881  2.1760
 7641TIP3   OH247117   4.371   5.827  12.914  0.1081 -0.2573  0.1978
 7641TIP3    H147118   4.402   5.808  12.826 -0.6277 -0.7743  0.0343
 7641TIP3    H247119   4.449   5.850  12.963  0.6798 -1.1262 -0.2899
 7642TIP3   OH247120   0.674   6.342  11.153 -0.3344 -0.5609 -0.4345
 7642TIP3    H147121   0.732   6.342  11.230  0.2443  1.1756 -0.8316
 7642TIP3    H247122   0.611   6.272  11.171  1.3620 -1.9462  0.3997
 7643TIP3   OH247123   5.979   5.759  12.736 -0.0793 -0.1357  0.7734
 7643TIP3    H147124   5.981   5.744  12.830  0.8193  1.5280  1.0565
 7643TIP3    H247125   6.027   5.841  12.723 -2.6390  1.2820 -0.8102
 7644TIP3   OH247126   7.527   6.877  10.505  0.0872  0.0472 -0.3604
 7644TIP3    H147127   7.449   6.847  10.552  0.2698 -1.0165 -0.7161
 7644TIP3    H247128   7.538   6.968  10.533 -0.8030 -0.0415  0.3231
 7645TIP3   OH247129   6.449   4.079  12.835  0.0562  0.2731 -0.2676
 7645TIP3    H147130   6.408   4.042  12.913 -0.5515 -0.3732 -0.8791
 7645TIP3    H247131   6.534   4.037  12.829  0.6232  1.2226  0.7092
 7646TIP3   OH247132   2.758   1.060  11.739  0.0384  0.4254 -0.0919
 7646TIP3    H147133   2.668   1.071  11.708  0.2655 -0.4667 -1.1297
 7646TIP3    H247134   2.808   1.127  11.693  0.0300  0.4452 -0.0724
 7647TIP3   OH247135   0.188   5.497  11.839 -0.6071  0.3106 -0.5544
 7647TIP3    H147136   0.249   5.535  11.902  0.4333  1.6048 -2.2594
 7647TIP3    H247137   0.106   5.545  11.852 -0.2793  0.8468 -0.4492
 7648TIP3   OH247138   4.117   1.989  10.171 -0.1482 -0.0780 -0.0232
 7648TIP3    H147139   4.160   1.905  10.156 -1.8650 -0.8883 -0.6772
 7648TIP3    H247140   4.133   2.008  10.264  0.1675 -1.1798  0.1621
 7649TIP3   OH247141   7.356   3.654  11.126  0.1347 -0.1517  0.4743
 7649TIP3    H147142   7.350   3.575  11.180 -2.0433 -0.8910 -0.7594
 7649TIP3    H247143   7.297   3.716  11.168 -0.8983 -0.4298 -0.5310
 7650TIP3   OH247144   6.316   2.276  10.273  0.0388 -0.2687  0.0231
 7650TIP3    H147145   6.251   2.297  10.340 -1.7058  0.1778 -1.7366
 7650TIP3    H247146   6.317   2.352  10.215  2.1088 -0.3017 -0.0401
 7651TIP3   OH247147   5.338   1.744  11.641  0.0250 -0.7260  0.6955
 7651TIP3    H147148   5.307   1.729  11.552  0.0884 -0.3312  0.6017
 7651TIP3    H247149   5.433   1.752  11.632 -0.0443  0.2231  0.6563
 7652TIP3   OH247150   3.694   3.526  11.011  0.5298  0.5713 -0.1482
 7652TIP3    H147151   3.602   3.538  11.032 -0.0005 -0.5834 -1.6237
 7652TIP3    H247152   3.711   3.586  10.939  0.5413 -0.1767 -0.7874
 7653TIP3   OH247153   2.230   1.368  10.913  0.1077 -0.0790 -0.0709
 7653TIP3    H147154   2.205   1.394  11.002  1.1214  1.2372 -0.1359
 7653TIP3    H247155   2.284   1.290  10.925 -2.3511 -1.8600  0.1944
 7654TIP3   OH247156   4.679   0.647  11.381  0.2545  0.1045 -0.3054
 7654TIP3    H147157   4.691   0.730  11.334  2.1490  0.2307  0.3220
 7654TIP3    H247158   4.697   0.580  11.315  0.9778  0.2483 -0.2644
 7655TIP3   OH247159   4.027   6.200  13.050  0.0840 -0.2795  0.1475
 7655TIP3    H147160   3.996   6.182  12.961  1.9240  2.0299 -1.1158
 7655TIP3    H247161   3.952   6.239  13.094 -0.3290  0.4603 -1.1265
 7656TIP3   OH247162   3.675   6.844  11.109  0.1345 -0.9019 -0.5883
 7656TIP3    H147163   3.674   6.778  11.039 -1.0880 -1.7070  0.1270
 7656TIP3    H247164   3.682   6.792  11.190  1.3749 -0.0021 -0.0866
 7657TIP3   OH247165   4.939   3.690  10.930 -0.2922 -0.0754  0.1267
 7657TIP3    H147166   4.919   3.771  10.977  1.2680  0.3384  0.1427
 7657TIP3    H247167   5.034   3.685  10.931 -0.3422 -1.6457 -0.3533
 7658TIP3   OH247168   0.706   4.533  12.700  0.3040 -0.5415 -0.1713
 7658TIP3    H147169   0.783   4.575  12.737  1.2505 -1.3664 -1.1124
 7658TIP3    H247170   0.741   4.460  12.648 -1.1015 -0.8573 -0.7379
 7659TIP3   OH247171   3.045   2.971  12.034  0.0714  0.3177 -0.1923
 7659TIP3    H147172   3.127   2.925  12.017 -0.7867 -1.0358 -0.8490
 7659TIP3    H247173   3.047   3.046  11.974  1.2464  0.8652  0.5027
 7660TIP3   OH247174   4.826   3.543  11.407  0.1143 -0.4435  0.0174
 7660TIP3    H147175   4.887   3.578  11.342  0.1212  0.8590  0.6800
 7660TIP3    H247176   4.744   3.532  11.360  0.2392  0.0651 -0.3263
 7661TIP3   OH247177   4.884   1.701  10.271 -0.1701  0.8515 -0.3372
 7661TIP3    H147178   4.895   1.796  10.273  1.6408  0.6734  1.2517
 7661TIP3    H247179   4.878   1.675  10.363 -0.2685 -0.6006 -0.7261
 7662TIP3   OH247180   0.836   6.488  13.102  0.5230  0.4648  0.1918
 7662TIP3    H147181   0.920   6.444  13.115  0.1071 -0.5802 -0.4043
 7662TIP3    H247182   0.846   6.534  13.019  1.0718  1.8032  0.9845
 7663TIP3   OH247183   2.783   5.931  11.851 -0.1873  0.2649  0.1635
 7663TIP3    H147184   2.774   5.836  11.838 -0.6669  0.4302 -0.7766
 7663TIP3    H247185   2.877   5.944  11.862 -0.1430 -0.3483  0.6145
 7664TIP3   OH247186   3.616   4.621  12.160 -0.1512 -0.0561  0.7592
 7664TIP3    H147187   3.545   4.670  12.118  0.9834  0.8193 -0.2162
 7664TIP3    H247188   3.681   4.609  12.090  1.3411  0.5261  1.9835
 7665TIP3   OH247189   5.555   1.949  11.516 -0.2765 -0.1896 -0.0192
 7665TIP3    H147190   5.562   2.023  11.576 -0.6155  2.3669 -2.8879
 7665TIP3    H247191   5.629   1.893  11.539 -1.2246 -0.2387  3.6704
 7666TIP3   OH247192   4.868   7.564  11.232  0.4056 -0.1518 -0.2357
 7666TIP3    H147193   4.864   7.619  11.311  0.5175  1.1258 -1.0906
 7666TIP3    H247194   4.802   7.497  11.247 -0.3900  0.7514  0.4498
 7667TIP3   OH247195   4.111   1.380  10.892  0.2162  0.2571 -0.5110
 7667TIP3    H147196   4.051   1.378  10.966 -0.7528  0.3686 -1.2733
 7667TIP3    H247197   4.180   1.317  10.915 -0.4701 -0.2700  0.1502
 7668TIP3   OH247198   2.888   3.511  12.201 -0.1494 -0.3804 -0.0429
 7668TIP3    H147199   2.834   3.450  12.251 -0.8084 -0.8498 -1.2756
 7668TIP3    H247200   2.968   3.462  12.183 -0.2738 -0.5389 -0.1814
 7669TIP3   OH247201   1.149   3.027  11.334 -0.2523  0.9051  0.0061
 7669TIP3    H147202   1.062   3.068  11.331 -0.6916  0.1372  1.5351
 7669TIP3    H247203   1.205   3.092  11.376 -0.9444  0.0503  2.4110
 7670TIP3   OH247204   1.625   2.048  10.608 -0.3901  0.1586  0.1610
 7670TIP3    H147205   1.720   2.048  10.598 -0.4232 -1.8054 -0.7636
 7670TIP3    H247206   1.600   1.956  10.593 -2.4630  0.7055 -0.0321
 7671TIP3   OH247207   6.687   7.077  10.534 -0.4310  0.2877  0.0655
 7671TIP3    H147208   6.676   6.989  10.497 -0.2175  0.5951 -0.7476
 7671TIP3    H247209   6.781   7.086  10.547 -0.1485  1.2430 -2.0793
 7672TIP3   OH247210   6.540   4.314  12.511 -0.5925  0.0403  0.5722
 7672TIP3    H147211   6.523   4.223  12.531  0.7915  0.1334  2.4807
 7672TIP3    H247212   6.571   4.314  12.420  1.1510 -1.6590  1.1072
 7673TIP3   OH247213   2.554   4.221  10.619  0.6253  0.7306 -0.3544
 7673TIP3    H147214   2.485   4.154  10.614 -0.2039  1.5296  0.0029
 7673TIP3    H247215   2.593   4.220  10.531 -1.4557  1.8864 -1.3764
 7674TIP3   OH247216   4.823   1.493  12.626 -0.5779  0.2983 -0.3053
 7674TIP3    H147217   4.899   1.463  12.575 -1.6136 -1.0352 -1.1298
 7674TIP3    H247218   4.789   1.413  12.667 -2.6356  0.4878 -1.4872
 7675TIP3   OH247219   3.294   0.957  12.075 -0.3659 -0.3618 -0.5938
 7675TIP3    H147220   3.369   0.992  12.026  0.0755 -1.0361 -0.4060
 7675TIP3    H247221   3.330   0.885  12.126 -0.6492  0.8482  1.3996
 7676TIP3   OH247222   0.705   6.762  10.912 -0.5304  0.4030  0.1738
 7676TIP3    H147223   0.744   6.696  10.969  0.9376  0.8711 -0.2484
 7676TIP3    H247224   0.779   6.810  10.876 -1.5706  2.7545  0.9972
 7677TIP3   OH247225   3.788   4.884  12.852  0.5376  0.4480  0.5997
 7677TIP3    H147226   3.871   4.844  12.878 -0.5853 -1.7620  1.0214
 7677TIP3    H247227   3.721   4.824  12.884 -1.2235  1.8076 -0.3343
 7678TIP3   OH247228   6.383   5.376  11.893 -0.4723  0.7860  0.2032
 7678TIP3    H147229   6.368   5.470  11.891  1.2515  1.1536  1.5130
 7678TIP3    H247230   6.471   5.365  11.858  0.0823 -0.1059  1.7588
 7679TIP3   OH247231   5.572   0.376  12.137  0.3176 -0.5113 -0.8430
 7679TIP3    H147232   5.575   0.328  12.220  2.5399  1.0049  0.0392
 7679TIP3    H247233   5.599   0.465  12.159 -1.5896  0.6569 -2.7865
 7680TIP3   OH247234   3.156   3.524  11.856 -0.2317  0.2836  0.8396
 7680TIP3    H147235   3.157   3.615  11.825 -0.7846 -0.0115 -0.0900
 7680TIP3    H247236   3.065   3.507  11.877 -0.6021 -0.7997 -1.3673
 7681TIP3   OH247237   2.020   6.255  12.466 -0.1413  0.5018 -0.2193
 7681TIP3    H147238   2.072   6.211  12.534  0.1194  1.1240 -0.0081
 7681TIP3    H247239   1.958   6.308  12.515  0.0765  0.9860 -0.4650
 7682TIP3   OH247240   2.684   0.858  10.710  0.1740 -0.2808 -0.6042
 7682TIP3    H147241   2.623   0.792  10.743 -0.1908  0.2533 -0.1945
 7682TIP3    H247242   2.766   0.810  10.696 -0.4352 -1.0844 -1.5269
 7683TIP3   OH247243   1.801   5.374  13.221 -0.0317 -0.3599  0.1818
 7683TIP3    H147244   1.710   5.374  13.250  0.1442  0.4542  0.7633
 7683TIP3    H247245   1.844   5.438  13.277  0.8135 -0.4367 -0.3647
 7684TIP3   OH247246   4.451   6.211  11.546  0.0289 -0.3313  0.6736
 7684TIP3    H147247   4.501   6.260  11.480  1.8063 -0.2645  2.0056
 7684TIP3    H247248   4.374   6.266  11.563  2.4754  2.7363  2.9358
 7685TIP3   OH247249   2.817   3.800  12.738 -0.3665  0.6307  0.7607
 7685TIP3    H147250   2.880   3.792  12.667 -1.2060  1.0734 -0.0475
 7685TIP3    H247251   2.870   3.826  12.814  0.3777  1.3133  0.0261
 7686TIP3   OH247252   7.160   5.763  11.349  0.8937  0.1664  0.6568
 7686TIP3    H147253   7.191   5.776  11.439  2.6051 -0.7707  0.2431
 7686TIP3    H247254   7.194   5.839  11.301  0.9267  0.1064  0.5844
 7687TIP3   OH247255   6.919   3.129  11.509  0.0707  0.4841  0.1845
 7687TIP3    H147256   6.983   3.136  11.438 -0.0971  0.3968  0.0213
 7687TIP3    H247257   6.965   3.159  11.587  0.7868 -0.9623  0.3497
 7688TIP3   OH247258   6.928   4.431  12.756  0.1985  0.2129 -0.3303
 7688TIP3    H147259   6.902   4.388  12.674 -0.9679  0.4788 -0.1263
 7688TIP3    H247260   7.013   4.471  12.736 -0.1545  0.4463 -1.4836
 7689TIP3   OH247261   6.645   1.862  10.457  0.2310 -0.1548 -0.0512
 7689TIP3    H147262   6.594   1.894  10.382  0.7844 -1.0305 -0.8353
 7689TIP3    H247263   6.615   1.914  10.531 -0.7728  0.3234 -0.7684
 7690TIP3   OH247264   5.628   2.576  12.089 -0.9476 -0.0460  0.4709
 7690TIP3    H147265   5.553   2.626  12.057 -0.0093  0.8500 -0.3581
 7690TIP3    H247266   5.695   2.642  12.107  0.1662 -0.9511 -0.2447
 7691TIP3   OH247267   2.247   1.667  10.996 -0.2544 -0.0647  0.2459
 7691TIP3    H147268   2.183   1.596  10.994  0.8891 -1.1546  0.8914
 7691TIP3    H247269   2.209   1.736  10.942 -1.9992 -0.6445  0.6829
 7692TIP3   OH247270   5.540   0.153  11.661 -0.0071  0.1157 -0.4759
 7692TIP3    H147271   5.530   0.248  11.665 -0.9474  0.0824 -1.4544
 7692TIP3    H247272   5.584   0.129  11.742 -1.6743  1.1466  0.7837
 7693TIP3   OH247273   3.690   5.081  19.338  0.1840  0.6689 -0.2733
 7693TIP3    H147274   3.761   5.019  19.319  0.4157  0.8196  0.1003
 7693TIP3    H247275   3.654   5.052  19.422  0.5740  1.2911  0.1170
 7694TIP3   OH247276   6.967   2.188  11.493  0.3155  0.3967  0.5406
 7694TIP3    H147277   7.008   2.150  11.570  1.9057 -2.8207 -1.6311
 7694TIP3    H247278   7.032   2.249  11.458 -0.0919  1.2777  1.2996
 7695TIP3   OH247279   0.222   5.908  10.444 -0.5290 -0.1382 -0.1558
 7695TIP3    H147280   0.263   5.950  10.368 -0.8528 -0.3073 -0.4240
 7695TIP3    H247281   0.290   5.912  10.512 -0.9275  1.8008  0.1846
 7696TIP3   OH247282   1.088   7.051  12.438 -0.4318 -0.0078  0.0492
 7696TIP3    H147283   1.100   7.005  12.521 -2.6101  1.3823  1.2551
 7696TIP3    H247284   1.012   7.009  12.398  1.4501 -1.6216 -2.0442
 7697TIP3   OH247285   5.035   6.856  11.602 -0.1653  0.5554 -0.0341
 7697TIP3    H147286   5.083   6.849  11.520 -0.7431  1.4271 -0.4649
 7697TIP3    H247287   5.012   6.948  11.609 -2.2950  0.1064 -0.1773
 7698TIP3   OH247288   2.239   1.192  11.410  0.2872  0.8230 -0.5880
 7698TIP3    H147289   2.307   1.188  11.342 -0.2225 -1.1868 -1.0677
 7698TIP3    H247290   2.268   1.260  11.470  2.0568  0.9120 -1.4821
 7699TIP3   OH247291   3.332   6.533  12.514 -0.0936  0.0464 -0.0180
 7699TIP3    H147292   3.352   6.509  12.605 -0.2554  0.7209  0.2042
 7699TIP3    H247293   3.415   6.520  12.467  0.0293 -0.1677  0.2508
 7700TIP3   OH247294   5.623   7.456  10.478  0.1938  0.2386  0.4351
 7700TIP3    H147295   5.613   7.362  10.460 -0.2391  0.4774 -0.6309
 7700TIP3    H247296   5.691   7.461  10.545  2.0071 -0.6838 -1.2641
 7701TIP3   OH247297   7.324   0.535  10.892 -0.0675 -0.0732 -0.0183
 7701TIP3    H147298   7.286   0.616  10.926 -1.5780 -0.3930 -0.8263
 7701TIP3    H247299   7.264   0.466  10.920 -0.1208 -0.6089 -1.3554
 7702TIP3   OH247300   4.560   2.140  12.964  0.1644 -0.0266 -0.6544
 7702TIP3    H147301   4.534   2.227  12.992  0.5291 -0.6615  1.9637
 7702TIP3    H247302   4.559   2.088  13.044  2.5877 -1.7760 -1.6398
 7703TIP3   OH247303   5.960   5.529  10.460 -0.6326 -0.0650  0.0603
 7703TIP3    H147304   5.881   5.477  10.447 -0.6719 -0.4206  1.5618
 7703TIP3    H247305   6.025   5.466  10.491  0.4149  0.1298 -1.5702
 7704TIP3   OH247306   5.126   0.888  11.854 -1.0991  0.0136  0.0885
 7704TIP3    H147307   5.123   0.919  11.763 -0.2497 -0.4612 -0.1088
 7704TIP3    H247308   5.063   0.817  11.857 -2.2947  1.0484  0.2813
 7705TIP3   OH247309   3.174   4.146  10.414 -0.2734  0.2820 -0.5859
 7705TIP3    H147310   3.079   4.136  10.414 -0.1609 -1.1302 -1.5520
 7705TIP3    H247311   3.207   4.056  10.421  0.9871  0.7101 -0.7762
 7706TIP3   OH247312   3.985   3.736  11.889 -0.0266 -0.7130 -0.5303
 7706TIP3    H147313   3.940   3.670  11.942 -0.2132 -0.3974 -0.2887
 7706TIP3    H247314   4.078   3.719  11.900 -0.0822 -1.3329 -0.9797
 7707TIP3   OH247315   4.903   7.370  11.564 -0.2197 -0.3837 -0.2492
 7707TIP3    H147316   4.903   7.434  11.636 -0.2762 -0.0345 -0.5586
 7707TIP3    H247317   4.996   7.363  11.540  0.1735 -2.4045  1.5257
 7708TIP3   OH247318   7.623   0.937  11.968  0.1706 -0.5782  0.6426
 7708TIP3    H147319   7.689   0.887  11.920 -0.0035 -1.5593  1.3949
 7708TIP3    H247320   7.605   1.013  11.912  2.2071 -0.0623  0.5912
 7709TIP3   OH247321   2.680   3.752  11.904  0.3358 -0.0360 -0.1154
 7709TIP3    H147322   2.606   3.702  11.870  0.8249 -0.3688 -0.7021
 7709TIP3    H247323   2.669   3.749  12.000 -0.6296  0.2714 -0.2073
 7710TIP3   OH247324   0.895   1.536  12.835 -0.5188  0.0418  0.4161
 7710TIP3    H147325   0.908   1.627  12.862 -0.7133 -0.0989  1.0142
 7710TIP3    H247326   0.813   1.510  12.877 -0.4800 -0.3970  0.2294
 7711TIP3   OH247327   6.213   1.263  10.577 -0.4917  0.4102 -0.0748
 7711TIP3    H147328   6.309   1.256  10.579 -0.4913 -0.9382 -2.1895
 7711TIP3    H247329   6.183   1.206  10.648  0.2435  0.2892  0.1451
 7712TIP3   OH247330   2.913   6.606  10.589 -0.2857 -0.6320  0.0693
 7712TIP3    H147331   2.971   6.537  10.624 -0.0086  0.2304  1.3627
 7712TIP3    H247332   2.968   6.684  10.588 -1.0448 -0.0989  0.0236
 7713TIP3   OH247333   6.687   2.124  11.670 -0.1045  0.1822  0.6597
 7713TIP3    H147334   6.767   2.133  11.722  1.6576 -1.0612 -1.5865
 7713TIP3    H247335   6.679   2.029  11.655 -0.3349  0.4756 -1.4584
 7714TIP3   OH247336   6.049   0.649  12.590 -0.0324  0.4058 -0.0259
 7714TIP3    H147337   6.107   0.719  12.620  0.9706 -0.2455 -0.3845
 7714TIP3    H247338   6.096   0.607  12.518 -0.9497 -0.1557 -0.3257
 7715TIP3   OH247339   0.580   6.164  10.709  0.6627 -0.0237  0.1921
 7715TIP3    H147340   0.557   6.256  10.722 -1.0598 -0.4566  0.4668
 7715TIP3    H247341   0.675   6.163  10.712  0.6838  1.5043  1.9070
 7716TIP3   OH247342   3.970   1.295  11.760 -0.0359  0.1641  0.3738
 7716TIP3    H147343   3.983   1.385  11.786  2.1511 -0.3559  1.2764
 7716TIP3    H247344   4.035   1.280  11.691  0.4759 -1.0231  1.0767
 7717TIP3   OH247345   5.663   6.975  12.185  0.1486  0.5138 -0.1875
 7717TIP3    H147346   5.679   6.976  12.279 -0.0600  1.1195 -0.1556
 7717TIP3    H247347   5.739   6.930  12.148  0.5255  0.8179  0.2164
 7718TIP3   OH247348   5.800   3.314  13.632  0.0531  0.1435 -0.0461
 7718TIP3    H147349   5.818   3.324  13.538 -0.3039  0.4316 -0.0853
 7718TIP3    H247350   5.720   3.262  13.636 -0.3508  0.7664  0.0821
 7719TIP3   OH247351   5.860   1.405  11.432  0.8795  0.3383  0.2487
 7719TIP3    H147352   5.927   1.345  11.398  0.5283  0.3032 -0.4119
 7719TIP3    H247353   5.909   1.471  11.480  1.3465  0.0362  0.1967
 7720TIP3   OH247354   2.100   4.952  12.431  0.2482  0.2387 -0.5861
 7720TIP3    H147355   2.132   4.910  12.510  0.4590  0.5924 -0.4788
 7720TIP3    H247356   2.175   4.950  12.371  0.3749  0.7610 -0.4564
 7721TIP3   OH247357   0.504   5.724  10.764  0.3048 -0.5570  0.4210
 7721TIP3    H147358   0.563   5.739  10.690  0.3795  0.1195  0.6154
 7721TIP3    H247359   0.419   5.706  10.723  0.6461 -1.6251  0.1394
 7722TIP3   OH247360   3.197   6.893  11.734 -0.2787  0.1107 -0.3395
 7722TIP3    H147361   3.154   6.843  11.803 -1.1742  0.7413 -0.4215
 7722TIP3    H247362   3.286   6.906  11.765 -0.1246 -1.2507 -0.1795
 7723TIP3   OH247363   3.923   3.229  10.933  0.5261  0.3024  0.1494
 7723TIP3    H147364   3.963   3.316  10.929 -1.0407  1.1201  0.9693
 7723TIP3    H247365   3.922   3.198  10.843 -0.2115  1.7944 -0.3865
 7724TIP3   OH247366   3.496   1.098  11.874 -0.0353 -0.0221  0.3261
 7724TIP3    H147367   3.585   1.108  11.841  0.0440 -2.4086 -0.3366
 7724TIP3    H247368   3.496   1.150  11.955  1.2816  1.7423 -0.7157
 7725TIP3   OH247369   1.254   2.153  11.659  0.4984 -0.1249  0.4978
 7725TIP3    H147370   1.275   2.075  11.711  0.6414 -0.3327  0.1308
 7725TIP3    H247371   1.332   2.208  11.668  1.0553 -0.7031 -0.5008
 7726TIP3   OH247372   0.301   6.319  11.904 -0.1594  0.1076  0.3638
 7726TIP3    H147373   0.286   6.278  11.990 -2.0103  1.5853  0.8108
 7726TIP3    H247374   0.309   6.245  11.844 -3.3194 -1.0439  1.1433
 7727TIP3   OH247375   3.725   2.060  13.329 -0.1255 -0.5206  0.1901
 7727TIP3    H147376   3.813   2.054  13.366 -0.2361 -0.6669  0.4331
 7727TIP3    H247377   3.697   2.149  13.347  0.2360 -0.2610 -0.4902
 7728TIP3   OH247378   7.454   4.144  12.483  0.3151 -0.1600 -0.4540
 7728TIP3    H147379   7.367   4.113  12.509  0.6424 -1.1211 -0.4463
 7728TIP3    H247380   7.442   4.179  12.395 -0.5861  2.1086  0.5069
 7729TIP3   OH247381   0.486   5.997  12.746  0.1525  0.2918 -0.3743
 7729TIP3    H147382   0.395   5.970  12.756 -0.6222  1.3151 -3.4821
 7729TIP3    H247383   0.481   6.089  12.720  1.8640 -0.1411 -2.5836
 7730TIP3   OH247384   4.805   0.609  11.630  0.0955 -0.0202  0.0468
 7730TIP3    H147385   4.785   0.615  11.537  0.6194 -1.4208 -0.1781
 7730TIP3    H247386   4.719   0.610  11.673 -0.2205 -0.7722 -0.5507
 7731TIP3   OH247387   3.495   1.179  12.485 -0.1879  0.2210 -0.1401
 7731TIP3    H147388   3.483   1.189  12.391  3.0039 -1.1523 -0.8326
 7731TIP3    H247389   3.570   1.236  12.506 -0.5335  0.1284  1.5006
 7732TIP3   OH247390   7.013   6.022  10.940  0.1071  0.3652 -0.1524
 7732TIP3    H147391   6.974   5.969  10.871  0.5654  1.9274 -1.7197
 7732TIP3    H247392   6.994   6.112  10.914  1.3467  1.0439  1.1327
 7733TIP3   OH247393   4.530   4.672  12.515  0.2090  0.3286  0.4503
 7733TIP3    H147394   4.561   4.762  12.502 -2.3836  1.2839  0.1094
 7733TIP3    H247395   4.601   4.617  12.483  0.9943  2.3034 -1.4970
 7734TIP3   OH247396   7.011   2.661  11.513  0.2130 -0.2661 -0.7756
 7734TIP3    H147397   7.073   2.711  11.460  1.6012 -1.6349 -0.4921
 7734TIP3    H247398   7.009   2.706  11.597  2.3839 -1.3239 -0.1092
 7735TIP3   OH247399   2.339   3.143  11.565 -0.3927 -0.1103  0.5005
 7735TIP3    H147400   2.316   3.134  11.473 -1.2492  0.4942  0.6360
 7735TIP3    H247401   2.254   3.145  11.610  0.0333 -2.2436  1.5032
 7736TIP3   OH247402   1.147   2.707  10.943 -0.1441  0.2315 -0.1323
 7736TIP3    H147403   1.216   2.642  10.958 -0.7192 -0.3162  0.1864
 7736TIP3    H247404   1.169   2.779  11.002 -1.6108 -1.3182  2.4921
 7737TIP3   OH247405   5.829   3.869  11.209 -0.1796 -0.3570  0.4098
 7737TIP3    H147406   5.863   3.847  11.122  1.1898 -0.1320  0.8692
 7737TIP3    H247407   5.734   3.863  11.199  0.0019 -2.4643 -0.5273
 7738TIP3   OH247408   4.479   4.873  11.750 -0.0072 -0.1011 -0.0167
 7738TIP3    H147409   4.434   4.811  11.807  0.5436 -0.2958  0.2135
 7738TIP3    H247410   4.567   4.836  11.739  0.4509  0.8428  0.4448
 7739TIP3   OH247411   5.892   4.370  12.726 -0.1265 -0.4001  0.3919
 7739TIP3    H147412   5.835   4.345  12.799  0.2088  1.6478  1.4164
 7739TIP3    H247413   5.980   4.364  12.761  0.0499  0.4002  0.1168
 7740TIP3   OH247414   4.588   2.406  11.492 -0.0343  0.4947  0.5324
 7740TIP3    H147415   4.626   2.358  11.418  0.6170 -0.8473  1.6991
 7740TIP3    H247416   4.524   2.345  11.529  0.1025  0.9119  1.4685
 7741TIP3   OH247417   1.045   5.496  10.737 -0.0311 -0.2145 -0.2096
 7741TIP3    H147418   1.029   5.572  10.793  0.0973  0.0061 -0.4668
 7741TIP3    H247419   1.081   5.430  10.796 -0.6319 -0.2540  0.1096
 7742TIP3   OH247420   0.893   2.316  11.792 -0.6574 -0.0268  0.0620
 7742TIP3    H147421   0.935   2.244  11.747  0.4812  1.0811 -0.7153
 7742TIP3    H247422   0.855   2.277  11.871  0.5940 -1.3215  0.0546
 7743TIP3   OH247423   0.968   4.337  12.716 -0.1446 -0.4239 -0.4920
 7743TIP3    H147424   0.923   4.352  12.799  1.7075  0.7446  0.3578
 7743TIP3    H247425   1.060   4.326  12.740  0.4908  0.3642 -2.4134
 7744TIP3   OH247426   4.624   4.340  12.593 -0.3394 -0.5445  0.2032
 7744TIP3    H147427   4.682   4.415  12.595 -0.6739 -0.2421 -0.8153
 7744TIP3    H247428   4.583   4.338  12.680 -0.6994  0.7449  0.0824
 7745TIP3   OH247429   0.082   6.763  11.110  0.0169  0.1324 -0.1718
 7745TIP3    H147430   0.005   6.755  11.166 -0.9189  0.5615 -1.3492
 7745TIP3    H247431   0.048   6.755  11.021  0.5277  4.8309 -1.0494
 7746TIP3   OH247432   5.735   7.384  13.004 -0.0276  0.1005 -0.0975
 7746TIP3    H147433   5.754   7.478  13.003 -1.9037  0.6836  3.2526
 7746TIP3    H247434   5.639   7.379  12.994 -0.0942 -1.3377  0.9380
 7747TIP3   OH247435   5.569   3.319  12.855  0.3791  0.0540 -0.4112
 7747TIP3    H147436   5.577   3.280  12.942 -2.8201  1.5058  0.6915
 7747TIP3    H247437   5.542   3.409  12.871 -0.0787  0.4513 -2.9115
 7748TIP3   OH247438   1.633   1.470  10.615  0.0001  0.1008 -0.3799
 7748TIP3    H147439   1.622   1.525  10.692 -0.0390 -0.3353 -0.0703
 7748TIP3    H247440   1.719   1.429  10.626  0.0938  0.2082 -0.6825
 7749TIP3   OH247441   3.547   6.589  10.459  0.1981  0.1617  0.0907
 7749TIP3    H147442   3.473   6.566  10.403  1.2481 -1.3944 -0.7158
 7749TIP3    H247443   3.556   6.684  10.448 -0.2019  0.0351 -1.6742
 7750TIP3   OH247444   4.753   0.032  11.983 -0.4285  0.3584  0.2890
 7750TIP3    H147445   4.836   0.053  12.027 -0.2119 -2.7303  1.5855
 7750TIP3    H247446   4.772   0.047  11.890  0.6177  2.4465  0.7644
 7751TIP3   OH247447   0.275   1.311  12.901 -0.3437  0.1930  0.0267
 7751TIP3    H147448   0.219   1.306  12.978  0.5320  0.6565  0.7063
 7751TIP3    H247449   0.310   1.400  12.901 -1.1263  0.5352 -1.4872
 7752TIP3   OH247450   5.789   0.327  11.085  0.4434  0.0037 -0.7110
 7752TIP3    H147451   5.755   0.397  11.139  1.3710 -0.3311  0.3342
 7752TIP3    H247452   5.799   0.366  10.998 -1.4346  0.4332 -0.7784
 7753TIP3   OH247453   5.236   3.238  10.740 -0.2092 -0.1446 -0.1176
 7753TIP3    H147454   5.277   3.152  10.727 -1.4792 -0.6698 -0.9399
 7753TIP3    H247455   5.302   3.290  10.785  0.7653 -1.4119 -0.0201
 7754TIP3   OH247456   5.499   6.539  11.688  0.2862  0.4673  0.0081
 7754TIP3    H147457   5.555   6.537  11.765 -2.1395 -0.1648  1.9093
 7754TIP3    H247458   5.466   6.449  11.680  0.8992  0.3851 -2.1433
 7755TIP3   OH247459   1.260   1.104  13.100  0.2305 -0.0610  0.4544
 7755TIP3    H147460   1.346   1.108  13.057  0.0181 -0.9099 -0.0768
 7755TIP3    H247461   1.277   1.134  13.189  1.0783 -0.1916  0.3504
 7756TIP3   OH247462   6.072   3.106  10.497  0.0734  0.0771 -0.3820
 7756TIP3    H147463   5.988   3.076  10.463 -0.6388  0.5340  0.8902
 7756TIP3    H247464   6.066   3.202  10.494  0.5668  0.1148 -0.3118
 7757TIP3   OH247465   2.603   6.038  11.422 -0.4898 -0.1606 -1.3556
 7757TIP3    H147466   2.667   5.970  11.400  0.1668 -0.8810  2.2448
 7757TIP3    H247467   2.533   5.992  11.468  0.4017  1.5239  2.0306
 7758TIP3   OH247468   3.999   0.717  11.888 -0.2052  0.1839  0.5196
 7758TIP3    H147469   3.911   0.750  11.904 -0.1452  0.2059  0.8090
 7758TIP3    H247470   4.005   0.637  11.940  0.3430  0.8017  1.4469
 7759TIP3   OH247471   6.000   0.484  11.195  0.3495  0.1466  0.1895
 7759TIP3    H147472   5.939   0.431  11.144 -0.8312  0.0169  1.6677
 7759TIP3    H247473   6.022   0.557  11.137  1.0392 -1.2686 -1.4071
 7760TIP3   OH247474   4.991   6.596  11.599  0.0407 -0.1497 -0.1264
 7760TIP3    H147475   5.014   6.689  11.592 -2.1715  0.5252  0.8429
 7760TIP3    H247476   4.998   6.577  11.692 -0.0065 -0.8216 -0.2578
 7761TIP3   OH247477   6.102   0.254  11.524  0.0032 -0.2206  0.1965
 7761TIP3    H147478   6.015   0.263  11.486  0.1826 -0.7318 -0.3442
 7761TIP3    H247479   6.159   0.233  11.450  0.3033 -1.5429  0.7708
 7762TIP3   OH247480   6.254   0.786  11.032  0.5086 -0.2795 -0.1659
 7762TIP3    H147481   6.309   0.841  10.975 -0.4896 -0.5647 -1.4393
 7762TIP3    H247482   6.185   0.754  10.974 -1.8239  1.1402  1.6666
 7763TIP3   OH247483   1.401   5.746  12.275  0.2476 -0.6588  0.2145
 7763TIP3    H147484   1.327   5.750  12.336 -1.0586 -0.9191 -1.2879
 7763TIP3    H247485   1.415   5.837  12.249 -0.2596 -0.7184 -0.2948
 7764TIP3   OH247486   0.753   6.451  10.915 -0.3235  0.0235 -0.5984
 7764TIP3    H147487   0.683   6.450  10.850 -1.0683 -0.2809  0.1884
 7764TIP3    H247488   0.708   6.439  10.998  0.4889  1.5575  0.1061
 7765TIP3   OH247489   0.305   0.249  12.924 -0.3137  0.5576  0.4118
 7765TIP3    H147490   0.291   0.186  12.854 -1.1912  1.4003 -0.1908
 7765TIP3    H247491   0.219   0.259  12.965  0.2611 -0.1943  1.8655
 7766TIP3   OH247492   2.005   0.595  11.402 -0.1002  0.2480  0.0340
 7766TIP3    H147493   2.010   0.552  11.488 -2.4096  1.1222  0.6859
 7766TIP3    H247494   2.083   0.651  11.399  0.7767 -0.8795  0.9268
 7767TIP3   OH247495   0.965   1.781  13.226  0.2748 -0.0865  0.1292
 7767TIP3    H147496   0.872   1.805  13.224  0.0747 -0.8941 -0.9073
 7767TIP3    H247497   0.966   1.695  13.268  0.5633 -0.0566  0.1815
 7768TIP3   OH247498   5.284   1.791  11.905 -0.8277 -0.3511  0.9204
 7768TIP3    H147499   5.354   1.853  11.927 -1.5196  0.4783  0.8583
 7768TIP3    H247500   5.283   1.789  11.810 -0.4862 -0.8405  0.9248
 7769TIP3   OH247501   2.644   1.020  11.308 -0.0371 -0.3651 -0.0647
 7769TIP3    H147502   2.686   0.943  11.346  1.2109 -0.4002 -1.4315
 7769TIP3    H247503   2.714   1.065  11.261 -1.4995 -0.4566 -2.5012
 7770TIP3   OH247504   0.567   3.630  11.676  0.5149 -0.1024  0.2233
 7770TIP3    H147505   0.663   3.629  11.681  0.6158  1.1735 -0.7500
 7770TIP3    H247506   0.543   3.718  11.704 -0.4846 -0.7952  1.6306
 7771TIP3   OH247507   3.654   7.486  11.415  0.5713  0.2768 -0.1634
 7771TIP3    H147508   3.642   7.426  11.489  1.8426  1.4420  1.0371
 7771TIP3    H247509   3.731   7.452  11.370  0.4755  0.2377 -0.3014
 7772TIP3   OH247510   4.229   0.871  11.851  0.4701  0.1616 -0.2410
 7772TIP3    H147511   4.149   0.818  11.851  0.1719  0.5576 -1.5257
 7772TIP3    H247512   4.274   0.848  11.932 -0.2629 -1.1117 -0.1720
 7773TIP3   OH247513   3.839   0.585  12.144 -0.2808  0.3745  0.2863
 7773TIP3    H147514   3.827   0.565  12.237 -1.0957 -2.2679 -0.3015
 7773TIP3    H247515   3.917   0.535  12.118  0.2632  1.5148 -0.3529
 7774TIP3   OH247516   5.289   3.660  11.344 -0.2752 -0.5980 -0.0243
 7774TIP3    H147517   5.342   3.601  11.398 -1.7209 -1.5962  0.3536
 7774TIP3    H247518   5.249   3.603  11.279 -1.1771  0.0782 -0.0789
 7775TIP3   OH247519   7.543   7.259  11.585  0.1842  0.2315  0.5721
 7775TIP3    H147520   7.542   7.201  11.661  0.5588 -0.0252  0.3840
 7775TIP3    H247521   7.534   7.347  11.621 -0.0730  0.0780  0.8814
 7776TIP3   OH247522   1.765   3.744  11.550 -0.1348 -0.3099  0.0683
 7776TIP3    H147523   1.767   3.649  11.539  0.0579 -0.6486  2.4815
 7776TIP3    H247524   1.832   3.777  11.490  0.1933 -1.7549 -0.3902
 7777TIP3   OH247525   0.317   2.859  10.666 -0.1497 -0.2375  0.1511
 7777TIP3    H147526   0.366   2.908  10.600  1.3608 -0.9409  0.7102
 7777TIP3    H247527   0.260   2.925  10.706  1.5083  1.0117  0.5851
 7778TIP3   OH247528   4.188   4.731  11.767 -0.3145  0.1914 -0.0359
 7778TIP3    H147529   4.270   4.687  11.792 -0.9455 -0.8146  0.3269
 7778TIP3    H247530   4.125   4.660  11.758 -1.0117  0.8968 -0.9051
 7779TIP3   OH247531   2.453   7.008  10.494  0.0609  0.2960  0.5843
 7779TIP3    H147532   2.408   6.930  10.526  1.1486 -1.0072 -0.8758
 7779TIP3    H247533   2.383   7.067  10.466 -0.7927 -1.0784 -0.3007
 7780TIP3   OH247534   4.367   7.333  11.430 -0.5141 -0.0641  0.1308
 7780TIP3    H147535   4.454   7.309  11.463 -0.5759  0.1482  0.4569
 7780TIP3    H247536   4.354   7.422  11.461 -1.1537 -0.3497  0.7145
 7781TIP3   OH247537   5.815   3.235  12.202  0.2144  0.1739  0.2895
 7781TIP3    H147538   5.750   3.220  12.270 -0.7304  1.9472 -0.1547
 7781TIP3    H247539   5.770   3.288  12.136  1.8361  0.6965 -0.4746
 7782TIP3   OH247540   5.514   3.245  11.803  0.4569 -0.2432  0.3620
 7782TIP3    H147541   5.565   3.203  11.733 -1.3208  0.7863 -1.6909
 7782TIP3    H247542   5.477   3.172  11.853  0.5712 -1.0707 -0.7177
 7783TIP3   OH247543   6.827   0.540  11.902 -1.0968 -0.6713  0.3729
 7783TIP3    H147544   6.769   0.569  11.831 -2.0065 -2.2771  0.4042
 7783TIP3    H247545   6.810   0.602  11.973  0.4010  1.4391 -0.9965
 7784TIP3   OH247546   7.634   6.738  10.852 -0.2382  0.2608  0.5321
 7784TIP3    H147547   7.558   6.782  10.891 -0.6280  0.4233 -0.3782
 7784TIP3    H247548   7.597   6.687  10.780  0.3869 -0.5170  0.7610
 7785TIP3   OH247549   3.111   6.420  10.689  0.6451 -0.1341 -0.1706
 7785TIP3    H147550   3.181   6.483  10.704  2.0193 -1.8597  1.1116
 7785TIP3    H247551   3.156   6.341  10.659 -0.8907 -0.8777 -0.6119
 7786TIP3   OH247552   0.489   6.775  12.100  0.3792  0.2755 -0.2078
 7786TIP3    H147553   0.474   6.798  12.009 -1.2992 -0.5625 -0.1903
 7786TIP3    H247554   0.581   6.751  12.104  0.4858  0.3385 -1.6839
 7787TIP3   OH247555   2.804   6.208  13.080  0.0361 -0.2804  0.2875
 7787TIP3    H147556   2.883   6.156  13.093  0.9836  1.5011  2.2648
 7787TIP3    H247557   2.831   6.277  13.019 -0.0964  0.1023  0.6592
 7788TIP3   OH247558   4.562   3.316  12.411 -0.0741 -0.2568  0.6510
 7788TIP3    H147559   4.507   3.387  12.442 -0.3431 -0.8577  1.6137
 7788TIP3    H247560   4.632   3.310  12.476  1.3034  0.6647 -0.6879
 7789TIP3   OH247561   0.327   2.116  11.719 -0.0302  0.3868  0.0142
 7789TIP3    H147562   0.276   2.035  11.726  0.7399 -0.2305 -1.1133
 7789TIP3    H247563   0.300   2.168  11.795 -0.3485 -1.0373  0.9291
 7790TIP3   OH247564   7.310   2.354  10.741  0.1714  0.6331 -0.2209
 7790TIP3    H147565   7.219   2.324  10.731 -0.2086  1.7707 -0.2787
 7790TIP3    H247566   7.355   2.317  10.665 -0.7342  1.8057 -1.3872
 7791TIP3   OH247567   2.885   4.871  10.731 -0.7919 -0.2957 -0.2974
 7791TIP3    H147568   2.912   4.957  10.701 -0.8338 -0.2744 -0.2744
 7791TIP3    H247569   2.791   4.867  10.710 -0.9209 -0.1110  0.2413
 7792TIP3   OH247570   1.909   5.300  10.467  0.2686 -0.4124  0.6085
 7792TIP3    H147571   1.910   5.394  10.453  0.8144 -0.4365  0.4558
 7792TIP3    H247572   1.990   5.282  10.516 -0.4939 -0.6270  1.8365
 7793TIP3   OH247573   3.013   0.212  11.210 -0.2193  0.3092 -0.2127
 7793TIP3    H147574   3.102   0.177  11.209  1.1380  3.3541  0.1041
 7793TIP3    H247575   2.976   0.182  11.293  0.5905 -0.7873 -0.2283
 7794TIP3   OH247576   2.001   1.239  12.247  0.1445 -0.0189 -0.5913
 7794TIP3    H147577   1.969   1.269  12.333  1.7391 -0.0621  0.0694
 7794TIP3    H247578   1.925   1.202  12.204 -1.0093  1.2781  0.2434
 7795TIP3   OH247579   4.954   3.228  10.541  0.4261  0.3541 -0.3933
 7795TIP3    H147580   5.036   3.243  10.493 -0.0517  1.0223 -1.0117
 7795TIP3    H247581   4.916   3.315  10.551 -0.9510 -0.1001 -1.4253
 7796TIP3   OH247582   5.623   5.766  10.584  0.0216  0.2470  0.0282
 7796TIP3    H147583   5.679   5.782  10.508  1.3853 -0.7988  0.7735
 7796TIP3    H247584   5.684   5.752  10.656 -1.2172 -0.3404  0.9924
 7797TIP3   OH247585   2.353   2.105  12.070 -0.0804  0.6134  0.3123
 7797TIP3    H147586   2.322   2.135  11.985 -0.7667 -0.7960  0.0396
 7797TIP3    H247587   2.279   2.056  12.107  0.5827  0.2777  1.2440
 7798TIP3   OH247588   6.269   1.243  12.274  0.0381  0.1430 -0.1274
 7798TIP3    H147589   6.203   1.177  12.254 -1.5745  1.3515  0.9915
 7798TIP3    H247590   6.284   1.235  12.368  0.8569  0.4787 -0.2191
 7799TIP3   OH247591   6.675   0.935  11.984  0.0372  0.1496 -0.1069
 7799TIP3    H147592   6.729   0.867  12.026  1.0294  0.8788 -0.1681
 7799TIP3    H247593   6.738   1.002  11.958 -0.9100  0.9973 -0.2410
 7800TIP3   OH247594   4.118   2.670  10.168  0.7482 -0.2235  0.5686
 7800TIP3    H147595   4.174   2.689  10.243 -0.8552  0.6826  1.5867
 7800TIP3    H247596   4.141   2.581  10.143  2.2104 -0.0940  1.3129
 7801TIP3   OH247597   5.623   3.400  10.774  0.0009 -0.0348 -0.3952
 7801TIP3    H147598   5.546   3.451  10.748  0.3395  0.3477 -0.6514
 7801TIP3    H247599   5.592   3.310  10.778 -0.1490 -0.0520 -1.7294
 7802TIP3   OH247600   6.810   6.541  12.773  0.1155 -0.3393  0.0342
 7802TIP3    H147601   6.866   6.616  12.754 -0.8848  1.2611  2.7951
 7802TIP3    H247602   6.751   6.535  12.697  1.0897  0.8012 -0.8464
 7803TIP3   OH247603   4.604   5.226  11.375  0.3530  0.0880  0.1210
 7803TIP3    H147604   4.628   5.205  11.465 -1.1038  0.9403  0.7477
 7803TIP3    H247605   4.579   5.318  11.378  0.4977  0.1876 -1.2101
 7804TIP3   OH247606   6.988   4.075  10.936  0.1218 -0.2639  0.0197
 7804TIP3    H147607   7.029   4.014  10.874  0.9038 -0.0362  0.2944
 7804TIP3    H247608   7.032   4.159  10.918  1.2981 -0.4605  1.7240
 7805TIP3   OH247609   6.327   5.196  12.068  0.1471 -0.2599 -0.2663
 7805TIP3    H147610   6.324   5.118  12.012 -2.5892  0.2837 -1.0578
 7805TIP3    H247611   6.344   5.268  12.008  1.8035 -0.1103  0.3391
 7806TIP3   OH247612   1.352   2.170  12.329  0.1262  0.3018 -0.4841
 7806TIP3    H147613   1.387   2.094  12.377  0.0257  1.3346  1.3322
 7806TIP3    H247614   1.430   2.214  12.296  0.3534  0.6430  0.4618
 7807TIP3   OH247615   0.052   5.477  12.908  0.3269 -0.2307  0.3773
 7807TIP3    H147616   0.009   5.483  12.993 -0.2996 -2.9328  0.3590
 7807TIP3    H247617  -0.018   5.456  12.846  0.7014  2.0729 -0.9438
 7808TIP3   OH247618   0.407   3.339  13.411  0.4911  0.1182 -0.0985
 7808TIP3    H147619   0.311   3.341  13.414  0.4978  2.0720 -0.0453
 7808TIP3    H247620   0.427   3.260  13.361 -1.2653  1.1086 -2.5829
 7809TIP3   OH247621   2.284   6.872  11.128 -0.2550 -0.9567 -0.2697
 7809TIP3    H147622   2.245   6.785  11.125  0.3659 -1.3505  1.6035
 7809TIP3    H247623   2.309   6.891  11.037 -2.6086 -1.6571 -1.1346
 7810TIP3   OH247624   2.127   1.036  10.880 -0.2126 -0.0103  0.1298
 7810TIP3    H147625   2.092   0.951  10.854 -1.4729  0.1624  1.1875
 7810TIP3    H247626   2.101   1.095  10.809 -2.2859  0.1483  0.9788
 7811TIP3   OH247627   1.646   0.082  10.791  0.1997 -0.1643  0.4929
 7811TIP3    H147628   1.655   0.047  10.702 -0.5929  2.9306 -0.9587
 7811TIP3    H247629   1.558   0.055  10.818 -0.2363  0.3300 -0.4007
 7812TIP3   OH247630   1.922   3.199  10.685 -0.3411  0.2037  0.1609
 7812TIP3    H147631   1.965   3.209  10.770 -0.8502 -0.6013  0.5201
 7812TIP3    H247632   1.829   3.205  10.705 -0.5314 -1.4440 -0.1230
 7813TIP3   OH247633   2.855   4.081  11.970  0.3976 -0.0869  0.0493
 7813TIP3    H147634   2.945   4.048  11.959  0.3650 -0.3026  0.4087
 7813TIP3    H247635   2.864   4.176  11.963  0.4110 -0.1871 -1.5543
 7814TIP3   OH247636   7.262   0.215  11.786  0.3661  0.4562 -0.1488
 7814TIP3    H147637   7.297   0.149  11.846  0.2129  0.4106 -0.1075
 7814TIP3    H247638   7.167   0.206  11.794  0.3176  1.6435  0.9341
 7815TIP3   OH247639   6.679   7.302  11.479  0.3391 -1.0674  0.4182
 7815TIP3    H147640   6.619   7.354  11.532  1.5844  0.7778  0.1284
 7815TIP3    H247641   6.764   7.313  11.521  1.1948 -0.2923 -1.4033
 7816TIP3   OH247642   5.030   4.090  11.588  0.0693  0.3474 -0.4338
 7816TIP3    H147643   5.059   4.000  11.603  0.9793  0.0914 -3.1214
 7816TIP3    H247644   4.937   4.083  11.567  0.0283  0.0970 -0.1706
 7817TIP3   OH247645   7.605   0.561  11.042 -0.3511  0.2407 -1.1226
 7817TIP3    H147646   7.536   0.495  11.033 -1.1039  0.5714  1.4584
 7817TIP3    H247647   7.685   0.509  11.051 -0.9620 -0.4394  1.1234
 7818TIP3   OH247648   3.379   0.466  12.261 -0.3298  0.0170  0.1792
 7818TIP3    H147649   3.337   0.549  12.236 -0.7803 -0.3076 -0.1648
 7818TIP3    H247650   3.458   0.493  12.308  1.0168  0.6857 -2.2598
 7819TIP3   OH247651   4.527   5.265  10.296  0.1781 -0.0611 -0.5653
 7819TIP3    H147652   4.500   5.318  10.221 -0.1148  0.4257 -0.1219
 7819TIP3    H247653   4.464   5.193  10.298 -1.1755  1.0891  0.4877
 7820TIP3   OH247654   4.808   2.290  13.531 -0.0173 -0.3499  0.5713
 7820TIP3    H147655   4.738   2.283  13.466  0.7008 -2.0091 -0.1121
 7820TIP3    H247656   4.841   2.200  13.540  0.8960  0.0985  2.1361
 7821TIP3   OH247657   1.331   6.793  10.948  0.2099 -0.3216 -0.0815
 7821TIP3    H147658   1.277   6.724  10.909  0.7274 -0.6201 -0.2873
 7821TIP3    H247659   1.421   6.764  10.933  0.5068  1.2231 -1.7457
 7822TIP3   OH247660   4.957   3.624  11.962  0.2768 -0.2993  0.2478
 7822TIP3    H147661   4.983   3.660  12.046 -2.0272 -0.7865  1.2665
 7822TIP3    H247662   4.972   3.695  11.899  0.0117  0.8620  1.4557
 7823TIP3   OH247663   0.275   4.443  11.314  0.1587 -0.3069  0.8085
 7823TIP3    H147664   0.226   4.366  11.285 -0.4940 -0.4354  2.1614
 7823TIP3    H247665   0.215   4.516  11.299 -0.1565 -0.3652  1.6908
 7824TIP3   OH247666   5.279   4.848  13.289  0.2985 -0.0804  0.3419
 7824TIP3    H147667   5.226   4.801  13.225  0.3454  0.1728  0.1147
 7824TIP3    H247668   5.338   4.782  13.325  0.1746 -0.2538  0.2257
 7825TIP3   OH247669   1.422   3.063  12.908  0.4529  0.1841  0.3809
 7825TIP3    H147670   1.511   3.054  12.941 -0.1667  0.7180  2.3177
 7825TIP3    H247671   1.367   3.016  12.971 -0.7333  0.7102 -0.2107
 7826TIP3   OH247672   0.017   5.309  13.166 -0.1263  0.1458  0.3350
 7826TIP3    H147673  -0.065   5.274  13.200  0.0491  0.5369  1.2100
 7826TIP3    H247674   0.013   5.402  13.187  1.1847 -0.0863  1.7634
 7827TIP3   OH247675   1.576   1.753  12.387  0.2523  0.4606  0.5127
 7827TIP3    H147676   1.483   1.772  12.402 -0.1761 -1.1201  0.0443
 7827TIP3    H247677   1.594   1.679  12.445  1.0694  0.3817  0.1625
 7828TIP3   OH247678   2.666   3.126  10.899 -0.1743 -0.7449  0.3361
 7828TIP3    H147679   2.611   3.167  10.966 -1.5340 -1.6517 -0.1949
 7828TIP3    H247680   2.746   3.179  10.899  0.5538 -1.6277  3.7504
 7829TIP3   OH247681   5.412   4.204  11.966 -0.1220  0.1367  0.1062
 7829TIP3    H147682   5.469   4.162  12.031  2.7339  1.3352 -1.4468
 7829TIP3    H247683   5.472   4.239  11.901 -2.7177  1.3919 -1.7786
 7830TIP3   OH247684   1.489   1.126  12.143  0.1402  0.0041  0.1975
 7830TIP3    H147685   1.454   1.045  12.179  0.0192  0.1265  0.3545
 7830TIP3    H247686   1.412   1.174  12.112  0.3218 -0.6292 -1.3374
 7831TIP3   OH247687   5.982   3.288  12.459  0.5818 -0.0554  0.3824
 7831TIP3    H147688   5.921   3.275  12.532  1.5629 -2.0692  0.9245
 7831TIP3    H247689   5.931   3.266  12.381  0.4897 -1.4659  0.8066
 7832TIP3   OH247690   7.047   1.679  12.597 -0.4499 -0.3384 -0.1985
 7832TIP3    H147691   7.069   1.685  12.690 -0.7558  1.0239 -0.1895
 7832TIP3    H247692   6.967   1.627  12.594  1.0227 -2.7479  0.0325
 7833TIP3   OH247693   3.416   4.643  11.018  0.0358 -0.0278 -0.0838
 7833TIP3    H147694   3.326   4.617  10.997 -0.2645  0.5214  0.4822
 7833TIP3    H247695   3.449   4.682  10.938 -0.1688 -0.3988 -0.3516
 7834TIP3   OH247696   6.133   4.239  11.449 -0.3493 -0.0185 -0.6470
 7834TIP3    H147697   6.117   4.260  11.357 -2.2426 -1.1471 -0.6266
 7834TIP3    H247698   6.046   4.239  11.488  0.2073 -1.6748  0.6681
 7835TIP3   OH247699   2.805   3.747  12.310  0.0491  0.5548  0.1402
 7835TIP3    H147700   2.819   3.673  12.251  0.2308  2.2823 -2.1117
 7835TIP3    H247701   2.864   3.815  12.278  1.3985  1.1075  3.3706
 7836TIP3   OH247702   3.442   2.644  12.276 -0.3631 -0.6093  0.0215
 7836TIP3    H147703   3.352   2.613  12.269  0.0791 -1.6288 -1.4733
 7836TIP3    H247704   3.496   2.568  12.255  0.8281  0.3201 -0.4200
 7837TIP3   OH247705   2.415   4.117  11.941 -0.1251 -0.1321  0.0221
 7837TIP3    H147706   2.482   4.089  12.002 -0.7730 -0.7512  0.4597
 7837TIP3    H247707   2.345   4.052  11.950 -0.8211  0.5471 -0.3537
 7838TIP3   OH247708   4.453   1.992  10.099  0.3802 -0.8129 -0.3333
 7838TIP3    H147709   4.421   1.920  10.154 -0.6854 -1.4682 -1.7525
 7838TIP3    H247710   4.398   1.989  10.021  1.4326  0.4991 -1.1710
 7839TIP3   OH247711   0.625   5.975  12.157  0.1499 -0.2344  0.1443
 7839TIP3    H147712   0.648   5.992  12.066 -0.3382 -0.7593 -0.0849
 7839TIP3    H247713   0.616   6.062  12.197 -1.4274  0.0559 -0.7747
 7840TIP3   OH247714   1.905   2.364  10.694  0.4903  0.3797  0.4954
 7840TIP3    H147715   1.853   2.410  10.760  0.3973 -0.2360  0.8566
 7840TIP3    H247716   1.872   2.398  10.610  1.7880  2.4657  0.7527
 7841TIP3   OH247717   6.768   2.597  10.833  0.4668 -0.1587 -0.1034
 7841TIP3    H147718   6.760   2.688  10.803  0.8250  0.7311  2.2794
 7841TIP3    H247719   6.841   2.562  10.782  0.5552  0.9858 -0.8192
 7842TIP3   OH247720   5.101   0.186  11.579  0.2581  0.3284  0.3229
 7842TIP3    H147721   5.172   0.198  11.642  1.9105 -0.1004 -1.3589
 7842TIP3    H247722   5.094   0.271  11.535  2.2044 -0.5459 -1.8785
 7843TIP3   OH247723   3.873   3.607  12.104 -0.1430  0.3561 -0.0330
 7843TIP3    H147724   3.938   3.646  12.163 -0.6580 -0.1173  0.8872
 7843TIP3    H247725   3.793   3.658  12.120  0.0323  1.0644 -1.3006
 7844TIP3   OH247726   5.190   2.641  10.653 -0.0719  0.5098  0.1723
 7844TIP3    H147727   5.207   2.549  10.675  1.6870  1.0342  1.2873
 7844TIP3    H247728   5.249   2.659  10.580 -0.8327  0.6216 -0.4233
 7845TIP3   OH247729   5.417   0.859  10.767  0.2442  0.0514 -0.5593
 7845TIP3    H147730   5.408   0.765  10.751  1.5181 -0.2004  0.0683
 7845TIP3    H247731   5.341   0.882  10.820  0.3221 -0.7950 -0.0668
 7846TIP3   OH247732   7.650   5.839  12.813 -0.0395  0.6749  0.0863
 7846TIP3    H147733   7.630   5.763  12.759  2.3805 -0.1831  0.2780
 7846TIP3    H247734   7.646   5.806  12.903  0.1356  1.0058  0.2170
 7847TIP3   OH247735   2.415   3.959  10.917  0.0095  0.5384 -0.3484
 7847TIP3    H147736   2.400   3.883  10.861 -0.4700 -0.2775  0.8397
 7847TIP3    H247737   2.507   3.953  10.941 -0.0898  0.1649 -0.0414
 7848TIP3   OH247738   3.258   3.489  11.313 -0.1382 -0.1929  0.0992
 7848TIP3    H147739   3.334   3.540  11.339  0.2720 -0.6679 -0.1541
 7848TIP3    H247740   3.232   3.442  11.392  0.0635 -0.3226  0.0882
 7849TIP3   OH247741   6.472   5.203  10.902  0.2472 -0.0012 -0.0620
 7849TIP3    H147742   6.564   5.228  10.908  0.8402 -2.3297  2.9936
 7849TIP3    H247743   6.426   5.266  10.956  0.6577 -1.0080  1.5164
 7850TIP3   OH247744   2.290   5.692  11.530  0.4332  0.2540 -0.5400
 7850TIP3    H147745   2.294   5.598  11.549 -1.5128  0.4362  1.1371
 7850TIP3    H247746   2.197   5.714  11.535  0.9225  2.4653  0.0644
 7851TIP3   OH247747   1.871   3.852  11.943 -0.2164  0.1543 -0.1810
 7851TIP3    H147748   1.847   3.780  11.884 -3.3380  0.3812  0.6118
 7851TIP3    H247749   1.859   3.815  12.031 -2.1718  1.6263  0.2431
 7852TIP3   OH247750   1.361   3.632  11.641  0.0070  0.0581  0.4233
 7852TIP3    H147751   1.354   3.618  11.546  0.7371  1.9803  0.0397
 7852TIP3    H247752   1.383   3.546  11.676  1.6673 -0.3331 -1.3837
 7853TIP3   OH247753   5.195   6.031  12.625 -0.0550  0.1184  0.3843
 7853TIP3    H147754   5.183   5.980  12.545  0.7471 -1.1060  1.0120
 7853TIP3    H247755   5.130   5.997  12.686 -0.6474  1.0299  0.2875
 7854TIP3   OH247756   1.650   5.372  11.354 -0.4713  0.0452 -0.3171
 7854TIP3    H147757   1.554   5.376  11.361 -0.3847  1.3577  0.3957
 7854TIP3    H247758   1.675   5.458  11.321  0.7033  1.0968  2.9044
 7855TIP3   OH247759   5.236   6.918  11.447  0.5313  0.5485  0.0342
 7855TIP3    H147760   5.330   6.928  11.464  0.9015 -0.3265 -1.3905
 7855TIP3    H247761   5.221   6.965  11.365 -0.2906  0.7250  0.2766
 7856TIP3   OH247762   0.523   3.278  12.170  0.3574 -0.0002 -0.4389
 7856TIP3    H147763   0.577   3.232  12.106  0.7267 -0.9683  0.5408
 7856TIP3    H247764   0.444   3.225  12.177  0.7920 -0.5248  0.7095
 7857TIP3   OH247765   4.341   2.008  13.214 -0.3012  0.5649 -0.3177
 7857TIP3    H147766   4.433   1.998  13.190 -0.0823 -0.5608  0.8991
 7857TIP3    H247767   4.329   2.102  13.228  0.1687  0.9716 -2.2633
 7858TIP3   OH247768   2.074   2.034  10.252 -0.7570 -0.0185 -0.1977
 7858TIP3    H147769   2.014   1.962  10.271  0.7337 -1.2849 -0.0831
 7858TIP3    H247770   2.049   2.102  10.314 -0.8976 -1.2225  1.1411
 7859TIP3   OH247771   6.254   7.479  13.022  0.0204 -0.1219 -0.5113
 7859TIP3    H147772   6.191   7.509  13.087  1.5513 -1.0065  1.4753
 7859TIP3    H247773   6.338   7.515  13.051  0.9391 -1.5168 -1.3222
 7860TIP3   OH247774   5.556   6.373  10.917  0.1429  0.0305  0.2319
 7860TIP3    H147775   5.581   6.308  10.852 -1.6376 -0.1659 -0.2995
 7860TIP3    H247776   5.486   6.424  10.876 -2.7545 -1.6283  2.7484
 7861TIP3   OH247777   4.136   6.650  10.682  0.4778 -0.6116 -0.1560
 7861TIP3    H147778   4.043   6.628  10.685  0.5839 -0.9699  0.8225
 7861TIP3    H247779   4.177   6.573  10.643  0.3488 -0.3713 -0.7786
 7862TIP3   OH247780   6.795   4.320  13.823 -0.2554 -0.4689  0.2718
 7862TIP3    H147781   6.816   4.373  13.746 -1.2725 -3.4249 -2.2447
 7862TIP3    H247782   6.703   4.338  13.841  0.1630  0.7552  1.3304
 7863TIP3   OH247783   5.736   3.573  12.740 -0.1130 -0.5226  0.2710
 7863TIP3    H147784   5.791   3.579  12.662 -0.3149  2.4801  0.2396
 7863TIP3    H247785   5.648   3.591  12.709 -1.0061 -3.7379  0.5856
 7864TIP3   OH247786   2.336   5.508  10.600  0.1589  0.1951  0.4522
 7864TIP3    H147787   2.383   5.490  10.519  2.3797  1.7306  1.3085
 7864TIP3    H247788   2.274   5.577  10.577 -1.5613 -1.5683 -0.5901
 7865TIP3   OH247789   5.907   6.969  12.059 -0.3370  0.1343  0.2129
 7865TIP3    H147790   5.935   7.005  12.143  2.6132  0.4109 -0.7845
 7865TIP3    H247791   5.984   6.924  12.025 -1.6343 -0.5218 -2.1006
 7866TIP3   OH247792   3.029   4.910  12.191  0.7462 -0.1494  0.6461
 7866TIP3    H147793   2.990   4.912  12.103  0.1198 -0.5272  0.9035
 7866TIP3    H247794   2.967   4.858  12.242  1.3067 -0.2551  1.2180
 7867TIP3   OH247795   2.672   2.516  12.872 -0.3705  0.6723 -0.0324
 7867TIP3    H147796   2.706   2.595  12.914 -1.6662  1.3849 -0.2836
 7867TIP3    H247797   2.591   2.496  12.919  0.7808 -1.5220  1.1503
 7868TIP3   OH247798   3.715   2.110  10.856  0.2166  0.0878  0.2455
 7868TIP3    H147799   3.681   2.157  10.933  1.1238  2.5264 -0.7271
 7868TIP3    H247800   3.785   2.167  10.823 -0.4584 -0.6279 -2.6636
 7869TIP3   OH247801   2.667   1.822  10.477 -0.4151  0.0295 -0.1146
 7869TIP3    H147802   2.673   1.736  10.519 -0.1581  0.2768  0.3680
 7869TIP3    H247803   2.757   1.843  10.452 -0.6061 -0.2336 -1.0450
 7870TIP3   OH247804   1.573   3.925  10.575  0.0524 -0.1833 -0.2892
 7870TIP3    H147805   1.617   3.873  10.508  0.1040 -0.7767  0.1996
 7870TIP3    H247806   1.643   3.953  10.634 -0.1189 -0.4994  0.0690
 7871TIP3   OH247807   0.704   3.654  12.414 -0.1536  0.0763  0.1108
 7871TIP3    H147808   0.766   3.582  12.426  0.7612  0.8825  0.3747
 7871TIP3    H247809   0.627   3.613  12.376  0.5993 -0.9358 -0.3747
 7872TIP3   OH247810   2.333   3.336  11.985  0.6543  0.3170 -0.3571
 7872TIP3    H147811   2.334   3.365  12.076 -0.4847  1.7227 -0.7471
 7872TIP3    H247812   2.363   3.246  11.988 -0.4282 -0.0333  1.5432
 7873TIP3   OH247813   3.008   5.563  10.806 -0.6554 -0.0780 -0.4407
 7873TIP3    H147814   2.988   5.614  10.728 -0.2198 -0.5102 -0.8399
 7873TIP3    H247815   3.102   5.577  10.821 -0.7370  0.0098  0.0121
 7874TIP3   OH247816   2.355   3.975  10.631 -0.5837 -0.4658 -0.3240
 7874TIP3    H147817   2.271   3.935  10.612 -0.9985  0.4176 -0.4140
 7874TIP3    H247818   2.343   4.017  10.716 -0.9154  1.4145 -1.2425
 7875TIP3   OH247819   0.051   0.268  10.693 -0.1114 -0.9659 -0.4680
 7875TIP3    H147820  -0.014   0.337  10.678 -0.7604 -1.8590 -1.9061
 7875TIP3    H247821   0.104   0.301  10.766 -0.8038  0.7522 -0.7010
 7876TIP3   OH247822   2.618   1.702  11.335  0.3890  0.9184 -0.6209
 7876TIP3    H147823   2.661   1.756  11.268  0.4347 -0.7376 -1.9766
 7876TIP3    H247824   2.551   1.654  11.288 -0.2959  0.4840  0.7429
 7877TIP3   OH247825   2.700   6.564  11.372  0.4640 -0.3082 -0.6123
 7877TIP3    H147826   2.716   6.470  11.368 -0.1228 -0.4286 -0.2471
 7877TIP3    H247827   2.618   6.573  11.420  0.9359  0.4369  0.0863
 7878TIP3   OH247828   0.949   0.339  10.879 -0.3214 -0.5160 -0.0694
 7878TIP3    H147829   0.967   0.257  10.925  0.4402 -0.6762 -0.6203
 7878TIP3    H247830   0.886   0.315  10.811  1.3332 -1.0983 -1.4800
 7879TIP3   OH247831   6.056   4.394  10.766 -0.4677 -0.5555  0.0539
 7879TIP3    H147832   6.122   4.331  10.738  0.5454  1.0167 -1.2526
 7879TIP3    H247833   5.973   4.356  10.737  0.0258 -1.7074  0.1195
 7880TIP3   OH247834   4.139   6.328  11.524  0.3363 -0.2355 -0.0968
 7880TIP3    H147835   4.202   6.385  11.478 -1.3002  2.1888  0.4947
 7880TIP3    H247836   4.118   6.260  11.460  1.4398  0.5194 -1.3164
 7881TIP3   OH247837   5.121   1.919  13.206  0.5218  0.1354  0.6360
 7881TIP3    H147838   5.036   1.957  13.185  1.0705 -0.2300 -2.7099
 7881TIP3    H247839   5.104   1.825  13.213  0.8467 -0.1594 -1.8043
 7882TIP3   OH247840   4.687   6.688  12.786 -0.8510 -0.4855 -0.0376
 7882TIP3    H147841   4.754   6.653  12.844 -0.3523 -1.8303 -1.3498
 7882TIP3    H247842   4.671   6.777  12.818  1.9698  0.1002  0.0096
 7883TIP3   OH247843   7.261   1.924  11.053 -0.2642  0.2944 -0.0108
 7883TIP3    H147844   7.252   1.926  11.148  0.9868 -2.7607  0.2692
 7883TIP3    H247845   7.356   1.925  11.037 -0.4512  1.1624 -1.2991
 7884TIP3   OH247846   3.124   2.357  10.879 -0.2740 -0.2656  0.2273
 7884TIP3    H147847   3.134   2.366  10.974  2.2268 -1.9698  0.2061
 7884TIP3    H247848   3.096   2.267  10.865  0.3660 -0.3381 -0.7018
 7885TIP3   OH247849   6.125   4.604  12.157  0.2567  0.0669  0.0187
 7885TIP3    H147850   6.168   4.554  12.087  0.5431 -1.3391  1.1626
 7885TIP3    H247851   6.043   4.558  12.172  0.7967 -0.4856  1.5101
 7886TIP3   OH247852   3.729   5.911  12.995 -0.2027  0.0042 -0.5092
 7886TIP3    H147853   3.664   5.971  13.033 -2.6474 -1.6842 -1.7992
 7886TIP3    H247854   3.751   5.950  12.910 -0.4714 -0.0314 -0.5966
 7887TIP3   OH247855   7.470   4.113  13.613  0.3386 -0.6364  0.1834
 7887TIP3    H147856   7.538   4.073  13.558  0.9477 -0.1551  0.5758
 7887TIP3    H247857   7.504   4.199  13.635 -0.7313 -0.0879 -0.2182
 7888TIP3   OH247858   6.062   4.945  10.922 -0.0121 -0.4969 -0.2373
 7888TIP3    H147859   6.057   4.929  10.827  0.8786 -0.4912 -0.2923
 7888TIP3    H247860   6.126   4.881  10.953  0.6295  0.3314  0.1638
 7889TIP3   OH247861   0.859   5.838  12.271  0.6823  0.4956 -0.0785
 7889TIP3    H147862   0.766   5.862  12.273  0.9666  1.6037  0.9547
 7889TIP3    H247863   0.864   5.757  12.321  0.3091  0.5751  0.0913
 7890TIP3   OH247864   3.191   3.876  11.049  0.6427 -0.4124  0.7187
 7890TIP3    H147865   3.234   3.820  10.984 -1.7928  0.5636 -1.9569
 7890TIP3    H247866   3.119   3.823  11.083 -0.4454  0.3080 -0.3463
 7891TIP3   OH247867   6.153   0.778  12.354 -0.5779 -0.8610 -0.0594
 7891TIP3    H147868   6.177   0.691  12.320 -1.1518 -1.3826  0.8478
 7891TIP3    H247869   6.061   0.788  12.330 -0.2186  0.0200 -1.1947
 7892TIP3   OH247870   2.081   7.530  12.015  0.3976  0.0391 -0.2248
 7892TIP3    H147871   2.149   7.590  12.047  1.0227  0.3551 -1.9817
 7892TIP3    H247872   2.112   7.504  11.928 -2.1403  0.9151 -1.5047
 7893TIP3   OH247873   4.046   0.507  10.696 -0.3912  0.4833  0.5926
 7893TIP3    H147874   4.116   0.452  10.733 -0.0347  0.0645 -0.6347
 7893TIP3    H247875   3.965   0.469  10.730 -0.0860 -0.0117  0.7807
 7894TIP3   OH247876   2.592   2.866  13.345 -0.5254  0.5661  0.5473
 7894TIP3    H147877   2.499   2.878  13.327 -0.3711 -0.7288 -1.3836
 7894TIP3    H247878   2.594   2.803  13.418 -1.2130 -1.0064 -0.7207
 7895TIP3   OH247879   5.459   0.156  11.395  0.5620 -0.1077 -0.0106
 7895TIP3    H147880   5.398   0.086  11.372  1.1965  0.0080 -2.2729
 7895TIP3    H247881   5.469   0.148  11.490 -1.7999 -1.0472  0.2314
 7896TIP3   OH247882   3.651   4.130  11.249 -0.3336  0.2316 -0.2014
 7896TIP3    H147883   3.741   4.143  11.280 -0.4267 -0.4418  0.3529
 7896TIP3    H247884   3.647   4.183  11.169  0.4896  0.4422 -0.1220
 7897TIP3   OH247885   3.349   4.084  11.107 -0.0458  0.2707 -0.4692
 7897TIP3    H147886   3.295   4.138  11.164  0.3099  2.1420 -1.7764
 7897TIP3    H247887   3.290   4.017  11.072 -0.5024 -0.2272  1.2024
 7898TIP3   OH247888   4.325   1.651  13.261 -0.5004 -0.7970 -0.8518
 7898TIP3    H147889   4.265   1.592  13.215 -1.3455 -0.2592 -0.4840
 7898TIP3    H247890   4.301   1.738  13.230  0.9423 -0.6462 -1.6261
 7899TIP3   OH247891   3.437   7.147  12.596  0.2640  0.4484 -0.3760
 7899TIP3    H147892   3.374   7.181  12.660  1.4439  0.2114  0.9403
 7899TIP3    H247893   3.477   7.226  12.558 -0.7479  0.6000 -1.1772
 7900TIP3   OH247894   1.566   0.517  12.778 -0.4517 -0.3300  0.6959
 7900TIP3    H147895   1.523   0.565  12.848 -1.2714  0.4911 -0.3395
 7900TIP3    H247896   1.505   0.447  12.754 -1.1669  0.6887 -0.6088
 7901TIP3   OH247897   4.958   4.158  11.078 -0.1342  0.0910  0.0927
 7901TIP3    H147898   4.899   4.134  11.149 -2.0499  0.0663 -1.3997
 7901TIP3    H247899   4.913   4.229  11.032  1.0655  0.1598 -1.0599
 7902TIP3   OH247900   4.464   3.301  11.287  0.2441 -0.3917  0.5770
 7902TIP3    H147901   4.466   3.276  11.380  1.2270 -0.5125  0.5267
 7902TIP3    H247902   4.500   3.389  11.285 -2.2713  0.7380  0.6234
 7903TIP3   OH247903   6.607   2.265  10.547 -0.2480  0.7631  0.3716
 7903TIP3    H147904   6.624   2.311  10.465  0.8986  0.1172  0.2376
 7903TIP3    H247905   6.686   2.280  10.600 -0.9752  1.1958  1.3882
 7904TIP3   OH247906   2.143   0.373  11.565 -0.1828 -0.0805 -0.0191
 7904TIP3    H147907   2.150   0.305  11.498  5.3315 -0.1002  0.0915
 7904TIP3    H247908   2.124   0.325  11.645  1.5904 -1.3664 -0.2887
 7905TIP3   OH247909   0.900   5.247  10.936  0.6813  0.6882 -0.6496
 7905TIP3    H147910   0.993   5.261  10.954  0.5133  1.5257 -0.3490
 7905TIP3    H247911   0.864   5.336  10.930  0.2467  0.4248 -2.6933
 7906TIP3   OH247912   3.055   0.850  11.931 -0.0093  0.6451 -0.2651
 7906TIP3    H147913   2.992   0.882  11.995  0.0948 -0.8174  0.5982
 7906TIP3    H247914   3.140   0.875  11.967  0.1368 -1.4070  0.9461
 7907TIP3   OH247915   5.495   4.364  18.444 -0.2104  0.0441  0.1982
 7907TIP3    H147916   5.433   4.433  18.422 -0.4406 -0.4153 -0.6406
 7907TIP3    H247917   5.517   4.324  18.360  0.5503 -0.3700  0.5851
 7908TIP3   OH247918   6.659   0.353  11.637  0.8894 -0.1935  0.2592
 7908TIP3    H147919   6.605   0.339  11.715 -1.7132  2.8911 -0.7490
 7908TIP3    H247920   6.723   0.282  11.639 -1.7778 -2.8272  2.8077
 7909TIP3   OH247921   0.648   4.722  12.524  0.2484  0.1069  0.5451
 7909TIP3    H147922   0.693   4.681  12.598  0.3137  0.1497  0.5296
 7909TIP3    H247923   0.588   4.784  12.564  1.5451  1.4377  0.5253
 7910TIP3   OH247924   7.344   1.062  12.165  0.0122 -0.5574 -0.2679
 7910TIP3    H147925   7.344   1.087  12.073  0.8645 -2.6472 -0.8911
 7910TIP3    H247926   7.255   1.032  12.181 -0.0693 -0.4275 -0.4637
 7911TIP3   OH247927   3.668   0.953  11.052  0.0981 -0.0061 -0.0288
 7911TIP3    H147928   3.713   0.870  11.070 -0.8394 -0.5980 -0.3039
 7911TIP3    H247929   3.737   1.018  11.050  0.8744 -0.8059  0.0800
 7912TIP3   OH247930   5.216   3.062  13.369 -0.0354  0.1561 -0.5263
 7912TIP3    H147931   5.272   3.013  13.429 -1.6614 -2.2173 -0.8337
 7912TIP3    H247932   5.274   3.127  13.330  1.5118  0.5624  2.1803
 7913TIP3   OH247933   5.736   7.357  12.217  0.7624 -0.5006  0.2030
 7913TIP3    H147934   5.728   7.312  12.133  0.6555  1.3699 -0.8524
 7913TIP3    H247935   5.648   7.353  12.255 -0.2710  1.9933 -1.6578
 7914TIP3   OH247936   4.680   2.792  11.768  0.6298 -0.1675 -0.1455
 7914TIP3    H147937   4.774   2.787  11.783  0.8927 -1.1248 -1.8132
 7914TIP3    H247938   4.670   2.857  11.698 -0.0532  0.5524  0.5888
 7915TIP3   OH247939   4.881   0.066  11.449  0.0542 -0.3562 -0.2709
 7915TIP3    H147940   4.876   0.147  11.399  1.6376  0.3948  0.7341
 7915TIP3    H247941   4.954   0.078  11.509 -0.6030 -1.9505  0.9472
 7916TIP3   OH247942   5.159   7.522  11.172 -0.1012 -0.4590 -0.2245
 7916TIP3    H147943   5.067   7.535  11.191 -0.0547  1.7340 -1.1692
 7916TIP3    H247944   5.164   7.517  11.076  0.7040 -1.2779 -0.1652
 7917TIP3   OH247945   3.788   3.695  11.237 -0.1549 -0.0679 -0.3644
 7917TIP3    H147946   3.787   3.602  11.217  0.6045 -0.2460  0.3669
 7917TIP3    H247947   3.722   3.733  11.179  0.2184 -0.9143 -1.3704
 7918TIP3   OH247948   6.708   6.385  11.439 -0.6622  0.1929  0.6226
 7918TIP3    H147949   6.688   6.375  11.346  0.7772  2.0403  0.0449
 7918TIP3    H247950   6.786   6.331  11.452 -0.6158  0.2684  0.6575
 7919TIP3   OH247951   3.180   6.118  12.153 -0.4618 -0.1110  0.0345
 7919TIP3    H147952   3.183   6.211  12.178 -2.2473 -0.3396  1.3074
 7919TIP3    H247953   3.270   6.088  12.164 -0.0390  1.2390  0.5921
 7920TIP3   OH247954   3.684   5.396  12.322  0.2456 -0.0316 -0.1158
 7920TIP3    H147955   3.761   5.394  12.266 -0.2255  1.9500 -0.9333
 7920TIP3    H247956   3.679   5.309  12.360  2.6159 -0.3267 -0.3798
 7921TIP3   OH247957   1.639   6.977  11.044  0.1586 -0.1176 -0.3133
 7921TIP3    H147958   1.731   6.987  11.069  0.3763 -1.9590 -0.2466
 7921TIP3    H247959   1.635   7.012  10.955  0.6999  0.8270  0.0150
 7922TIP3   OH247960   0.300   4.764  11.078  0.9961  0.2192  0.1587
 7922TIP3    H147961   0.376   4.806  11.038  1.2463 -0.2113  0.1801
 7922TIP3    H247962   0.285   4.685  11.026 -1.2142  1.7147 -1.7044
 7923TIP3   OH247963   6.379   6.937  12.051 -0.4669  0.2936  0.4206
 7923TIP3    H147964   6.463   6.942  12.098  0.6751 -0.3819 -1.4572
 7923TIP3    H247965   6.351   7.029  12.044  0.9728  0.7017 -0.3856
 7924TIP3   OH247966   6.721   4.789  12.768  0.2441  0.4033  0.8677
 7924TIP3    H147967   6.719   4.704  12.722 -1.2368  0.3335  1.0240
 7924TIP3    H247968   6.797   4.782  12.826  0.2320 -0.7658  0.7789
 7925TIP3   OH247969   3.180   3.560  12.435 -0.4882 -0.3916  0.4241
 7925TIP3    H147970   3.264   3.602  12.420  0.2969 -1.6940  0.9853
 7925TIP3    H247971   3.138   3.558  12.348  0.0441  0.2846  0.1473
 7926TIP3   OH247972   3.556   2.225  12.377  0.0839 -0.2922 -0.0998
 7926TIP3    H147973   3.609   2.164  12.325  0.8935  0.2511  0.0718
 7926TIP3    H247974   3.474   2.178  12.393 -0.6868 -0.0230 -2.8690
 7927TIP3   OH247975   5.927   2.496  12.974  0.0050  0.2696 -0.4182
 7927TIP3    H147976   5.893   2.416  13.014  0.4817  0.7307  0.9778
 7927TIP3    H247977   5.941   2.555  13.047  1.6988  0.8737 -1.1806
 7928TIP3   OH247978   1.625   6.610  12.891 -0.5014  0.3674  0.9734
 7928TIP3    H147979   1.545   6.579  12.850  0.2990  1.6659 -1.8204
 7928TIP3    H247980   1.637   6.698  12.856  2.2348  0.1449  1.1202
 7929TIP3   OH247981   2.966   5.275  12.883  0.3112  0.3530 -0.2700
 7929TIP3    H147982   3.019   5.199  12.906  0.6050 -0.0487 -2.0619
 7929TIP3    H247983   2.880   5.239  12.860  0.6011  0.4473 -1.6358
 7930TIP3   OH247984   0.040   1.833  10.963 -0.1046 -0.1564  0.0550
 7930TIP3    H147985  -0.038   1.865  10.918 -1.2219 -1.2427  1.1558
 7930TIP3    H247986   0.079   1.912  11.001 -0.9862  0.3243 -0.0075
 7931TIP3   OH247987   5.774   7.224  10.694 -0.2677 -0.3897  0.1687
 7931TIP3    H147988   5.777   7.138  10.651  0.0683 -0.7149  0.8162
 7931TIP3    H247989   5.799   7.205  10.785  1.5623  0.6497 -0.0712
 7932TIP3   OH247990   2.025   5.780  11.602 -0.0160 -0.1171 -0.5181
 7932TIP3    H147991   1.968   5.835  11.657 -1.0033 -0.9393 -0.6777
 7932TIP3    H247992   1.964   5.719  11.560  1.1086 -1.7657  0.1724
 7933TIP3   OH247993   1.570   1.531  12.539 -0.4619  0.2882  0.1695
 7933TIP3    H147994   1.523   1.531  12.622  1.4738 -0.9308  1.3275
 7933TIP3    H247995   1.545   1.449  12.497 -0.4013  0.2801  0.1490
 7934TIP3   OH247996   2.881   1.377  11.328 -0.0588 -0.2788 -0.5353
 7934TIP3    H147997   2.838   1.390  11.413  0.2605  0.2966 -0.4564
 7934TIP3    H247998   2.917   1.463  11.306  3.1922 -1.1882  0.5646
 7935TIP3   OH247999   7.595   5.150  12.159  0.5447  0.3252  0.5689
 7935TIP3    H148000   7.623   5.225  12.106 -0.0337  0.0850 -0.0922
 7935TIP3    H248001   7.611   5.177  12.249 -1.4255  2.0262  0.4777
 7936TIP3   OH248002   6.627   5.940  13.128 -0.1803  0.2098 -0.4274
 7936TIP3    H148003   6.652   6.033  13.135  0.0275  0.1968 -0.9591
 7936TIP3    H248004   6.559   5.929  13.194 -0.3936  0.8093 -0.5378
 7937TIP3   OH248005   6.385   3.671  10.893 -0.2713 -0.0847 -0.3142
 7937TIP3    H148006   6.367   3.736  10.960  0.5644  0.8334 -0.9524
 7937TIP3    H248007   6.326   3.695  10.821  0.0151 -0.0517 -0.5379
 7938TIP3   OH248008   5.022   2.662  12.778  0.0167 -0.1729  0.8559
 7938TIP3    H148009   5.097   2.610  12.749 -0.2317  0.1367 -0.4219
 7938TIP3    H248010   4.949   2.631  12.724 -0.0647  1.7003 -0.2173
 7939TIP3   OH248011   4.307   3.343  12.720  0.7249 -0.2269 -0.1173
 7939TIP3    H148012   4.370   3.274  12.740 -0.5418 -0.6273  2.9787
 7939TIP3    H248013   4.327   3.413  12.782  1.0130  1.6487 -2.1947
 7940TIP3   OH248014   0.293   0.785  11.289 -0.2606 -0.4384  0.2376
 7940TIP3    H148015   0.313   0.746  11.204 -0.6505 -1.5627  0.6392
 7940TIP3    H248016   0.348   0.863  11.293  0.3622 -0.8052 -0.7105
 7941TIP3   OH248017   7.131   4.477  13.006  0.6869  0.5964 -0.4033
 7941TIP3    H148018   7.118   4.492  12.913  2.8801 -0.3052 -0.9166
 7941TIP3    H248019   7.150   4.383  13.013 -2.0738  0.0451  1.3374
 7942TIP3   OH248020   3.559   0.520  10.713  0.2518  0.0971 -0.0074
 7942TIP3    H148021   3.599   0.437  10.739  1.5645 -0.0556 -2.2624
 7942TIP3    H248022   3.483   0.496  10.660  0.1700  0.3408 -0.0061
 7943TIP3   OH248023   7.622   3.987  12.216  0.2102  0.2820 -0.1607
 7943TIP3    H148024   7.657   4.073  12.194 -0.5272  0.8866  0.9796
 7943TIP3    H248025   7.570   3.962  12.139 -0.2097  1.2040 -0.1863
 7944TIP3   OH248026   3.921   6.685  12.542 -0.2245  0.0548 -0.1334
 7944TIP3    H148027   3.977   6.758  12.513 -2.6420  2.6445  1.2684
 7944TIP3    H248028   3.926   6.688  12.638 -0.8557 -1.2461 -0.0441
 7945TIP3   OH248029   1.070   3.774  13.039 -0.3570  0.2647  0.2641
 7945TIP3    H148030   0.998   3.765  13.102  0.4616  0.5480  1.2527
 7945TIP3    H248031   1.145   3.732  13.082  0.2177  0.4862 -0.5120
 7946TIP3   OH248032   5.825   6.533  11.311  0.2032  0.3339 -0.1369
 7946TIP3    H148033   5.768   6.474  11.262 -1.5325  2.1486 -0.3946
 7946TIP3    H248034   5.820   6.502  11.401 -2.4485  1.3310  0.1205
 7947TIP3   OH248035   2.673   3.721  10.192 -0.1969 -0.4772  0.6523
 7947TIP3    H148036   2.587   3.700  10.229 -0.2366  0.2724  1.0170
 7947TIP3    H248037   2.672   3.682  10.105 -1.4306  0.6317  0.1290
 7948TIP3   OH248038   2.604   6.861  10.935  0.0493  0.2979  0.7086
 7948TIP3    H148039   2.697   6.863  10.910 -0.0129  1.2881  0.5412
 7948TIP3    H248040   2.605   6.824  11.023  0.6510  0.7007  0.8837
 7949TIP3   OH248041   4.115   0.920  11.039  0.2905  0.2087 -0.4386
 7949TIP3    H148042   4.139   0.864  11.112  2.7620  0.5527 -0.9048
 7949TIP3    H248043   4.047   0.978  11.074 -0.8682 -1.7132  0.6132
 7950TIP3   OH248044   2.621   5.951  10.527  0.3748  0.2512  0.4716
 7950TIP3    H148045   2.663   5.987  10.606  0.3028 -1.2157  1.2068
 7950TIP3    H248046   2.685   5.889  10.493 -0.0987  0.0001  0.0425
 7951TIP3   OH248047   3.991   4.807  12.179 -0.2631 -0.2754 -0.2914
 7951TIP3    H148048   3.946   4.820  12.263  1.6187 -0.5439  0.8221
 7951TIP3    H248049   3.928   4.834  12.113 -1.5792  0.5594  1.2495
 7952TIP3   OH248050   2.055   6.051  11.217 -0.7473 -0.0176  0.3553
 7952TIP3    H148051   2.070   6.057  11.311 -0.3684 -0.4163  0.3284
 7952TIP3    H248052   2.098   6.128  11.180  0.2381 -0.5285  0.3946
 7953TIP3   OH248053   6.266   7.050  12.379 -0.0423  0.2250  0.0330
 7953TIP3    H148054   6.359   7.069  12.390  0.0574  1.7808 -2.6308
 7953TIP3    H248055   6.244   6.991  12.452  3.0619 -0.4300  0.5539
 7954TIP3   OH248056   1.114   5.568  12.270  0.2266 -0.0558 -0.5443
 7954TIP3    H148057   1.026   5.572  12.308 -0.1913  0.6715 -1.5706
 7954TIP3    H248058   1.171   5.552  12.345 -0.4472  2.5075  0.6286
 7955TIP3   OH248059   4.758   1.313  12.377  0.1015 -0.2229  0.1416
 7955TIP3    H148060   4.701   1.318  12.454  0.5465 -0.4477  0.4874
 7955TIP3    H248061   4.822   1.383  12.390  1.1881 -1.3042  0.8038
 7956TIP3   OH248062   3.446   2.091  11.181 -0.0523  0.5528 -0.6020
 7956TIP3    H148063   3.499   2.154  11.131  1.2726  0.3481  0.4674
 7956TIP3    H248064   3.411   2.031  11.115  0.4361  1.1573 -1.4291
 7957TIP3   OH248065   4.295   5.507  10.787 -0.1456  0.3617 -0.0272
 7957TIP3    H148066   4.232   5.471  10.725 -1.4254  0.5215  1.1279
 7957TIP3    H248067   4.243   5.563  10.845  1.2714  1.4679  0.2280
 7958TIP3   OH248068   5.665   1.815  10.736  0.4705 -0.1833  0.2344
 7958TIP3    H148069   5.746   1.778  10.700  2.0928  2.5079  0.8698
 7958TIP3    H248070   5.681   1.820  10.830  0.0950  1.4941  0.2360
 7959TIP3   OH248071   0.683   3.167  11.217 -1.1919 -0.5114  0.1727
 7959TIP3    H148072   0.733   3.095  11.177 -0.0916 -0.8101  1.9757
 7959TIP3    H248073   0.608   3.125  11.258 -1.5207 -0.3942 -0.3049
 7960TIP3   OH248074   2.680   4.514  10.940 -0.2183  0.0996 -0.4027
 7960TIP3    H148075   2.625   4.552  10.872  0.5023  0.7765 -0.6134
 7960TIP3    H248076   2.691   4.584  11.004 -0.4082 -0.3480  0.1256
 7961TIP3   OH248077   0.491   4.655  12.268  0.3809 -0.0968 -0.3067
 7961TIP3    H148078   0.520   4.567  12.244 -0.8532 -0.7906  0.6596
 7961TIP3    H248079   0.519   4.666  12.359 -1.8622 -0.5925  0.4848
 7962TIP3   OH248080   0.089   2.607  11.704  0.3387  0.4802 -0.0120
 7962TIP3    H148081   0.013   2.610  11.646 -0.3229 -0.0380  0.8173
 7962TIP3    H248082   0.075   2.529  11.758  0.6011  1.3361  1.3263
 7963TIP3   OH248083   1.297   1.072  10.568  0.4673 -0.3045 -0.0658
 7963TIP3    H148084   1.302   1.167  10.562  0.0308 -0.1169  1.9845
 7963TIP3    H248085   1.371   1.041  10.514 -1.5185  0.9632 -3.9083
 7964TIP3   OH248086   3.944   7.660  12.541  0.1930  0.0240  0.3778
 7964TIP3    H148087   3.874   7.596  12.556 -1.0464  1.3794  0.5718
 7964TIP3    H248088   4.024   7.608  12.546 -0.7154 -1.3822  1.3424
 7965TIP3   OH248089   2.738   6.892  12.332 -1.0030  0.0907  0.3446
 7965TIP3    H148090   2.804   6.825  12.352 -1.5159 -0.5182  0.0205
 7965TIP3    H248091   2.776   6.973  12.366  0.1690 -0.1464 -0.3283
 7966TIP3   OH248092   5.402   4.298  12.558 -0.0429  0.1271 -0.0435
 7966TIP3    H148093   5.334   4.361  12.532 -0.5987 -0.1031  0.8199
 7966TIP3    H248094   5.358   4.240  12.620  1.4192  1.0853  1.9973
 7967TIP3   OH248095   0.589   5.542  11.190 -0.7616  0.2812  0.1073
 7967TIP3    H148096   0.646   5.546  11.114 -0.5456  0.9917  0.3033
 7967TIP3    H248097   0.607   5.455  11.228  0.4279  0.6007  0.3381
 7968TIP3   OH248098   3.275   0.219  11.312  0.2539  0.2080  0.2721
 7968TIP3    H148099   3.354   0.189  11.267  1.1882 -0.4944  2.2598
 7968TIP3    H248100   3.269   0.163  11.390 -2.3172  0.1242  0.1053
 7969TIP3   OH248101   1.474   6.007  12.210  0.2803  0.3591 -0.2377
 7969TIP3    H148102   1.470   6.101  12.226  1.4962  0.0793  2.1179
 7969TIP3    H248103   1.560   5.992  12.171  0.2662  0.1949 -0.2094
 7970TIP3   OH248104   1.985   7.571  10.543  0.3503 -0.1974  0.0065
 7970TIP3    H148105   2.021   7.517  10.473 -0.7820 -1.2983  0.2445
 7970TIP3    H248106   1.911   7.521  10.578 -1.0853  1.6988 -0.0926
 7971TIP3   OH248107   1.417   0.640  10.878 -0.1523  0.7257  0.0259
 7971TIP3    H148108   1.414   0.696  10.955  1.7725  1.9819 -0.7387
 7971TIP3    H248109   1.490   0.580  10.894 -1.3636 -0.7517  0.2589
 7972TIP3   OH248110   3.298   3.093  10.795 -0.0866 -0.1418  1.0914
 7972TIP3    H148111   3.239   3.145  10.848 -0.4009  1.6000 -0.8552
 7972TIP3    H248112   3.385   3.114  10.828 -0.2786  0.8876  0.9694
 7973TIP3   OH248113   6.619   1.773  11.319 -0.4644 -0.1731  0.6497
 7973TIP3    H148114   6.641   1.683  11.343  0.8643 -0.6245 -1.9273
 7973TIP3    H248115   6.699   1.823  11.335 -0.5487  0.1316  0.1409
 7974TIP3   OH248116   6.986   0.953  11.723 -0.1097  0.2265 -0.1666
 7974TIP3    H148117   7.058   0.999  11.680 -0.0101 -1.1167 -1.5261
 7974TIP3    H248118   6.969   0.878  11.667 -0.6181 -1.1152  1.7025
 7975TIP3   OH248119   4.849   5.799  11.689 -0.1819  0.4832 -0.0746
 7975TIP3    H148120   4.803   5.877  11.720  2.8149  2.0153  0.9293
 7975TIP3    H248121   4.790   5.726  11.710 -2.7731  2.3534 -0.3829
 7976TIP3   OH248122   6.552   2.817  11.182  0.0522  0.4488  0.5267
 7976TIP3    H148123   6.469   2.863  11.197 -1.3226 -0.9542 -1.9975
 7976TIP3    H248124   6.530   2.725  11.190  1.4295  0.0465 -0.0233
 7977TIP3   OH248125   1.348   2.528  10.883  0.1899 -0.4308 -0.3879
 7977TIP3    H148126   1.433   2.549  10.922 -0.1144 -0.7790  0.4680
 7977TIP3    H248127   1.321   2.447  10.925  0.3207 -1.3956 -2.0599
 7978TIP3   OH248128   4.583   6.228  12.016  0.2993 -0.0741 -0.4800
 7978TIP3    H148129   4.488   6.218  12.027  0.5421 -0.1411  2.0869
 7978TIP3    H248130   4.591   6.291  11.944 -1.8129  2.0024  0.9009
 7979TIP3   OH248131   4.075   0.338  12.248 -0.7927  0.5489  0.5212
 7979TIP3    H148132   4.112   0.250  12.239  0.1926  0.6712  2.7014
 7979TIP3    H248133   4.021   0.334  12.326 -1.9840  1.5139 -0.2234
 7980TIP3   OH248134   3.842   3.043  10.472  0.3600  0.0558 -0.2219
 7980TIP3    H148135   3.817   3.132  10.498  0.7350  0.4107 -1.0518
 7980TIP3    H248136   3.773   2.988  10.509  0.1231  0.6843  0.3097
 7981TIP3   OH248137   0.264   3.770  12.000 -0.6242 -0.4930 -0.1221
 7981TIP3    H148138   0.325   3.697  12.012  0.0715  0.2950  1.4480
 7981TIP3    H248139   0.246   3.771  11.906 -0.5371 -2.5739 -0.2082
 7982TIP3   OH248140   6.008   2.339  10.768 -0.2582  0.0373  0.3716
 7982TIP3    H148141   5.973   2.425  10.746 -0.5525 -0.5985 -1.9165
 7982TIP3    H248142   5.932   2.281  10.767  0.3920 -0.8595 -1.8298
 7983TIP3   OH248143   4.471   3.581  12.496 -0.2765  0.0503 -0.4189
 7983TIP3    H148144   4.524   3.602  12.573  0.1889 -0.2684 -0.6547
 7983TIP3    H248145   4.387   3.624  12.513 -0.7088 -1.2801  0.9764
 7984TIP3   OH248146   1.874   4.027  11.176 -0.0268  0.2528  0.5949
 7984TIP3    H148147   1.781   4.050  11.178 -0.2298 -0.3359 -0.7751
 7984TIP3    H248148   1.883   3.958  11.242 -0.2920  1.1764  1.6179
 7985TIP3   OH248149   4.970   2.468  11.501  0.0330 -0.1241  0.4648
 7985TIP3    H148150   5.044   2.521  11.471  0.3463 -0.0149  1.3946
 7985TIP3    H248151   4.906   2.475  11.431  0.3354  0.9549  0.2763
 7986TIP3   OH248152   0.844   4.662  13.202 -0.7427  0.2626  0.2552
 7986TIP3    H148153   0.937   4.682  13.190 -0.5725 -1.1211 -1.1343
 7986TIP3    H248154   0.843   4.587  13.261 -0.7145 -1.7389 -2.1432
 7987TIP3   OH248155   0.759   5.200  11.201 -0.3154 -0.1616 -0.4510
 7987TIP3    H148156   0.818   5.253  11.148  0.0514 -0.8489 -0.7319
 7987TIP3    H248157   0.689   5.261  11.226  0.3111  0.5631 -0.4144
 7988TIP3   OH248158   1.392   0.829  12.960  0.4160  0.2337 -0.4094
 7988TIP3    H148159   1.339   0.909  12.956 -0.8826 -0.5533  0.2764
 7988TIP3    H248160   1.401   0.801  12.869 -0.6827  0.1931 -0.5195
 7989TIP3   OH248161   0.163   3.727  11.151  0.2306 -0.3221 -0.5911
 7989TIP3    H148162   0.134   3.705  11.239  1.1698  0.2758 -0.1102
 7989TIP3    H248163   0.101   3.682  11.093  0.1206 -1.4376  0.3541
 7990TIP3   OH248164   7.279   7.239  11.486  0.1419 -0.6051 -0.3325
 7990TIP3    H148165   7.363   7.255  11.531 -0.0342 -0.2064 -0.1332
 7990TIP3    H248166   7.270   7.313  11.426 -0.0541 -0.6646 -0.3756
 7991TIP3   OH248167   1.389   3.947  11.430 -0.0713  0.0407  0.2710
 7991TIP3    H148168   1.339   3.932  11.350 -1.3571 -1.3280  1.2847
 7991TIP3    H248169   1.467   3.893  11.420 -0.3098 -0.2613  0.0116
 7992TIP3   OH248170   4.102   1.788  10.923  0.0832  0.7981 -0.6133
 7992TIP3    H148171   4.102   1.717  10.859  1.3078 -0.3524  0.5930
 7992TIP3    H248172   4.021   1.777  10.973 -0.7301  1.5231 -1.7157
 7993TIP3   OH248173   1.360   0.401  11.573 -0.1393  0.5549 -0.3009
 7993TIP3    H148174   1.445   0.377  11.534  0.5048  1.2995  0.5940
 7993TIP3    H248175   1.326   0.318  11.608 -1.3627 -0.4274 -3.4472
 7994TIP3   OH248176   1.433   2.838  11.571  0.1030  0.0826  0.5347
 7994TIP3    H148177   1.444   2.904  11.503 -1.3058  1.4644  1.5705
 7994TIP3    H248178   1.397   2.886  11.646 -2.7531 -2.1048  0.7511
 7995TIP3   OH248179   0.160   4.565  13.148 -0.4080  0.6894  0.2102
 7995TIP3    H148180   0.249   4.548  13.178 -0.2093  1.3989  0.0407
 7995TIP3    H248181   0.107   4.567  13.228 -0.4879 -0.8666  0.2379
 7996TIP3   OH248182   5.315   4.012  12.740  0.1919  0.6166  0.0128
 7996TIP3    H148183   5.270   3.987  12.821 -2.9311  0.1458 -1.7064
 7996TIP3    H248184   5.397   3.964  12.743 -1.4554 -2.4262  1.2637
 7997TIP3   OH248185   2.550   6.296  11.072 -0.1844 -0.1648 -0.0991
 7997TIP3    H148186   2.624   6.270  11.127  0.8474  1.1427 -0.7981
 7997TIP3    H248187   2.588   6.310  10.985 -1.3091  0.2478 -0.5512
 7998TIP3   OH248188   0.530   4.125  12.655  0.1346  0.1411 -0.2774
 7998TIP3    H148189   0.452   4.172  12.628 -0.4893 -0.6092  0.1895
 7998TIP3    H248190   0.500   4.037  12.675  0.7231  0.3335  1.7509
 7999TIP3   OH248191   0.373   2.740  11.439  0.2097  0.8081  0.1466
 7999TIP3    H148192   0.453   2.755  11.488  1.5585 -0.5554 -1.4902
 7999TIP3    H248193   0.402   2.728  11.348 -1.6668 -1.1247 -0.2973
 8000TIP3   OH248194   6.341   6.323  12.679 -0.1867 -0.1575  0.1408
 8000TIP3    H148195   6.402   6.352  12.612  0.8932 -2.2695  0.1376
 8000TIP3    H248196   6.393   6.266  12.736 -2.0310 -1.7134  0.3718
 8001TIP3   OH248197   1.405   4.741  12.043 -0.0631 -0.4021  0.0691
 8001TIP3    H148198   1.464   4.669  12.023  2.0860  1.3002 -0.1569
 8001TIP3    H248199   1.370   4.768  11.958 -0.6709 -0.9847  0.1267
 8002TIP3   OH248200   0.796   6.792  11.351 -0.0611 -0.4839 -0.1513
 8002TIP3    H148201   0.724   6.793  11.288 -0.5765  0.2512  0.4292
 8002TIP3    H248202   0.820   6.884  11.362 -1.6942 -0.2604  2.5915
 8003TIP3   OH248203   1.032   1.336  11.516 -0.1626 -0.2083 -0.4370
 8003TIP3    H148204   1.014   1.242  11.518 -0.6916 -0.2095 -2.8282
 8003TIP3    H248205   1.115   1.343  11.470 -0.4048  0.5142 -0.7713
 8004TIP3   OH248206   1.015   3.278  11.084 -0.0014 -1.0936 -0.9014
 8004TIP3    H148207   1.062   3.202  11.050 -0.9491 -0.7326 -3.1950
 8004TIP3    H248208   0.955   3.243  11.149 -0.3009 -2.2963 -1.8000
 8005TIP3   OH248209   2.214   0.713  11.270 -0.6248 -0.6276  0.0691
 8005TIP3    H148210   2.237   0.640  11.327 -1.9478  0.1714  1.6896
 8005TIP3    H248211   2.289   0.772  11.275  0.5389 -1.8894 -1.3977
 8006TIP3   OH248212   0.742   3.626  13.060 -0.1760  0.4892  0.8065
 8006TIP3    H148213   0.780   3.538  13.060  0.6165  0.7690 -1.3100
 8006TIP3    H248214   0.648   3.611  13.048  0.0599 -0.0911 -0.5517
 8007TIP3   OH248215   6.198   5.197  11.148 -0.0265  0.1877  0.4548
 8007TIP3    H148216   6.246   5.116  11.158 -0.7884 -0.1020  2.1360
 8007TIP3    H248217   6.250   5.250  11.088  1.4308 -0.8120  0.8141
 8008TIP3   OH248218   3.510   0.052  12.356 -0.2900 -0.2329 -0.0231
 8008TIP3    H148219   3.459  -0.028  12.348 -0.1382 -0.5771  1.9275
 8008TIP3    H248220   3.546   0.049  12.445 -1.6388  2.7915  0.7372
 8009TIP3   OH248221   0.668   7.620  11.434 -0.3090 -0.4306  0.1130
 8009TIP3    H148222   0.625   7.695  11.393  0.1380 -0.7217 -0.9192
 8009TIP3    H248223   0.599   7.578  11.485 -0.7791  0.1751 -0.0108
 8010TIP3   OH248224   2.048   2.462  11.536 -0.1452 -0.2911 -0.4489
 8010TIP3    H148225   2.110   2.482  11.467  1.3381  1.2699  1.2131
 8010TIP3    H248226   2.095   2.482  11.617 -1.9979 -1.4377  1.0020
 8011TIP3   OH248227   1.420   4.806  10.367  0.4357  0.4258  0.4170
 8011TIP3    H148228   1.380   4.731  10.323  0.6575  0.8280 -0.4942
 8011TIP3    H248229   1.512   4.802  10.340  1.0752 -0.5434  2.5508
 8012TIP3   OH248230   7.593   3.672  11.001 -0.5731  0.1573 -0.5613
 8012TIP3    H148231   7.532   3.667  11.075 -0.5113 -3.0118 -0.6004
 8012TIP3    H248232   7.552   3.618  10.933  1.1254 -0.0120 -1.4904
 8013TIP3   OH248233   4.372   0.652  13.152  0.0864  0.1808  0.4352
 8013TIP3    H148234   4.392   0.568  13.113  0.5114 -0.5380  2.1246
 8013TIP3    H248235   4.313   0.695  13.089 -0.1498 -1.3695 -0.4323
 8014TIP3   OH248236   4.827   5.451  11.060 -0.2136 -0.0356  0.6066
 8014TIP3    H148237   4.846   5.359  11.078 -0.8965 -0.2874  0.0992
 8014TIP3    H248238   4.731   5.454  11.053 -0.2460  0.8443  1.2999
 8015TIP3   OH248239   4.143   6.882  12.064  0.6498  0.1699  0.3356
 8015TIP3    H148240   4.048   6.891  12.064  0.6427  0.1716  1.3455
 8015TIP3    H248241   4.165   6.860  11.973 -0.3415 -0.1862  0.1703
 8016TIP3   OH248242   4.826   2.530  11.277 -0.5308  0.1040  0.6296
 8016TIP3    H148243   4.738   2.495  11.290 -1.5516  2.1392 -0.3619
 8016TIP3    H248244   4.853   2.495  11.192 -0.9507  0.5465  0.3107
 8017TIP3   OH248245   2.043   6.073  10.533 -0.1564 -0.5631 -0.0322
 8017TIP3    H148246   2.136   6.061  10.551 -0.2851 -0.8499  0.4812
 8017TIP3    H248247   2.032   6.168  10.528 -0.2247 -0.3866  2.2094
 8018TIP3   OH248248   3.681   3.951  13.148  0.2208 -0.5345  0.2952
 8018TIP3    H148249   3.767   3.989  13.169  0.0635 -0.1899  0.3190
 8018TIP3    H248250   3.693   3.857  13.162  0.6418 -0.5085  0.1463
 8019TIP3   OH248251   0.231   4.822  11.320 -0.2648 -0.6317  0.3301
 8019TIP3    H148252   0.241   4.768  11.240  1.6486  1.0493 -0.6746
 8019TIP3    H248253   0.160   4.883  11.299  0.1790 -0.2462 -0.0894
 8020TIP3   OH248254   3.274   7.612  11.970  0.3854 -0.2020 -0.1979
 8020TIP3    H148255   3.312   7.541  12.020  0.6353 -0.3569 -0.6017
 8020TIP3    H248256   3.342   7.679  11.967 -0.4131  0.7565  1.5691
 8021TIP3   OH248257   6.612   6.522  11.649 -0.7017 -0.3245 -0.3750
 8021TIP3    H148258   6.644   6.475  11.572 -0.7227  1.3276 -1.4645
 8021TIP3    H248259   6.667   6.601  11.652 -0.3234 -0.6332  1.6575
 8022TIP3   OH248260   4.255   5.932  10.551  0.1063 -0.3154  0.6528
 8022TIP3    H148261   4.261   5.995  10.478 -1.3192 -2.0002 -1.0237
 8022TIP3    H248262   4.338   5.886  10.550  0.4879  0.3579  0.7637
 8023TIP3   OH248263   2.742   3.789  10.623 -0.0328  0.0695  0.1432
 8023TIP3    H148264   2.821   3.755  10.581 -0.8192  0.1786 -1.4968
 8023TIP3    H248265   2.768   3.874  10.659  0.8712 -0.3957  0.6346
 8024TIP3   OH248266   2.711   5.570  12.282  0.1800 -0.0613 -0.0666
 8024TIP3    H148267   2.762   5.508  12.229 -2.4182 -0.9930 -1.6641
 8024TIP3    H248268   2.654   5.514  12.336 -0.3539  0.9295  0.4158
 8025TIP3   OH248269   1.925   5.584  13.354 -0.5358  0.2095  0.1238
 8025TIP3    H148270   2.021   5.582  13.362 -0.4897  1.8686  0.3315
 8025TIP3    H248271   1.907   5.657  13.296 -1.7026 -0.0417  0.1407
 8026TIP3   OH248272   1.388   3.527  11.363  0.0817  0.4303 -0.8438
 8026TIP3    H148273   1.436   3.447  11.339  1.0010  0.6153  0.2970
 8026TIP3    H248274   1.300   3.513  11.329  0.1436 -1.1956 -0.4182
 8027TIP3   OH248275   5.674   6.460  11.881 -0.5425  0.9008  0.0207
 8027TIP3    H148276   5.630   6.385  11.920  0.5157 -0.0206 -0.4957
 8027TIP3    H248277   5.691   6.520  11.954 -2.1872  1.0587  0.2943
 8028TIP3   OH248278   0.998   7.333  12.520 -0.3958  0.6242  0.1894
 8028TIP3    H148279   0.911   7.305  12.491  0.2494  0.3931 -1.6238
 8028TIP3    H248280   1.043   7.251  12.542 -0.5744  0.7343  0.9927
 8029TIP3   OH248281   2.409   4.485  12.738  0.0580  0.2561  0.1504
 8029TIP3    H148282   2.447   4.573  12.743 -1.3089  0.8127  2.1909
 8029TIP3    H248283   2.484   4.427  12.731  0.9622  1.5823 -3.0503
 8030TIP3   OH248284   6.111   5.978  12.768 -0.1040 -0.3932 -0.5892
 8030TIP3    H148285   6.115   6.018  12.681  0.4564 -2.1261 -1.4080
 8030TIP3    H248286   6.196   5.938  12.780 -1.2200 -2.9982 -0.7022
 8031TIP3   OH248287   3.685   4.243  12.776 -0.0156 -0.3098  0.3901
 8031TIP3    H148288   3.604   4.216  12.820  0.8732  0.6802  2.8102
 8031TIP3    H248289   3.665   4.235  12.682 -2.7757 -0.4325  0.8982
 8032TIP3   OH248290   6.337   3.382  13.536  0.5270 -0.3268 -0.4237
 8032TIP3    H148291   6.420   3.365  13.492  0.8477  0.5501 -0.1768
 8032TIP3    H248292   6.326   3.477  13.532 -0.5227 -0.4395 -0.5489
 8033TIP3   OH248293   2.315   4.988  12.249 -0.3835  0.0596  0.6254
 8033TIP3    H148294   2.380   4.918  12.237  0.1172  0.7089 -0.7110
 8033TIP3    H248295   2.365   5.069  12.236 -1.0674  0.6606  1.6247
 8034TIP3   OH248296   4.690   0.113  10.811 -0.1246 -0.5577 -0.0639
 8034TIP3    H148297   4.703   0.021  10.787  1.9737 -1.1168  2.6738
 8034TIP3    H248298   4.773   0.156  10.790  0.0188 -0.0155  1.4679
 8035TIP3   OH248299   4.222   0.166  11.756 -0.2011  0.2521 -0.2220
 8035TIP3    H148300   4.195   0.209  11.675 -0.9330 -0.7026 -0.5030
 8035TIP3    H248301   4.314   0.144  11.742  0.4832  2.5099  0.2926
 8036TIP3   OH248302   3.777   2.821  11.667  0.2354 -0.2028  0.6346
 8036TIP3    H148303   3.740   2.846  11.582  0.3802 -0.4422  0.4988
 8036TIP3    H248304   3.746   2.889  11.728  0.0448 -0.0884  0.4119
 8037TIP3   OH248305   2.761   5.663  11.872  0.1059 -0.1342 -0.3519
 8037TIP3    H148306   2.746   5.595  11.806 -0.1276 -0.2140 -0.2197
 8037TIP3    H248307   2.827   5.625  11.931 -1.0940 -0.8621  0.5749
 8038TIP3   OH248308   5.224   6.627  12.036 -0.1370  0.5264 -0.3221
 8038TIP3    H148309   5.233   6.534  12.054  2.0317  0.9150  1.0423
 8038TIP3    H248310   5.255   6.638  11.947  1.6393  0.1549  0.2102
 8039TIP3   OH248311   5.474   4.015  10.748 -0.1007 -0.3950 -0.7031
 8039TIP3    H148312   5.565   4.035  10.728  0.0148 -0.5364 -0.3245
 8039TIP3    H248313   5.466   4.032  10.842 -0.3038 -0.9935 -0.6113
 8040TIP3   OH248314   7.242   7.124  11.093  0.5731 -0.5949 -0.2715
 8040TIP3    H148315   7.218   7.214  11.070  2.3606 -0.2922 -1.1600
 8040TIP3    H248316   7.244   7.078  11.008  1.0912 -1.0984  0.0095
 8041TIP3   OH248317   0.476   7.327  12.420  0.5688  0.1488 -0.1178
 8041TIP3    H148318   0.400   7.287  12.378  0.4839  1.1303 -0.9448
 8041TIP3    H248319   0.442   7.369  12.499  0.0840  1.2443 -0.8804
 8042TIP3   OH248320   5.680   2.671  10.265  0.2587 -0.1194 -0.0405
 8042TIP3    H148321   5.629   2.748  10.289 -0.2556 -0.8967  1.4675
 8042TIP3    H248322   5.771   2.699  10.274  0.0913  0.5564 -0.3651
 8043TIP3   OH248323   6.604   3.467  11.496  0.2297  0.1057 -0.5472
 8043TIP3    H148324   6.520   3.449  11.538  0.8415  0.0674  0.7154
 8043TIP3    H248325   6.622   3.559  11.518  0.1397  0.3757 -1.5315
 8044TIP3   OH248326   4.327   1.821  10.304  0.5303  0.1536  0.0178
 8044TIP3    H148327   4.382   1.864  10.371  0.9455  0.8862 -0.7716
 8044TIP3    H248328   4.265   1.769  10.354  0.8674  0.6473  0.9807
 8045TIP3   OH248329   6.721   4.771  12.226  0.0217 -0.8770  0.3087
 8045TIP3    H148330   6.665   4.849  12.233 -2.4995 -2.3288 -1.8348
 8045TIP3    H248331   6.802   4.803  12.187 -0.0952  0.9724  1.4537
 8046TIP3   OH248332   1.397   7.102  10.410  0.2621  0.1956  0.3821
 8046TIP3    H148333   1.416   7.189  10.446 -2.2658  0.8422  0.3899
 8046TIP3    H248334   1.426   7.107  10.319  0.0224  1.1153  0.3385
 8047TIP3   OH248335   2.922   1.969  11.274 -0.0199 -0.0646 -0.3971
 8047TIP3    H148336   2.940   1.948  11.366 -1.1966  2.2416  0.4540
 8047TIP3    H248337   3.008   1.978  11.234  0.5247 -2.4222  0.0878
 8048TIP3   OH248338   7.618   4.944  12.451  0.3948 -0.1705 -0.7994
 8048TIP3    H148339   7.581   5.032  12.458  1.4556  0.2685 -0.5780
 8048TIP3    H248340   7.687   4.952  12.386  2.5569 -0.0852  1.3473
 8049TIP3   OH248341   1.351   6.066  11.054 -0.0701  0.0332  0.3180
 8049TIP3    H148342   1.416   6.011  11.010  0.7829  0.9945  0.3336
 8049TIP3    H248343   1.387   6.080  11.142  0.1761  1.2933  0.0464
 8050TIP3   OH248344   4.216   6.913  10.639  0.3545 -0.1838  0.0103
 8050TIP3    H148345   4.156   6.929  10.566 -0.2567  0.0396  0.5432
 8050TIP3    H248346   4.198   6.822  10.665  0.4667 -0.2160 -0.0254
 8051TIP3   OH248347   3.999   7.448  11.043 -0.0638 -0.2735  0.1222
 8051TIP3    H148348   3.980   7.451  11.137 -0.9772 -0.5939 -0.0453
 8051TIP3    H248349   4.030   7.358  11.028  1.3875  0.1592  0.3397
 8052TIP3   OH248350   5.685   7.255  12.687  0.2581 -0.8134  0.4935
 8052TIP3    H148351   5.605   7.216  12.721 -0.6917 -0.9176 -1.6892
 8052TIP3    H248352   5.688   7.342  12.726 -0.6986 -0.9667  0.9276
 8053TIP3   OH248353   6.329   5.647  11.860 -0.4546  0.9266  0.2613
 8053TIP3    H148354   6.373   5.676  11.780  1.6048 -1.0333  0.5880
 8053TIP3    H248355   6.270   5.719  11.882 -1.6983  1.2106 -3.4156
 8054TIP3   OH248356   2.726   4.318  10.388  0.5722 -0.1476  0.3224
 8054TIP3    H148357   2.661   4.380  10.353  1.6562 -0.0459 -1.6267
 8054TIP3    H248358   2.750   4.264  10.313  1.7394 -1.0786  1.3363
 8055TIP3   OH248359   3.332   5.489  11.207 -0.5734  0.1761  0.2461
 8055TIP3    H148360   3.398   5.492  11.276 -1.9491 -0.1686  1.6110
 8055TIP3    H248361   3.275   5.564  11.224  0.2981  1.4130 -1.8419
 8056TIP3   OH248362   2.213   5.004  11.715  0.9467 -0.1113 -0.0731
 8056TIP3    H148363   2.200   4.917  11.678 -2.5323  0.7766 -1.3284
 8056TIP3    H248364   2.236   4.988  11.807  1.6528 -2.2926 -0.5613
 8057TIP3   OH248365   1.634   6.589  13.160 -0.0110 -0.1227 -0.4509
 8057TIP3    H148366   1.634   6.598  13.065 -0.6363  1.1453 -0.3503
 8057TIP3    H248367   1.699   6.520  13.178  2.3329  1.6652 -1.6103
 8058TIP3   OH248368   7.607   6.720  12.561 -0.2836 -0.8446  0.1358
 8058TIP3    H148369   7.664   6.653  12.597  1.1023  0.1502 -0.0958
 8058TIP3    H248370   7.667   6.790  12.534 -1.4052 -0.6888 -2.2236
 8059TIP3   OH248371   5.269   6.690  11.750 -0.8560  0.2229 -0.1527
 8059TIP3    H148372   5.263   6.785  11.741 -1.0216  0.3679  1.1974
 8059TIP3    H248373   5.347   6.666  11.701 -0.0357  1.2474  0.5899
 8060TIP3   OH248374   7.105   7.677  11.154  0.0162  0.3958  0.3869
 8060TIP3    H148375   7.017   7.713  11.146  0.5245  1.6033  0.0353
 8060TIP3    H248376   7.144   7.725  11.228  0.3967 -0.0930  0.5119
 8061TIP3   OH248377   7.055   5.234  13.008  0.6948  0.3442 -0.4809
 8061TIP3    H148378   7.005   5.312  13.032  0.2633 -0.1937  0.3831
 8061TIP3    H248379   7.143   5.267  12.991  1.2837  0.6903  2.6328
 8062TIP3   OH248380   1.902   1.156  11.344  0.3069  0.2529  0.7014
 8062TIP3    H148381   1.868   1.198  11.423  1.6728  0.4959  1.1932
 8062TIP3    H248382   1.997   1.160  11.354  0.5187  0.4213 -1.0329
 8063TIP3   OH248383   0.785   6.993  11.993  0.1269 -0.2680 -0.0693
 8063TIP3    H148384   0.726   7.002  12.068  2.4848 -1.2061  2.0188
 8063TIP3    H248385   0.761   7.066  11.936 -3.0358 -0.6172  0.5928
 8064TIP3   OH248386   1.177   4.935  10.412 -0.7309 -0.4919  0.0960
 8064TIP3    H148387   1.263   4.905  10.380  0.8454  2.7104  0.9303
 8064TIP3    H248388   1.126   4.854  10.422  2.1852 -2.5619 -0.3815
 8065TIP3   OH248389   3.429   3.991  12.701 -0.0187  0.0794 -0.5304
 8065TIP3    H148390   3.429   4.077  12.743  0.5348 -0.7711  1.3154
 8065TIP3    H248391   3.367   4.000  12.629 -1.2681  1.5548  0.6439
 8066TIP3   OH248392   6.101   3.577  12.196  0.6024 -0.1722  0.6303
 8066TIP3    H148393   6.010   3.582  12.225  0.4889  1.2941  0.1295
 8066TIP3    H248394   6.098   3.602  12.104  1.6413  1.2899  0.9449
 8067TIP3   OH248395   4.697   6.419  12.713 -0.5512 -0.8073  0.2717
 8067TIP3    H148396   4.744   6.382  12.787  0.2935 -0.1706  0.0620
 8067TIP3    H248397   4.695   6.513  12.729  0.1437 -0.5919 -0.7803
 8068TIP3   OH248398   1.739   2.255  12.340 -0.2101  0.4851 -0.1134
 8068TIP3    H148399   1.729   2.163  12.364 -0.0676  0.8043  1.2902
 8068TIP3    H248400   1.669   2.300  12.388  1.1942  1.3871  1.1843
 8069TIP3   OH248401   3.453   3.493  10.178  0.4879  0.4663  0.1064
 8069TIP3    H148402   3.385   3.495  10.110 -0.7326 -1.1905  1.1968
 8069TIP3    H248403   3.520   3.435  10.142  1.9246  2.8952 -1.4089
 8070TIP3   OH248404   3.006   4.170  13.193 -0.0048 -0.1740 -0.1679
 8070TIP3    H148405   2.935   4.133  13.245 -0.5935 -0.6880 -1.3033
 8070TIP3    H248406   2.983   4.263  13.184 -0.1918 -0.2019  0.0142
 8071TIP3   OH248407   7.104   0.995  12.259  0.1650  0.1361 -0.1504
 8071TIP3    H148408   7.066   0.927  12.314 -1.2789 -1.0778 -2.4953
 8071TIP3    H248409   7.029   1.049  12.232  0.9641  1.2469 -0.2020
 8072TIP3   OH248410   6.794   6.589  12.214  0.0977 -0.5079  0.2057
 8072TIP3    H148411   6.787   6.663  12.155 -1.3138  0.7481  1.8360
 8072TIP3    H248412   6.842   6.622  12.289 -1.7922 -0.7417  1.5987
 8073TIP3   OH248413   2.607   2.889  11.141  0.5775  0.3094  0.2245
 8073TIP3    H148414   2.572   2.827  11.078  1.0377  0.7416 -0.4720
 8073TIP3    H248415   2.701   2.894  11.121  0.8430  0.0294  1.3162
 8074TIP3   OH248416   5.787   0.752  11.702 -0.8397  0.0947 -0.4005
 8074TIP3    H148417   5.795   0.666  11.744 -0.3368 -0.1216 -0.9229
 8074TIP3    H248418   5.696   0.778  11.717 -0.9871 -0.5169 -0.2143
 8075TIP3   OH248419   6.499   3.621  10.589  0.1616 -0.0567  0.0122
 8075TIP3    H148420   6.436   3.646  10.521  1.9863  2.0102 -1.0343
 8075TIP3    H248421   6.537   3.703  10.618  1.4580 -1.1367  1.5553
 8076TIP3   OH248422   0.788   2.623  11.795 -0.3982 -0.1076 -0.0809
 8076TIP3    H148423   0.795   2.539  11.842  0.4822  0.4067  0.7470
 8076TIP3    H248424   0.855   2.618  11.727  1.4431  0.8877  1.5678
 8077TIP3   OH248425   3.030   3.244  12.184  0.3986  0.0774  0.1238
 8077TIP3    H148426   3.102   3.285  12.136 -0.6221  0.2640 -1.3146
 8077TIP3    H248427   3.057   3.153  12.195  0.7651  0.0943 -0.6035
 8078TIP3   OH248428   1.469   4.307  10.516  0.0064 -0.0738  0.5167
 8078TIP3    H148429   1.396   4.302  10.578  0.8585  2.2903  1.8442
 8078TIP3    H248430   1.547   4.297  10.571  0.7350 -1.9017 -0.7873
 8079TIP3   OH248431   4.058   1.769  12.995 -0.2959  0.1209  0.2331
 8079TIP3    H148432   4.084   1.679  13.012 -0.4227  0.1513  0.5767
 8079TIP3    H248433   3.966   1.773  13.018  0.0501  0.7025  1.6138
 8080TIP3   OH248434   4.591   1.977  11.728  0.1111 -0.3978  0.1777
 8080TIP3    H148435   4.558   2.067  11.729  0.7159 -0.1663 -0.0544
 8080TIP3    H248436   4.568   1.943  11.642 -1.9552 -1.1830  0.9857
 8081TIP3   OH248437   7.616   0.017  10.671 -0.1003  0.0745 -0.3612
 8081TIP3    H148438   7.692  -0.036  10.696 -1.1382 -1.0159  0.6024
 8081TIP3    H248439   7.651   0.104  10.655  1.5321 -0.6696 -1.0853
 8082TIP3   OH248440   4.953   1.375  11.690 -0.1982  0.1579  0.0170
 8082TIP3    H148441   4.894   1.364  11.616  0.0522  0.8164 -0.2901
 8082TIP3    H248442   4.906   1.434  11.749  0.3743  1.1610 -0.4974
 8083TIP3   OH248443   5.906   6.957  11.698  0.2894 -0.1897  0.2700
 8083TIP3    H148444   5.993   6.924  11.679  0.1923  0.3067 -1.1170
 8083TIP3    H248445   5.850   6.879  11.702  0.6919 -0.4619  0.6161
 8084TIP3   OH248446   0.393   0.588  12.861  0.1675  0.6247 -0.4992
 8084TIP3    H148447   0.308   0.548  12.841 -0.2795  1.0833  0.4500
 8084TIP3    H248448   0.457   0.525  12.827 -0.5393  0.0774 -0.8535
 8085TIP3   OH248449   0.988   1.538  13.315 -0.4530  0.2075 -0.0800
 8085TIP3    H148450   1.030   1.475  13.256  0.5018  1.8446 -1.2108
 8085TIP3    H248451   0.903   1.499  13.335  0.2768 -1.6304 -0.3854
 8086TIP3   OH248452   4.280   2.334  12.748 -0.3326 -0.3606 -0.3082
 8086TIP3    H148453   4.232   2.271  12.802 -0.8957  0.1801 -0.1624
 8086TIP3    H248454   4.272   2.417  12.795  1.2515 -0.3671  0.0205
 8087TIP3   OH248455   1.003   3.663  10.393  0.5533 -0.1380 -0.1799
 8087TIP3    H148456   1.033   3.581  10.431  1.5388  0.6347  0.7598
 8087TIP3    H248457   0.970   3.714  10.467 -0.0636  0.3177 -0.7506
 8088TIP3   OH248458   4.771   2.272  10.734 -0.2780  1.1009 -0.2101
 8088TIP3    H148459   4.828   2.211  10.781  1.6578  0.5627 -2.9964
 8088TIP3    H248460   4.698   2.287  10.793  1.1418 -0.7847  2.2169
 8089TIP3   OH248461   1.750   3.491  11.257 -0.1834  0.1790 -0.0852
 8089TIP3    H148462   1.676   3.432  11.269  1.0331 -1.5925 -0.8769
 8089TIP3    H248463   1.718   3.557  11.195 -1.1677 -0.3896 -0.2099
 8090TIP3   OH248464   0.077   0.369  11.316  0.6923 -0.1912 -0.0054
 8090TIP3    H148465   0.155   0.329  11.276  0.1104 -1.6314  0.2171
 8090TIP3    H248466   0.112   0.430  11.381  1.6389  0.8527 -1.4323
 8091TIP3   OH248467   2.198   0.834  11.590 -0.9507  0.0370 -0.6887
 8091TIP3    H148468   2.151   0.789  11.660  1.7143  0.3161  1.4505
 8091TIP3    H248469   2.133   0.892  11.551 -2.8301 -0.9287  0.8378
 8092TIP3   OH248470   0.009   6.407  11.369  0.4626  0.0884 -0.0529
 8092TIP3    H148471   0.062   6.472  11.415 -1.3644 -0.0134  2.3937
 8092TIP3    H248472  -0.001   6.336  11.431 -1.3899 -0.4787 -0.9274
 8093TIP3   OH248473   0.689   0.921  10.713  0.0694 -0.0111  0.0172
 8093TIP3    H148474   0.715   1.013  10.703  0.5739  0.3247  3.2169
 8093TIP3    H248475   0.598   0.925  10.743 -0.0054 -0.5624 -0.1387
 8094TIP3   OH248476   6.455   4.496  11.733  0.2683  0.4097 -0.0567
 8094TIP3    H148477   6.482   4.586  11.714 -0.1333  0.7675  0.9707
 8094TIP3    H248478   6.368   4.489  11.696 -0.8669  1.3776  2.2025
 8095TIP3   OH248479   6.822   7.444  12.708 -0.0212  0.4600  0.1232
 8095TIP3    H148480   6.850   7.412  12.793  0.1315 -0.7880 -0.3829
 8095TIP3    H248481   6.854   7.534  12.704  0.4294  0.3508  1.1590
 8096TIP3   OH248482   0.865   3.772  13.234  0.2062 -0.0669 -0.0704
 8096TIP3    H148483   0.826   3.782  13.320 -0.3311  0.4756 -0.3663
 8096TIP3    H248484   0.817   3.701  13.193  0.8056 -0.6753  0.2562
 8097TIP3   OH248485   1.362   0.949  12.320  0.1738  0.2119  0.0943
 8097TIP3    H148486   1.434   0.935  12.382  0.3836 -0.8640 -0.3779
 8097TIP3    H248487   1.283   0.929  12.370  0.0312  2.8382  1.0716
 8098TIP3   OH248488   7.117   5.326  11.615  0.0607 -1.2634  0.1422
 8098TIP3    H148489   7.099   5.393  11.682  3.4270  0.0442 -0.0648
 8098TIP3    H248490   7.196   5.282  11.646  0.6725 -1.8529 -2.0974
 8099TIP3   OH248491   7.350   1.488  13.070  0.2330 -0.3330 -0.6640
 8099TIP3    H148492   7.292   1.557  13.100 -0.5178 -0.6578 -1.3211
 8099TIP3    H248493   7.346   1.494  12.974 -0.8822 -2.0986 -0.7683
 8100TIP3   OH248494   4.669   0.479  12.376  0.0717 -0.4661 -0.2903
 8100TIP3    H148495   4.672   0.563  12.330 -1.8953  0.0396  0.3875
 8100TIP3    H248496   4.640   0.416  12.310 -0.7347 -0.1347 -0.2723
 8101TIP3   OH248497   4.100   1.021  10.796 -0.5094 -0.1351  0.3483
 8101TIP3    H148498   4.120   0.985  10.882 -1.4404  0.9582  1.0574
 8101TIP3    H248499   4.015   0.983  10.773 -1.2972  1.1762  0.9153
 8102TIP3   OH248500   0.039   4.615  12.127  0.1250 -0.1502 -0.2040
 8102TIP3    H148501   0.113   4.660  12.086  0.7787  1.2860  2.3609
 8102TIP3    H248502   0.076   4.572  12.204 -0.9250 -3.3504 -1.3159
 8103TIP3   OH248503   4.381   5.711  11.103 -0.7423 -0.4028 -0.0949
 8103TIP3    H148504   4.444   5.776  11.134 -0.2675 -1.0260  0.2704
 8103TIP3    H248505   4.382   5.643  11.170 -1.4730 -0.6370 -0.3128
 8104TIP3   OH248506   7.076   7.219  10.757  0.2945  0.3647  0.0384
 8104TIP3    H148507   7.033   7.159  10.818 -1.0191  3.7700  2.7542
 8104TIP3    H248508   7.007   7.249  10.699  0.8333 -0.2394 -0.9529
 8105TIP3   OH248509   2.077   3.296  12.279 -0.0158 -0.3473 -0.1118
 8105TIP3    H148510   2.023   3.372  12.258 -0.4372 -0.4102  0.6884
 8105TIP3    H248511   2.044   3.267  12.364  2.4537  0.7047  1.3033
 8106TIP3   OH248512   1.240   1.683  12.171  0.0874 -0.3066  0.0590
 8106TIP3    H148513   1.271   1.605  12.218 -0.0280 -0.9107 -0.8317
 8106TIP3    H248514   1.172   1.649  12.112  0.4899  0.3594 -0.8024
 8107TIP3   OH248515   5.584   5.283  12.699 -0.0246  0.7880 -0.4301
 8107TIP3    H148516   5.565   5.197  12.662 -0.3598  0.3848  0.6394
 8107TIP3    H248517   5.524   5.291  12.774  0.4479  1.6836 -0.1307
 8108TIP3   OH248518   3.592   3.129  12.328  0.1312  0.7866  0.1441
 8108TIP3    H148519   3.557   3.041  12.340  0.6702  0.5259 -0.1998
 8108TIP3    H248520   3.520   3.177  12.286  0.5611 -0.0461 -1.6201
 8109TIP3   OH248521   4.438   7.033  11.873 -0.8287  0.1449  0.1714
 8109TIP3    H148522   4.499   6.989  11.814 -1.8119  0.7829 -1.3964
 8109TIP3    H248523   4.477   7.024  11.960  1.1716  0.0059 -0.6873
 8110TIP3   OH248524   1.623   5.614  12.026  0.5509 -0.1024 -0.3075
 8110TIP3    H148525   1.644   5.585  11.937  1.0339  0.1442 -0.2785
 8110TIP3    H248526   1.564   5.547  12.060 -1.0686  0.6703 -1.4372
 8111TIP3   OH248527   3.941   0.417  12.725 -0.1507 -0.1968 -0.0154
 8111TIP3    H148528   4.023   0.442  12.767 -0.0628 -0.2298 -0.1660
 8111TIP3    H248529   3.880   0.405  12.797 -0.3505  1.0032  0.0363
 8112TIP3   OH248530   0.992   5.028  10.675  0.2200  0.3761  0.0322
 8112TIP3    H148531   1.036   5.056  10.595  0.8271  0.7384  0.4900
 8112TIP3    H248532   0.999   5.102  10.735 -3.6144  1.6888 -0.8420
 8113TIP3   OH248533   1.062   4.349  12.465 -0.0682 -0.0165  0.1739
 8113TIP3    H148534   1.023   4.370  12.549 -1.9683  1.1368 -0.9195
 8113TIP3    H248535   1.010   4.398  12.401  2.4139  0.6099 -1.5394
 8114TIP3   OH248536   2.425   7.429  10.836  0.1173 -0.1139  0.1111
 8114TIP3    H148537   2.418   7.524  10.847 -0.8327 -0.2641  0.9160
 8114TIP3    H248538   2.517   7.415  10.814 -0.1609  1.2030 -2.2680
 8115TIP3   OH248539   6.668   4.952  13.575  0.4537  0.3440  0.1503
 8115TIP3    H148540   6.629   5.005  13.505  0.3276  0.7508  0.5235
 8115TIP3    H248541   6.757   4.987  13.585  0.9527 -0.6133 -0.7304
 8116TIP3   OH248542   6.247   3.591  13.264 -0.4605 -0.1871 -0.1091
 8116TIP3    H148543   6.262   3.624  13.353  0.6162 -0.6605 -0.0961
 8116TIP3    H248544   6.312   3.635  13.210  0.1029 -1.2308 -0.3234
 8117TIP3   OH248545   0.195   5.140  13.063 -0.2919  0.0368  0.5286
 8117TIP3    H148546   0.177   5.055  13.104  0.0129  0.7775  2.2736
 8117TIP3    H248547   0.132   5.200  13.102 -1.1064  0.4706 -1.3590
 8118TIP3   OH248548   7.485   3.094  11.975 -0.1710 -0.6573 -0.4008
 8118TIP3    H148549   7.483   3.120  11.883 -0.5455  0.3722 -0.1138
 8118TIP3    H248550   7.403   3.128  12.011 -0.4548 -1.8452  0.1139
 8119TIP3   OH248551   1.364   5.834  10.784 -0.4180  0.9846  0.0578
 8119TIP3    H148552   1.352   5.741  10.765  0.8695  0.3133  2.2705
 8119TIP3    H248553   1.428   5.863  10.719  2.0320 -0.6420  1.5838
 8120TIP3   OH248554   2.897   5.403  12.585  0.3611 -0.5046  0.5518
 8120TIP3    H148555   2.817   5.447  12.555  1.7604  0.4171 -2.2010
 8120TIP3    H248556   2.958   5.474  12.606  1.8135 -1.0369 -1.5386
 8121TIP3   OH248557   1.662   5.576  11.064 -0.3574  0.0260 -0.5544
 8121TIP3    H148558   1.753   5.602  11.072  0.1431 -1.4260 -1.2501
 8121TIP3    H248559   1.662   5.509  10.996 -1.6906 -1.2169  0.5987
 8122TIP3   OH248560   1.882   1.963  16.904  0.3312  0.2688 -0.6798
 8122TIP3    H148561   1.821   1.912  16.850 -1.1479 -0.7963  1.8011
 8122TIP3    H248562   1.954   1.902  16.923  0.2171  0.2099 -0.4297
 8123TIP3   OH248563   4.625   1.379  11.130  0.5164 -0.0490 -0.0201
 8123TIP3    H148564   4.567   1.436  11.080  0.1571  0.3497  0.8343
 8123TIP3    H248565   4.690   1.349  11.066  0.3409  0.8054 -0.6173
 8124TIP3   OH248566   1.440   7.255  10.882  0.0287 -0.2254  0.3050
 8124TIP3    H148567   1.396   7.178  10.847  1.3537 -1.3290  0.9670
 8124TIP3    H248568   1.422   7.253  10.976 -0.7050  0.8277  0.2096
 8125TIP3   OH248569   4.357   2.281  12.449  0.2704 -0.0437  0.0243
 8125TIP3    H148570   4.325   2.281  12.539  0.4500 -0.7501  0.0966
 8125TIP3    H248571   4.292   2.229  12.401  1.1720 -1.3062  0.1309
 8126TIP3   OH248572   5.092   1.750  11.138  0.3058 -0.0059 -0.4893
 8126TIP3    H148573   5.043   1.832  11.137 -0.1340 -0.2578 -0.3117
 8126TIP3    H248574   5.028   1.684  11.112  0.5282 -0.3510 -0.1793
 8127TIP3   OH248575   1.878   2.420  13.271  0.5131 -0.0005 -0.3315
 8127TIP3    H148576   1.902   2.498  13.220 -0.4550  0.4585 -0.1140
 8127TIP3    H248577   1.885   2.448  13.362  0.5441 -0.2905 -0.2432
 8128TIP3   OH248578   1.126   2.105  12.189 -0.1706 -0.2212  0.3464
 8128TIP3    H148579   1.167   2.078  12.107 -0.1416 -0.6283  0.4950
 8128TIP3    H248580   1.199   2.122  12.249 -0.1794 -3.1579  1.3448
 8129TIP3   OH248581   7.484   2.205  11.391  0.8960  0.1766 -0.4276
 8129TIP3    H148582   7.461   2.291  11.356 -0.3444 -0.1642 -0.4980
 8129TIP3    H248583   7.475   2.215  11.486 -2.9578 -0.7854 -0.5242
 8130TIP3   OH248584   0.031   6.419  11.803  0.0197  0.3558  0.4914
 8130TIP3    H148585  -0.060   6.448  11.804  0.5440  2.1394  0.4792
 8130TIP3    H248586   0.071   6.460  11.879  1.1189  0.6942 -0.2329
 8131TIP3   OH248587   1.645   4.142  12.543 -0.8546 -0.3457 -0.0728
 8131TIP3    H148588   1.709   4.083  12.583 -1.4394 -0.1510  1.1725
 8131TIP3    H248589   1.563   4.125  12.588 -1.1680  1.0211 -0.0676
 8132TIP3   OH248590   6.388   4.358  12.824 -0.0243  0.6133 -0.5582
 8132TIP3    H148591   6.480   4.384  12.814  0.1095 -0.2647 -1.8467
 8132TIP3    H248592   6.389   4.262  12.816 -1.1581  0.6654 -1.6637
 8133TIP3   OH248593   2.936   3.936  11.241 -0.0091  0.2887  0.4454
 8133TIP3    H148594   2.942   3.844  11.268  2.2352  0.6418  1.4093
 8133TIP3    H248595   2.859   3.970  11.287  0.2068 -0.6683  1.5593
 8134TIP3   OH248596   2.239   7.483  19.010  0.0255  0.1399 -0.5960
 8134TIP3    H148597   2.179   7.552  19.039 -0.5340  0.5198 -2.4887
 8134TIP3    H248598   2.187   7.402  19.016  0.3574  0.0073  0.6830
 8135TIP3   OH248599   2.206   5.018  13.063  0.7517 -0.2380  0.3316
 8135TIP3    H148600   2.189   4.924  13.053  1.8263 -0.5348  1.1738
 8135TIP3    H248601   2.120   5.059  13.058  0.4686 -0.9307 -3.2770
 8136TIP3   OH248602   6.278   4.839  11.046  0.1648 -0.0483 -0.0918
 8136TIP3    H148603   6.238   4.793  11.120  0.9188 -0.8187 -0.1431
 8136TIP3    H248604   6.352   4.784  11.022 -0.1174  0.1498 -1.4714
 8137TIP3   OH248605   4.579   0.332  13.128  0.1076  0.5472  0.3957
 8137TIP3    H148606   4.651   0.365  13.074 -0.2297 -0.3285 -0.6140
 8137TIP3    H248607   4.500   0.368  13.087 -0.1172  0.4046  0.6990
 8138TIP3   OH248608   0.620   0.185  11.298  0.0324  0.6414  0.3125
 8138TIP3    H148609   0.617   0.196  11.203 -0.8093  0.1215  0.2710
 8138TIP3    H248610   0.697   0.235  11.325  1.2285 -0.5128 -0.8044
 8139TIP3   OH248611   7.384   5.699  12.242  0.4731 -0.0737 -0.4577
 8139TIP3    H148612   7.406   5.781  12.198  2.8084 -1.1048 -1.3945
 8139TIP3    H248613   7.294   5.711  12.271  0.8190  2.8946 -0.3165
 8140TIP3   OH248614   2.063   0.546  11.012 -0.2490 -0.3132  0.0533
 8140TIP3    H148615   2.084   0.454  10.999 -0.2352 -0.6200  1.9128
 8140TIP3    H248616   2.109   0.570  11.092 -0.4849  1.2358 -0.2418
 8141TIP3   OH248617   2.658   4.537  11.731 -0.0524 -0.5377 -0.2478
 8141TIP3    H148618   2.722   4.554  11.800  1.6665 -2.1820 -1.3243
 8141TIP3    H248619   2.673   4.608  11.667  0.8112 -0.9611 -0.5368
 8142TIP3   OH248620   0.898   0.532  11.779 -0.2204 -0.1719 -0.0617
 8142TIP3    H148621   0.921   0.554  11.689 -0.8570  0.2656 -0.1203
 8142TIP3    H248622   0.962   0.465  11.804  0.2100 -0.0057 -0.6996
 8143TIP3   OH248623   5.137   4.839  12.239 -0.1127 -0.5371 -0.2033
 8143TIP3    H148624   5.167   4.782  12.169 -1.5144 -2.1318  0.4028
 8143TIP3    H248625   5.136   4.783  12.317  2.1565  1.3745  1.3457
 8144TIP3   OH248626   4.308   2.295  13.264 -0.0444  0.4531 -0.2336
 8144TIP3    H148627   4.331   2.309  13.356  0.1120 -0.0867 -0.1884
 8144TIP3    H248628   4.380   2.335  13.215  0.6779 -0.6530 -0.0992
 8145TIP3   OH248629   4.212   6.325  12.217 -0.3242 -0.2083  0.3536
 8145TIP3    H148630   4.249   6.317  12.129  0.5026 -0.4395  0.7123
 8145TIP3    H248631   4.215   6.418  12.236  0.0382 -0.2209  0.3622
 8146TIP3   OH248632   7.180   1.405  10.662  0.0830  0.1402  0.0468
 8146TIP3    H148633   7.195   1.429  10.754  0.1543  0.8222 -0.1330
 8146TIP3    H248634   7.228   1.472  10.613 -0.3110  0.0291 -0.4901
 8147TIP3   OH248635   0.619   4.415  12.039  0.2356 -0.2066  0.0830
 8147TIP3    H148636   0.683   4.486  12.048 -0.8665  0.5667  2.8351
 8147TIP3    H248637   0.552   4.451  11.981  0.1565  0.6884  0.7024
 8148TIP3   OH248638   2.026   5.717  12.250  0.3933 -0.2779 -0.7808
 8148TIP3    H148639   2.114   5.723  12.214  1.1307 -1.6304  0.6317
 8148TIP3    H248640   2.014   5.623  12.267 -1.2405 -0.0934 -0.7361
 8149TIP3   OH248641   1.309   0.189  10.852 -0.3193  0.7459  0.4829
 8149TIP3    H148642   1.311   0.282  10.827 -1.5040  0.7059  0.1751
 8149TIP3    H248643   1.217   0.165  10.847  0.2053 -1.1425 -1.9845
 8150TIP3   OH248644   2.563   2.086  11.782 -0.1260  0.1687  0.6579
 8150TIP3    H148645   2.470   2.107  11.775 -0.1470 -0.2024 -0.4787
 8150TIP3    H248646   2.607   2.165  11.750 -0.1457 -0.5037 -1.2014
 8151TIP3   OH248647   6.705   2.075  12.133  0.1679  0.3622  0.1143
 8151TIP3    H148648   6.644   2.048  12.202  1.2997 -0.5040  0.8353
 8151TIP3    H248649   6.716   2.169  12.145 -0.0383  0.3029  0.8101
 8152TIP3   OH248650   0.908   5.538  10.489 -0.2515 -0.1889 -0.3005
 8152TIP3    H148651   0.926   5.522  10.581 -4.0830 -0.1432  0.6204
 8152TIP3    H248652   0.991   5.571  10.454  1.0788  0.8279  3.3479
 8153TIP3   OH248653   7.432   6.541  11.454  0.2336  0.1679 -0.1111
 8153TIP3    H148654   7.408   6.615  11.399 -0.7775 -0.7096 -0.8979
 8153TIP3    H248655   7.514   6.508  11.416 -0.9154 -0.9826 -1.7180
 8154TIP3   OH248656   0.419   6.028  13.021  0.2497 -0.5493 -0.5939
 8154TIP3    H148657   0.435   6.122  13.027  0.5394 -0.6042 -0.4570
 8154TIP3    H248658   0.452   6.004  12.934 -0.4350 -0.4124 -0.8964
 8155TIP3   OH248659   2.275   1.838  11.902  0.3258 -0.4521 -0.0263
 8155TIP3    H148660   2.309   1.827  11.991  0.9423  0.3122 -0.1587
 8155TIP3    H248661   2.188   1.799  11.905  0.2226 -0.1630  0.9892
 8156TIP3   OH248662   4.734   2.840  12.364 -0.1152  0.6290 -0.7745
 8156TIP3    H148663   4.670   2.885  12.308 -0.9700 -1.3315 -1.4758
 8156TIP3    H248664   4.788   2.910  12.400 -1.3132  2.1862 -1.8620
 8157TIP3   OH248665   0.575   0.260  12.979 -0.0743 -0.2926  0.0132
 8157TIP3    H148666   0.481   0.247  12.970  0.2168 -2.7544 -0.1078
 8157TIP3    H248667   0.606   0.185  13.029  1.6769  1.1407  1.2243
 8158TIP3   OH248668   2.796   1.346  10.749 -0.4422  0.0086 -0.2336
 8158TIP3    H148669   2.707   1.338  10.714 -1.0455 -0.7294  1.3868
 8158TIP3    H248670   2.815   1.260  10.787  0.8282  0.2692 -0.2286
 8159TIP3   OH248671   3.598   7.350  11.077 -0.4449 -0.4973  0.5068
 8159TIP3    H148672   3.642   7.433  11.095  1.4484 -1.0641 -1.1791
 8159TIP3    H248673   3.575   7.316  11.164 -2.0746  2.1370  1.2057
 8160TIP3   OH248674   1.251   7.650  11.927 -0.4948 -0.4153  0.3099
 8160TIP3    H148675   1.172   7.642  11.980 -1.0049  2.2203  0.1114
 8160TIP3    H248676   1.319   7.678  11.988 -0.3666 -0.1523  0.0515
 8161TIP3   OH248677   0.459   6.446  12.476  0.0130 -0.0038  0.2654
 8161TIP3    H148678   0.482   6.412  12.390  1.1165 -1.5494  1.1144
 8161TIP3    H248679   0.519   6.519  12.491  1.1740 -0.9601  0.4757
 8162TIP3   OH248680   0.093   0.082  12.025  0.1679 -0.0176  0.0879
 8162TIP3    H148681   0.136   0.165  12.043  0.2282  0.0066 -0.1628
 8162TIP3    H248682   0.123   0.058  11.937 -0.1148 -0.1361  0.0237
 8163TIP3   OH248683   2.613   6.128  11.755 -0.5623  0.3738 -0.0597
 8163TIP3    H148684   2.627   6.055  11.817 -1.1618  1.0166  0.8519
 8163TIP3    H248685   2.626   6.088  11.669  0.3738 -0.5330  0.4638
 8164TIP3   OH248686   2.159   7.577  12.435  0.5348 -0.1029  0.1239
 8164TIP3    H148687   2.124   7.557  12.522  1.5769  1.1764  0.8636
 8164TIP3    H248688   2.243   7.532  12.432 -0.1924 -1.4842 -0.8791
 8165TIP3   OH248689   3.651   5.247  12.576  0.0827 -0.3913  0.4462
 8165TIP3    H148690   3.639   5.322  12.634  3.9124  0.1088  0.8536
 8165TIP3    H248691   3.604   5.175  12.619 -0.8969  0.9912  1.7791
 8166TIP3   OH248692   2.944   2.642  12.373  0.0769  0.1212  0.1567
 8166TIP3    H148693   2.881   2.640  12.445 -0.5997  0.7913 -0.4050
 8166TIP3    H248694   2.997   2.564  12.385 -0.7757 -0.3812  0.7118
 8167TIP3   OH248695   0.031   5.601  11.566 -0.0388 -0.2719 -0.1663
 8167TIP3    H148696   0.105   5.540  11.568  0.6845  0.6168  1.3357
 8167TIP3    H248697  -0.044   5.546  11.544  0.9967 -1.2383 -1.4895
 8168TIP3   OH248698   4.563   6.452  11.444 -0.0566 -0.8146  0.2639
 8168TIP3    H148699   4.618   6.418  11.515 -0.9206 -2.8347  0.0366
 8168TIP3    H248700   4.623   6.504  11.390  1.7700 -3.1108 -0.1001
 8169TIP3   OH248701   5.503   7.589  12.310  0.1083  0.0836 -0.2069
 8169TIP3    H148702   5.535   7.501  12.332  1.6326  0.7057  0.1879
 8169TIP3    H248703   5.431   7.574  12.249 -0.8482 -1.5112  1.2120
 8170TIP3   OH248704   2.589   7.543  12.762  0.0893 -0.1636  0.6685
 8170TIP3    H148705   2.653   7.472  12.764 -2.0992 -2.4047 -1.2447
 8170TIP3    H248706   2.630   7.614  12.810  3.6015 -1.7367  0.3064
 8171TIP3   OH248707   0.788   2.676  10.659  0.3086  0.4276  0.4358
 8171TIP3    H148708   0.724   2.655  10.726 -0.4527 -1.2313 -0.7515
 8171TIP3    H248709   0.737   2.708  10.585  0.8346 -0.6587 -0.4300
 8172TIP3   OH248710   0.031   3.486  11.308  0.0788 -0.2532  0.5847
 8172TIP3    H148711   0.107   3.430  11.327  1.0250  0.6948 -0.2806
 8172TIP3    H248712  -0.023   3.433  11.250  1.6109  0.1364 -1.3213
 8173TIP3   OH248713   7.633   7.432  10.906  0.5008  0.3382  0.8135
 8173TIP3    H148714   7.715   7.463  10.867  0.7991 -1.9187 -0.5828
 8173TIP3    H248715   7.660   7.358  10.961 -0.3817  1.0682  2.2763
 8174TIP3   OH248716   0.927   3.460  10.823 -0.4276  0.1409  0.3127
 8174TIP3    H148717   0.888   3.391  10.876 -1.0000 -0.2241 -0.5493
 8174TIP3    H248718   0.933   3.536  10.881 -2.3437  0.1787  0.5227
 8175TIP3   OH248719   1.598   6.691  12.249 -0.2557 -0.1019  0.0201
 8175TIP3    H148720   1.665   6.740  12.201  0.0470  0.7456  1.2782
 8175TIP3    H248721   1.629   6.689  12.339 -1.0333 -1.2909  0.2773
 8176TIP3   OH248722   5.369   2.007  10.531  0.7766 -0.4501 -0.0727
 8176TIP3    H148723   5.297   1.981  10.473  0.2697  0.5865  0.0820
 8176TIP3    H248724   5.342   1.977  10.618  0.8135 -0.6033 -0.1137
 8177TIP3   OH248725   3.848   0.508  12.431  0.5826  0.0483  0.7659
 8177TIP3    H148726   3.843   0.448  12.505  1.3384 -0.5239  0.3719
 8177TIP3    H248727   3.937   0.541  12.432  0.8250 -0.5106 -0.2850
 8178TIP3   OH248728   2.833   2.277  12.852  0.1357  0.3809  0.3480
 8178TIP3    H148729   2.849   2.263  12.945  0.3568  1.4651  0.4890
 8178TIP3    H248730   2.784   2.359  12.848 -2.9692 -1.3537 -0.2807
 8179TIP3   OH248731   3.053   2.326  10.216 -0.3796 -0.0506  0.2304
 8179TIP3    H148732   3.035   2.348  10.124  1.5091  1.7672  0.2048
 8179TIP3    H248733   3.091   2.238  10.212  0.4805  0.3345 -0.8709
 8180TIP3   OH248734   2.418   2.485  12.958 -0.2346  0.3005 -0.3676
 8180TIP3    H148735   2.327   2.501  12.933 -0.5744 -0.6378  0.2228
 8180TIP3    H248736   2.413   2.451  13.047  0.6212 -0.7930 -0.7213
 8181TIP3   OH248737   5.151   7.475  10.652 -0.3692 -0.1602 -0.2318
 8181TIP3    H148738   5.126   7.401  10.596 -0.5882 -1.3068  1.3048
 8181TIP3    H248739   5.231   7.509  10.613  0.7419 -2.3499 -0.0367
 8182TIP3   OH248740   6.379   4.806  11.641 -0.0073  0.3368  0.4192
 8182TIP3    H148741   6.401   4.880  11.697  0.2922  0.6554 -0.1032
 8182TIP3    H248742   6.453   4.798  11.581  0.4352 -1.0299  1.0991
 8183TIP3   OH248743   4.661   2.174  10.470 -0.8617 -0.1542  0.5801
 8183TIP3    H148744   4.725   2.206  10.407 -0.7601 -0.6376  0.4340
 8183TIP3    H248745   4.690   2.209  10.554 -0.7998  0.2035  0.4098
 8184TIP3   OH248746   0.337   6.810  10.972 -0.7340 -0.6955 -0.0804
 8184TIP3    H148747   0.277   6.791  11.044 -0.9205 -1.7728 -0.5028
 8184TIP3    H248748   0.422   6.822  11.013 -0.9006 -0.9690  0.3486
 8185TIP3   OH248749   7.540   6.691  12.103  0.4406 -0.0109  0.1469
 8185TIP3    H148750   7.520   6.615  12.158  1.6302  2.0216  3.7757
 8185TIP3    H248751   7.629   6.676  12.073  0.0502 -0.8140 -0.6326
 8186TIP3   OH248752   6.958   4.859  12.137  0.4018  0.9475 -0.0666
 8186TIP3    H148753   7.036   4.877  12.190  1.9623  0.1329 -1.9788
 8186TIP3    H248754   6.947   4.938  12.084  0.7663  0.5211 -0.7834
 8187TIP3   OH248755   4.719   4.317  11.532  0.0554 -0.3998 -0.6823
 8187TIP3    H148756   4.810   4.327  11.560  0.1376  0.9109 -1.3539
 8187TIP3    H248757   4.724   4.280  11.444  0.0276  1.4153 -1.4781
 8188TIP3   OH248758   4.939   3.626  11.669 -0.3253 -0.7218 -0.3155
 8188TIP3    H148759   4.903   3.610  11.582  0.5375  0.7088 -0.9807
 8188TIP3    H248760   4.887   3.699  11.703  0.7158  0.1383 -0.5304
 8189TIP3   OH248761   4.898   2.856  10.366 -0.1338  0.3251 -0.6626
 8189TIP3    H148762   4.912   2.894  10.453 -2.6174 -1.7630  0.8264
 8189TIP3    H248763   4.849   2.922  10.318  2.2989  1.9972 -1.0213
 8190TIP3   OH248764   4.782   4.552  12.549 -0.3641  0.8580 -0.2530
 8190TIP3    H148765   4.808   4.531  12.459 -0.2257  1.5318 -0.3816
 8190TIP3    H248766   4.814   4.641  12.562  0.5638  0.3820  0.8405
 8191TIP3   OH248767   0.117   2.046  11.103 -0.1151 -0.1222 -0.3728
 8191TIP3    H148768   0.194   2.060  11.158  1.6977 -2.3461 -2.1467
 8191TIP3    H248769   0.088   2.134  11.078  1.4009  0.7848  0.9217
 8192TIP3   OH248770   5.857   3.605  13.605  0.2183  0.0451 -0.2690
 8192TIP3    H148771   5.816   3.523  13.630 -0.6777 -0.1291 -2.1270
 8192TIP3    H248772   5.888   3.643  13.687 -1.9779 -0.7290  0.9988
 8193TIP3   OH248773   1.535   2.271  10.778  0.2626  0.5098  0.0072
 8193TIP3    H148774   1.556   2.206  10.711 -1.1261  0.2774 -0.2366
 8193TIP3    H248775   1.570   2.353  10.744 -2.3119  0.8623 -2.1567
 8194TIP3   OH248776   2.267   4.428  11.601 -0.3735 -0.2605  0.3595
 8194TIP3    H148777   2.187   4.463  11.641 -0.8735 -0.6626 -0.2800
 8194TIP3    H248778   2.247   4.422  11.508  0.5189 -0.0641  0.1480
 8195TIP3   OH248779   2.387   5.347  13.397  0.0292 -0.2687  0.1950
 8195TIP3    H148780   2.365   5.279  13.332 -0.4060 -1.6122  1.6862
 8195TIP3    H248781   2.474   5.376  13.372  0.7294 -2.2139  0.1546
 8196TIP3   OH248782   6.046   0.850  11.223 -0.1279 -0.0379  0.1697
 8196TIP3    H148783   5.951   0.837  11.214  0.0222 -2.1474  1.0641
 8196TIP3    H248784   6.084   0.785  11.165  0.8081  0.7973 -0.1801
 8197TIP3   OH248785   5.054   2.699  12.430  0.1358  0.1918 -0.4793
 8197TIP3    H148786   4.966   2.694  12.468  0.3543 -2.5562 -0.1429
 8197TIP3    H248787   5.109   2.648  12.488  1.9462  1.5822 -0.8756
 8198TIP3   OH248788   2.787   4.826  11.386  0.2187 -0.2518  0.2969
 8198TIP3    H148789   2.760   4.745  11.341  0.2236 -1.2599  2.0115
 8198TIP3    H248790   2.780   4.894  11.319  2.4035 -1.9893 -1.8896
 8199TIP3   OH248791   3.864   2.296  11.298  0.3846 -0.0419  0.3240
 8199TIP3    H148792   3.926   2.258  11.360  0.6789  1.3535  0.9191
 8199TIP3    H248793   3.831   2.374  11.342  0.1980  0.6915 -1.0716
 8200TIP3   OH248794   2.565   1.084  12.790 -0.3064  0.1217 -0.2796
 8200TIP3    H148795   2.627   1.043  12.850  2.2136  1.8977 -1.5008
 8200TIP3    H248796   2.527   1.010  12.741  0.4799 -1.0578  0.8237
 8201TIP3   OH248797   1.084   5.681  11.325  0.1105  0.2115 -0.2548
 8201TIP3    H148798   1.117   5.732  11.399 -0.2150  0.3784 -0.2193
 8201TIP3    H248799   1.007   5.729  11.296  0.7255  0.6191 -1.2565
 8202TIP3   OH248800   2.095   1.486  12.206 -0.2979 -0.3258  0.1455
 8202TIP3    H148801   2.092   1.394  12.231 -0.3749 -0.3258  0.1369
 8202TIP3    H248802   2.007   1.505  12.173  0.4709 -1.0018 -2.5808
 8203TIP3   OH248803   0.275   5.517  13.256 -0.5179 -0.3663 -0.4174
 8203TIP3    H148804   0.180   5.530  13.251 -0.3670  0.4335 -1.5184
 8203TIP3    H248805   0.303   5.573  13.330 -1.0084 -1.3892  0.5725
 8204TIP3   OH248806   6.974   3.090  11.012  0.1789  0.0280 -0.0219
 8204TIP3    H148807   6.880   3.086  10.990  0.5203 -1.6214 -1.3740
 8204TIP3    H248808   7.001   3.178  10.985 -0.5374 -0.2138 -1.6184
 8205TIP3   OH248809   0.509   6.848  10.743 -0.1159 -0.3298 -0.5774
 8205TIP3    H148810   0.422   6.820  10.771  0.7207 -2.4843  0.0526
 8205TIP3    H248811   0.570   6.795  10.794  1.5795  0.5256 -1.5855
 8206TIP3   OH248812   0.629   3.793  12.069  0.0794 -0.0155  0.3235
 8206TIP3    H148813   0.652   3.705  12.040 -0.0912  0.3669 -1.0547
 8206TIP3    H248814   0.565   3.779  12.139 -0.4034 -0.9853 -0.2914
 8207TIP3   OH248815   6.779   2.084  12.430 -0.1973  0.4030  0.1899
 8207TIP3    H148816   6.697   2.103  12.474  0.8161  0.2431  2.2417
 8207TIP3    H248817   6.774   1.991  12.409 -0.6837  0.4809 -0.0555
 8208TIP3   OH248818   6.549   1.983  10.703 -0.6220 -0.0002 -0.5614
 8208TIP3    H148819   6.489   1.915  10.733  0.3152  0.3068  2.2964
 8208TIP3    H248820   6.543   2.052  10.769  1.3726  0.9217 -1.2582
 8209TIP3   OH248821   5.941   5.260  11.813  0.0133 -0.0537 -0.3902
 8209TIP3    H148822   5.939   5.336  11.755  1.9813  1.6022  1.5044
 8209TIP3    H248823   6.012   5.205  11.779 -1.5662 -1.2349 -1.9006
 8210TIP3   OH248824   3.696   5.883  12.129 -0.7882 -0.3748  0.1942
 8210TIP3    H148825   3.713   5.831  12.208 -1.9937  1.0074  1.4290
 8210TIP3    H248826   3.615   5.929  12.148 -1.2261 -0.1464 -1.9708
 8211TIP3   OH248827   1.121   6.268  11.863 -0.2140  0.3924 -0.3625
 8211TIP3    H148828   1.105   6.360  11.845 -0.5885  0.5732  0.7781
 8211TIP3    H248829   1.209   6.266  11.901 -0.1135  0.2436 -0.5987
 8212TIP3   OH248830   7.522   0.266  11.043 -0.1338 -0.7756  0.2596
 8212TIP3    H148831   7.473   0.211  10.981 -2.3314  0.7204  0.5417
 8212TIP3    H248832   7.508   0.224  11.128  0.1907 -1.0681  0.1711
 8213TIP3   OH248833   0.523   5.957  10.532  0.3782  0.4462  0.2004
 8213TIP3    H148834   0.567   6.019  10.589  0.2981 -1.2097  2.1707
 8213TIP3    H248835   0.582   5.881  10.529 -0.2503 -0.0295 -0.8757
 8214TIP3   OH248836   0.700   1.033  12.331 -0.0831  0.1877 -0.1263
 8214TIP3    H148837   0.651   0.954  12.306 -0.7333  0.9219 -1.2634
 8214TIP3    H248838   0.745   1.059  12.251  1.2144  0.2278  0.5910
 8215TIP3   OH248839   5.282   1.495  11.270  0.1784  0.2827 -0.2786
 8215TIP3    H148840   5.264   1.577  11.315  1.1060  0.2402  0.2108
 8215TIP3    H248841   5.228   1.430  11.316 -0.4912  0.6011 -0.6124
 8216TIP3   OH248842   0.211   4.243  13.205 -0.1770  0.0109 -0.2253
 8216TIP3    H148843   0.180   4.239  13.114 -0.1042 -1.3670 -0.2172
 8216TIP3    H248844   0.305   4.229  13.199 -0.3386 -1.4862  0.1188
 8217TIP3   OH248845   0.635   1.461  12.257 -0.5960 -0.3925 -0.1779
 8217TIP3    H148846   0.660   1.395  12.321 -0.3259 -1.2850 -1.1659
 8217TIP3    H248847   0.542   1.443  12.239 -0.5609 -0.4194 -0.3368
 8218TIP3   OH248848   3.817   6.836  10.831  0.1599  0.0811  0.0630
 8218TIP3    H148849   3.851   6.861  10.745  1.9493 -2.1132  0.0225
 8218TIP3    H248850   3.723   6.824  10.818  0.3359  0.2413 -1.4723
 8219TIP3   OH248851   7.221   3.687  10.895 -0.3621  0.0828  0.3087
 8219TIP3    H148852   7.258   3.619  10.837 -2.4994 -2.2708  1.4811
 8219TIP3    H248853   7.278   3.687  10.972  0.3213  0.5009 -0.1860
 8220TIP3   OH248854   2.523   1.635  11.944  0.7327  0.2001  0.7916
 8220TIP3    H148855   2.486   1.684  12.017  1.6546 -0.6885  1.8920
 8220TIP3    H248856   2.482   1.549  11.949  0.1889  0.3778 -0.2586
 8221TIP3   OH248857   4.374   6.599  12.910  0.0374 -0.4806 -0.7099
 8221TIP3    H148858   4.445   6.545  12.945  0.0977 -0.3984 -0.7027
 8221TIP3    H248859   4.294   6.554  12.936  0.0473  0.1246  0.4602
 8222TIP3   OH248860   7.428   4.916  12.978  0.3872 -0.4624 -0.5131
 8222TIP3    H148861   7.479   4.973  12.921  1.1550  0.3704  0.9486
 8222TIP3    H248862   7.370   4.975  13.026  0.4140 -1.0167  0.2285
 8223TIP3   OH248863   4.345   3.581  11.434  0.4181  0.3997  0.2393
 8223TIP3    H148864   4.346   3.659  11.489 -0.4754  1.2977 -0.9731
 8223TIP3    H248865   4.314   3.511  11.491  0.7046  1.0466  1.1985
 8224TIP3   OH248866   4.573   5.735  12.378  0.0503 -0.4700 -0.5874
 8224TIP3    H148867   4.523   5.671  12.328  0.4380 -0.3629 -1.1149
 8224TIP3    H248868   4.615   5.684  12.448  0.2990 -0.7788 -0.9600
 8225TIP3   OH248869   2.508   3.590  12.827  0.5823 -0.1581  0.6810
 8225TIP3    H148870   2.457   3.513  12.804  1.2721  0.0630 -1.8018
 8225TIP3    H248871   2.598   3.559  12.832  0.7059  0.2407  0.9702
 8226TIP3   OH248872   0.125   3.998  13.762 -0.1472 -0.0553  0.2608
 8226TIP3    H148873   0.136   4.018  13.855  1.2398 -2.6672  0.7453
 8226TIP3    H248874   0.164   4.073  13.717 -1.6947  1.7102  1.6946
 8227TIP3   OH248875   4.980   5.311  12.252 -0.6968  0.1916 -0.1979
 8227TIP3    H148876   4.981   5.354  12.337  0.1114  0.3469 -0.2725
 8227TIP3    H248877   4.891   5.322  12.219 -1.3810 -0.9294  1.1569
 8228TIP3   OH248878   4.854   4.688  11.722  0.0294 -0.0524 -0.1633
 8228TIP3    H148879   4.806   4.674  11.805  2.4783 -1.2999  1.1554
 8228TIP3    H248880   4.946   4.685  11.747  0.9514 -2.3741 -3.1853
 8229TIP3   OH248881   1.630   4.248  10.773 -0.0752 -0.1014  0.1400
 8229TIP3    H148882   1.670   4.163  10.757  1.3747  0.5377  0.2033
 8229TIP3    H248883   1.548   4.228  10.819  0.4590 -1.4162  0.5574
 8230TIP3   OH248884   6.331   4.038  10.734  0.0413 -0.3013  0.1529
 8230TIP3    H148885   6.356   3.945  10.736 -1.9543 -0.9294  3.2983
 8230TIP3    H248886   6.236   4.036  10.722 -0.1528  1.2531  1.1829
 8231TIP3   OH248887   0.236   5.581  10.730  0.1976  0.0085 -0.3152
 8231TIP3    H148888   0.266   5.491  10.742  0.3820 -0.1224 -1.6057
 8231TIP3    H248889   0.151   5.584  10.774  0.1085 -0.8491 -0.4151
 8232TIP3   OH248890   5.433   2.306  11.219 -0.0186 -0.2079 -0.7432
 8232TIP3    H148891   5.478   2.383  11.253 -0.8114  0.3529 -0.9293
 8232TIP3    H248892   5.496   2.267  11.159  0.0385  0.8822 -1.4350
 8233TIP3   OH248893   6.022   6.790  10.549 -0.2089  0.6387  0.0438
 8233TIP3    H148894   6.020   6.843  10.469 -0.7025 -0.0257 -0.3876
 8233TIP3    H248895   5.944   6.817  10.597  0.4960  1.5958  0.6726
 8234TIP3   OH248896   4.230   2.709  11.181  0.1252 -0.3828 -0.5674
 8234TIP3    H148897   4.291   2.636  11.195 -0.1609 -0.7105 -1.0099
 8234TIP3    H248898   4.169   2.705  11.254  0.7295  0.0530 -0.0227
 8235TIP3   OH248899   3.386   2.849  10.356 -0.1913  0.1950  0.0906
 8235TIP3    H148900   3.302   2.860  10.310 -1.1205  0.4036  1.7566
 8235TIP3    H248901   3.452   2.856  10.287 -1.5943 -2.8107 -1.7930
 8236TIP3   OH248902   7.385   1.485  11.635 -0.0120 -0.3146  0.5926
 8236TIP3    H148903   7.297   1.509  11.608 -0.3982 -1.6270  0.6314
 8236TIP3    H248904   7.374   1.443  11.720  0.5090 -1.4311  0.1296
 8237TIP3   OH248905   4.807   1.568  11.807  0.1110  0.0739  0.1008
 8237TIP3    H148906   4.833   1.624  11.880  0.9182 -1.0346  0.6926
 8237TIP3    H248907   4.711   1.565  11.812  0.0175  1.5991 -0.1250
 8238TIP3   OH248908   5.796   5.615  11.172  0.3320  0.0262  0.1763
 8238TIP3    H148909   5.733   5.581  11.108  0.0829 -0.5811  0.7328
 8238TIP3    H248910   5.748   5.614  11.255  0.1593  2.1341  0.1696
 8239TIP3   OH248911   7.049   2.156  11.133 -0.1207 -0.1717 -0.3289
 8239TIP3    H148912   7.049   2.252  11.131 -0.4437 -0.1636 -2.4215
 8239TIP3    H248913   6.959   2.132  11.110  0.4217 -0.9336 -1.8221
 8240TIP3   OH248914   2.053   2.962  10.930  0.6324  0.0444  0.8344
 8240TIP3    H148915   1.980   3.023  10.924  0.9126  0.2606 -0.6231
 8240TIP3    H248916   2.118   2.995  10.869  0.7229 -1.7894 -0.1346
 8241TIP3   OH248917   2.494   1.899  10.848 -0.4022 -0.3617 -0.0204
 8241TIP3    H148918   2.506   1.819  10.797 -1.4884  1.0818 -2.7395
 8241TIP3    H248919   2.552   1.963  10.807 -1.2957  0.8674  0.5646
 8242TIP3   OH248920   2.160   3.240  10.295  0.3170  0.2802 -0.1280
 8242TIP3    H148921   2.212   3.288  10.360  1.0872 -0.0033 -0.5171
 8242TIP3    H248922   2.097   3.304  10.263  0.9647  0.8778 -0.2359
 8243TIP3   OH248923   1.703   2.947  12.722 -0.2573 -0.2400  0.6330
 8243TIP3    H148924   1.660   2.959  12.807 -0.2217 -0.0730  0.6275
 8243TIP3    H248925   1.737   2.857  12.725 -0.5081 -0.3338  0.6808
 8244TIP3   OH248926   3.275   0.739  11.709  0.2218  0.1408 -0.1120
 8244TIP3    H148927   3.338   0.766  11.642  1.9420  0.9728  1.7434
 8244TIP3    H248928   3.232   0.821  11.736 -1.0430 -0.2991 -0.7307
 8245TIP3   OH248929   1.885   1.863  12.232 -0.1441 -0.4451  0.0913
 8245TIP3    H148930   1.903   1.815  12.151  2.3104 -1.1066  0.9510
 8245TIP3    H248931   1.965   1.855  12.284 -0.4042  2.7561  1.2367
 8246TIP3   OH248932   0.159   1.727  10.699 -0.3941 -0.0505  0.2451
 8246TIP3    H148933   0.170   1.813  10.658 -1.4155 -0.2042 -0.3713
 8246TIP3    H248934   0.141   1.747  10.791 -3.0605  0.5501 -0.3361
 8247TIP3   OH248935   0.710   0.221  11.918 -0.5190 -0.1110 -0.3868
 8247TIP3    H148936   0.689   0.286  11.985 -0.3205 -0.1610 -0.2783
 8247TIP3    H248937   0.639   0.230  11.854 -0.9936 -0.4169  0.0858
 8248TIP3   OH248938   2.439   3.605  10.273  0.3964 -0.1177 -0.1278
 8248TIP3    H148939   2.506   3.539  10.291  0.3917  0.1523  0.9683
 8248TIP3    H248940   2.410   3.633  10.360  1.5246  2.4769 -0.5004
 8249TIP3   OH248941   4.857   4.990  10.800  0.6822  0.7104 -0.5253
 8249TIP3    H148942   4.807   5.072  10.799 -1.9787 -0.7670  0.1166
 8249TIP3    H248943   4.814   4.936  10.733  1.5838 -0.5756 -0.0947
 8250TIP3   OH248944   2.143   6.926  12.259 -0.0767 -0.2774 -0.4092
 8250TIP3    H148945   2.055   6.956  12.240 -0.5882 -0.1929  1.8348
 8250TIP3    H248946   2.195   7.006  12.270 -0.2685 -0.2818  0.5662
 8251TIP3   OH248947   5.825   0.322  12.808 -0.3909  0.1939 -0.0555
 8251TIP3    H148948   5.782   0.238  12.788 -1.1804  0.3031  1.0925
 8251TIP3    H248949   5.917   0.298  12.824 -0.2041 -0.1807 -1.5438
 8252TIP3   OH248950   2.568   7.284  10.361  0.4933  0.3473 -0.2862
 8252TIP3    H148951   2.499   7.259  10.422  1.6642 -0.1609  0.8665
 8252TIP3    H248952   2.602   7.202  10.327  0.8710  0.5808 -0.4821
 8253TIP3   OH248953   4.543   0.196  11.383  0.0301 -0.7483 -0.0300
 8253TIP3    H148954   4.455   0.233  11.391  1.8965  4.3252  0.3932
 8253TIP3    H248955   4.547   0.163  11.293 -1.9967 -0.2485 -0.3502
 8254TIP3   OH248956   4.258   6.223  11.015 -0.5516 -0.1611 -0.3063
 8254TIP3    H148957   4.285   6.184  10.932  1.6676  0.1735  0.1985
 8254TIP3    H248958   4.193   6.162  11.050  0.9198 -2.0812 -0.7561
 8255TIP3   OH248959   4.340   4.431  10.764 -0.3916 -0.2412 -0.6678
 8255TIP3    H148960   4.431   4.456  10.780 -0.3090 -0.5567 -0.6423
 8255TIP3    H248961   4.297   4.513  10.739  0.1062 -0.2443 -1.5784
 8256TIP3   OH248962   5.992   3.043  12.191 -0.4352 -0.1700  0.2817
 8256TIP3    H148963   5.914   3.099  12.195  0.8416  1.6333  1.6022
 8256TIP3    H248964   6.038   3.072  12.112 -1.4230 -1.7791 -0.9433
 8257TIP3   OH248965   7.257   7.220  12.800  0.3501  0.4910  0.4073
 8257TIP3    H148966   7.231   7.245  12.711 -1.0559  2.4247  1.2817
 8257TIP3    H248967   7.213   7.137  12.816  1.4695 -0.4397 -1.0209
 8258TIP3   OH248968   4.195   1.906  11.718 -0.1047  0.6055  0.7368
 8258TIP3    H148969   4.250   1.982  11.741  2.1045  0.1163 -2.3618
 8258TIP3    H248970   4.227   1.836  11.774  1.1477  0.8169  0.3143
 8259TIP3   OH248971   5.588   4.656  11.312  0.0291  0.1653  0.4044
 8259TIP3    H148972   5.614   4.639  11.402  0.4032  0.6756  0.3982
 8259TIP3    H248973   5.630   4.587  11.261 -0.7072 -0.5061  0.6886
 8260TIP3   OH248974   4.869   5.088  11.612  0.2089 -0.1594 -0.0678
 8260TIP3    H148975   4.925   5.065  11.686  0.0500 -0.3715 -0.0129
 8260TIP3    H248976   4.823   5.007  11.591 -1.0925  0.3347  0.7563
 8261TIP3   OH248977   2.153   5.365  12.561 -0.1162 -0.1979  0.0610
 8261TIP3    H148978   2.081   5.304  12.575  1.1930 -1.3992  2.2784
 8261TIP3    H248979   2.230   5.309  12.553  0.7302  1.0780 -1.1767
 8262TIP3   OH248980   5.248   6.156  11.421 -0.0793  0.3078 -0.1711
 8262TIP3    H148981   5.224   6.248  11.437  2.9947  1.2211 -0.2481
 8262TIP3    H248982   5.245   6.115  11.508  1.8128  1.4009  0.4647
 8263TIP3   OH248983   3.448   4.581  12.513 -0.0903 -0.4950  0.0421
 8263TIP3    H148984   3.498   4.515  12.466  0.3016 -0.7478  0.7917
 8263TIP3    H248985   3.506   4.610  12.584 -0.8302 -0.4874  0.6668
 8264TIP3   OH248986   3.966   2.056  12.406 -0.4496 -0.2657 -0.2273
 8264TIP3    H148987   4.008   2.095  12.329 -0.9308  0.5971 -0.0624
 8264TIP3    H248988   4.028   2.070  12.477 -1.0626  1.1441  0.0478
 8265TIP3   OH248989   4.180   7.210  11.592  0.1507 -0.2265 -0.0567
 8265TIP3    H148990   4.209   7.268  11.521  0.1564  0.7654  0.7405
 8265TIP3    H248991   4.197   7.121  11.558  0.3868  0.2287 -1.1900
 8266TIP3   OH248992   0.023   0.603  12.136 -0.1214 -0.0195  0.2543
 8266TIP3    H148993   0.076   0.681  12.155  0.0169  0.1267 -0.6609
 8266TIP3    H248994   0.031   0.549  12.214  1.0380  0.1943  0.3135
 8267TIP3   OH248995   0.513   3.027  10.859 -0.0523  0.1393 -0.2159
 8267TIP3    H148996   0.503   3.053  10.767  0.5866  0.0955 -0.3039
 8267TIP3    H248997   0.501   3.109  10.907  0.4556  0.3313 -0.3989
 8268TIP3   OH248998   0.861   1.151  10.708  0.9334  0.0147 -0.3558
 8268TIP3    H148999   0.933   1.089  10.697  2.0109  1.1829 -0.0923
 8268TIP3    H249000   0.900   1.237  10.692 -0.6392  0.6117 -1.2661
 8269TIP3   OH249001   3.010   3.834  10.770  0.2721  0.7460  0.4571
 8269TIP3    H149002   3.066   3.864  10.698 -0.5630  1.5476  0.1263
 8269TIP3    H249003   2.946   3.904  10.782 -1.6530 -0.8106 -0.2268
 8270TIP3   OH249004   5.437   3.548  12.890  0.2172  0.0546 -0.0934
 8270TIP3    H149005   5.459   3.614  12.956 -1.8767  0.1284  0.6293
 8270TIP3    H249006   5.449   3.593  12.806 -0.7612  1.2635  0.3743
 8271TIP3   OH249007   6.567   0.439  10.752  0.0584 -0.2473 -0.0830
 8271TIP3    H149008   6.552   0.435  10.846  1.2237 -1.7027  0.0687
 8271TIP3    H249009   6.646   0.491  10.742  0.4778 -0.8833 -0.1671
 8272TIP3   OH249010   2.612   5.636  11.148 -0.2090  0.1578  0.8807
 8272TIP3    H149011   2.559   5.715  11.158 -0.1510  0.4451 -0.7605
 8272TIP3    H249012   2.551   5.564  11.165 -1.7546  0.3970 -2.6570
 8273TIP3   OH249013   6.808   1.595  10.088  0.2726 -0.0652 -0.6944
 8273TIP3    H149014   6.855   1.676  10.106 -1.5166  0.7160  0.8588
 8273TIP3    H249015   6.832   1.536  10.160  1.6203 -0.9763 -1.8539
 8274TIP3   OH249016   1.458   4.947  11.363  0.0138 -0.0750  0.0552
 8274TIP3    H149017   1.420   4.862  11.385  1.1795 -1.0190 -1.3808
 8274TIP3    H249018   1.383   5.003  11.344 -0.7502 -0.9938  0.3008
 8275TIP3   OH249019   6.448   6.509  12.005 -0.5613 -0.2864  0.2053
 8275TIP3    H149020   6.433   6.445  12.074 -1.4709  0.6412  0.9141
 8275TIP3    H249021   6.491   6.461  11.935  1.0187 -1.1168  1.6834
 8276TIP3   OH249022   3.947   5.989  12.428 -0.0871 -0.9216  0.4887
 8276TIP3    H149023   3.890   6.053  12.471  0.8323 -0.6618  1.3602
 8276TIP3    H249024   3.998   5.951  12.500  0.8383 -1.1338 -0.2684
 8277TIP3   OH249025   7.070   3.712  11.570  0.0357  0.3614  0.0071
 8277TIP3    H149026   7.007   3.704  11.498  0.9720  0.9432 -0.9065
 8277TIP3    H249027   7.048   3.640  11.629 -1.6785  0.7456 -0.1188
 8278TIP3   OH249028   1.392   1.349  10.840 -0.8117  0.4445 -0.4017
 8278TIP3    H149029   1.318   1.369  10.897  0.2298 -1.9009  2.0092
 8278TIP3    H249030   1.469   1.374  10.890  0.1238 -0.4466 -1.3294
 8279TIP3   OH249031   0.540   2.183  11.517 -0.1857  0.0332  0.0875
 8279TIP3    H149032   0.476   2.157  11.584  1.1979 -0.7434  1.1704
 8279TIP3    H249033   0.544   2.109  11.457  1.1498 -0.8284  1.1769
 8280TIP3   OH249034   3.386   2.191  10.843 -0.0832  0.0009 -0.2921
 8280TIP3    H149035   3.343   2.267  10.882  1.0044  1.8717 -2.4669
 8280TIP3    H249036   3.318   2.124  10.840 -1.2003  0.9692  1.3532
 8281TIP3   OH249037   1.887   6.970  12.474  0.1111  0.2582  0.1226
 8281TIP3    H149038   1.867   6.877  12.471  2.1873 -0.2116 -1.4511
 8281TIP3    H249039   1.867   7.002  12.386 -0.1981  1.2217  0.5268
 8282TIP3   OH249040   6.105   3.901  12.528  0.4200  0.2362 -0.1716
 8282TIP3    H149041   6.168   3.833  12.503  0.8111  0.1405  0.9983
 8282TIP3    H249042   6.159   3.972  12.561 -0.0577  0.2901  0.5252
 8283TIP3   OH249043   2.439   1.327  11.215 -0.4402 -0.1508 -0.1118
 8283TIP3    H149044   2.416   1.404  11.164 -0.0279  0.1475  0.1481
 8283TIP3    H249045   2.511   1.356  11.271 -0.0919 -0.7956 -0.2148
 8284TIP3   OH249046   0.381   3.870  10.850  0.0345 -0.4136  0.3855
 8284TIP3    H149047   0.304   3.917  10.881 -0.5021  0.3520 -1.9326
 8284TIP3    H249048   0.380   3.787  10.899 -2.1348 -0.3389  0.5433
 8285TIP3   OH249049   2.184   5.517  13.360  0.2419 -0.0316  0.1160
 8285TIP3    H149050   2.244   5.453  13.399 -0.3659 -0.3974  0.4799
 8285TIP3    H249051   2.206   5.518  13.267  1.3253  0.4143  0.3696
 8286TIP3   OH249052   4.108   3.712  11.584  0.6842  0.1705 -0.7773
 8286TIP3    H149053   4.035   3.749  11.535  1.2397  0.5956 -1.3116
 8286TIP3    H249054   4.077   3.707  11.674  0.1456  0.7528 -0.9225
 8287TIP3   OH249055   2.228   6.051  11.960  0.2361  0.7648 -0.1344
 8287TIP3    H149056   2.275   6.012  11.887  1.2373  0.6984  0.5335
 8287TIP3    H249057   2.281   6.031  12.037 -0.0996  1.9806  0.4429
 8288TIP3   OH249058   3.747   7.005  12.562 -0.0430  0.0313 -0.3301
 8288TIP3    H149059   3.664   7.028  12.604  0.4257 -1.7884  1.8421
 8288TIP3    H249060   3.805   7.079  12.582 -0.8863  0.9312 -1.1364
 8289TIP3   OH249061   1.463   4.888  12.607  0.2280 -0.0833  0.3228
 8289TIP3    H149062   1.449   4.800  12.644  0.8474 -1.2016 -1.9311
 8289TIP3    H249063   1.540   4.921  12.653  1.1390 -1.5385 -0.0837
 8290TIP3   OH249064   3.003   6.858  10.599 -0.0231  0.3643  0.1284
 8290TIP3    H149065   2.952   6.929  10.559 -0.4102  1.6847  2.8005
 8290TIP3    H249066   3.081   6.901  10.633  0.5629 -0.8258  0.3286
 8291TIP3   OH249067   1.042   0.772  11.073  0.4079  0.5505 -0.5746
 8291TIP3    H149068   1.094   0.819  11.008  0.2200  0.6920 -0.6219
 8291TIP3    H249069   1.082   0.685  11.076 -0.5104  0.0299 -2.0020
 8292TIP3   OH249070   4.022   3.779  12.271 -0.3187  0.2755 -0.0247
 8292TIP3    H149071   3.998   3.850  12.212 -0.4934  0.2319 -0.0064
 8292TIP3    H249072   4.004   3.813  12.358  0.6677  0.6250  0.0587
 8293TIP3   OH249073   7.192   1.028  11.550 -0.0964 -0.2338  0.0369
 8293TIP3    H149074   7.238   0.944  11.562 -0.3882 -0.7573 -2.1440
 8293TIP3    H249075   7.138   1.015  11.472 -0.0808  2.0281 -0.4098
 8294TIP3   OH249076   7.003   5.549  11.202  0.4170 -0.3490  0.2656
 8294TIP3    H149077   7.044   5.625  11.244  1.4573 -1.7311  1.8759
 8294TIP3    H249078   7.027   5.475  11.258 -4.0518 -1.3964  1.1892
 8295TIP3   OH249079   6.829   5.855  12.621  0.2866  0.1512 -0.2039
 8295TIP3    H149080   6.911   5.901  12.642  1.2411 -1.5201 -0.1160
 8295TIP3    H249081   6.778   5.860  12.701 -0.0427  1.8533 -0.4854
 8296TIP3   OH249082   1.769   1.895  11.464 -0.3194 -0.2897 -0.2745
 8296TIP3    H149083   1.748   1.840  11.389 -0.0480  0.4167 -0.8801
 8296TIP3    H249084   1.863   1.881  11.478 -0.7094 -1.8603  1.1362
 8297TIP3   OH249085   2.378   0.602  12.792 -0.0045 -0.5401 -0.0504
 8297TIP3    H149086   2.467   0.577  12.768 -0.4683 -0.5193 -1.9743
 8297TIP3    H249087   2.383   0.696  12.810  0.5120 -0.7087  0.7211
 8298TIP3   OH249088   5.223   5.172  11.564 -0.0849  0.4055 -0.1098
 8298TIP3    H149089   5.214   5.173  11.660  2.5882 -0.2062  0.2016
 8298TIP3    H249090   5.271   5.252  11.544  2.7587 -1.2751 -0.4623
 8299TIP3   OH249091   3.299   4.244  12.231 -0.3885 -0.0131 -0.4988
 8299TIP3    H149092   3.308   4.339  12.228 -1.8785  0.1563 -0.6702
 8299TIP3    H249093   3.353   4.216  12.305 -2.5273  1.3602  1.7183
 8300TIP3   OH249094   1.881   5.285  11.813 -0.1154  0.2039 -0.3703
 8300TIP3    H149095   1.832   5.208  11.840 -0.7874  0.2927 -1.2674
 8300TIP3    H249096   1.931   5.310  11.890 -0.5670 -0.6067  0.2030
 8301TIP3   OH249097   5.149   1.125  12.000  0.3125 -0.4260 -0.4710
 8301TIP3    H149098   5.136   1.078  11.918  1.2822 -0.0876 -0.8297
 8301TIP3    H249099   5.237   1.102  12.028 -0.5924 -1.8865  1.3868
 8302TIP3   OH249100   1.130   3.483  11.210  0.6028 -0.4300 -0.0219
 8302TIP3    H149101   1.178   3.539  11.149 -0.8435  0.9667  0.0519
 8302TIP3    H249102   1.082   3.421  11.154  0.6736 -0.3201 -0.2045
 8303TIP3   OH249103   0.890   4.432  11.763 -0.2311  0.5147 -0.1562
 8303TIP3    H149104   0.957   4.472  11.818 -0.0985 -1.4316  1.2057
 8303TIP3    H249105   0.827   4.502  11.747  0.5089  1.5375  1.2159
 8304TIP3   OH249106   3.568   5.561  10.863 -0.2042 -0.2121  0.2166
 8304TIP3    H149107   3.644   5.608  10.829 -0.4386  0.5758  0.7547
 8304TIP3    H249108   3.564   5.481  10.811 -0.1941  0.6652 -1.1909
 8305TIP3   OH249109   7.478   1.563  12.284  1.0513  0.1397  0.6916
 8305TIP3    H149110   7.566   1.534  12.307  1.1165 -0.8623 -0.6775
 8305TIP3    H249111   7.427   1.550  12.364  2.0441  0.3210  1.3741
 8306TIP3   OH249112   2.115   5.405  12.922 -0.0685  0.7604 -0.0061
 8306TIP3    H149113   2.117   5.484  12.976  1.3641  1.1493 -0.5841
 8306TIP3    H249114   2.206   5.389  12.899 -0.1862 -1.6007  0.8496
 8307TIP3   OH249115   6.641   2.406  11.230 -0.4107  0.2018  0.1382
 8307TIP3    H149116   6.677   2.326  11.194 -1.0648  0.7241 -1.8077
 8307TIP3    H249117   6.702   2.475  11.202 -0.6354  0.5553  0.5058
 8308TIP3   OH249118   3.991   1.420  10.414  0.4753 -0.1277  0.8510
 8308TIP3    H149119   3.920   1.427  10.350  0.3787  3.0871  1.1671
 8308TIP3    H249120   3.984   1.330  10.447 -0.9505 -1.1410 -1.9049
 8309TIP3   OH249121   4.874   2.342  11.065 -0.5666 -0.5457 -0.7523
 8309TIP3    H149122   4.961   2.303  11.050  0.9534  0.9843  2.8814
 8309TIP3    H249123   4.883   2.432  11.034 -0.2981  0.0469  0.9705
 8310TIP3   OH249124   3.040   4.918  11.330 -0.1076 -0.1808  0.5056
 8310TIP3    H149125   3.053   5.010  11.353 -1.4241 -0.0192  0.6784
 8310TIP3    H249126   2.959   4.893  11.374 -0.5707 -0.9963 -0.7362
 8311TIP3   OH249127   4.635   4.009  10.837 -0.3838 -0.5160 -0.0241
 8311TIP3    H149128   4.724   4.005  10.801 -0.8516  0.6088 -1.3867
 8311TIP3    H249129   4.629   4.097  10.874 -0.9319 -0.5956  0.0774
 8312TIP3   OH249130   6.809   2.596  11.117  0.0974 -0.3935  0.1346
 8312TIP3    H149131   6.764   2.589  11.032 -0.3055  1.1241  0.1873
 8312TIP3    H249132   6.850   2.683  11.115 -0.3961 -0.0917  1.7043
 8313TIP3   OH249133   6.838   4.570  12.386  0.4890  1.3115  0.4946
 8313TIP3    H149134   6.800   4.651  12.350 -0.7638  1.0123  1.0809
 8313TIP3    H249135   6.850   4.513  12.310  1.5098  2.0801  0.0551
 8314TIP3   OH249136   2.686   7.574  10.765  0.1587  0.1100 -0.4757
 8314TIP3    H149137   2.706   7.519  10.840  1.9865  0.8372 -0.3647
 8314TIP3    H249138   2.696   7.517  10.689  1.1212  0.0391 -0.3086
 8315TIP3   OH249139   3.997   5.437  11.381  0.5702 -0.4196  0.1537
 8315TIP3    H149140   4.005   5.345  11.405  0.4698 -0.9312 -1.6507
 8315TIP3    H249141   3.905   5.459  11.398  0.5918 -0.6476  0.5726
 8316TIP3   OH249142   3.803   6.587  10.655 -0.1118 -0.6033  0.6627
 8316TIP3    H149143   3.826   6.632  10.574  0.0457 -1.3503  0.2850
 8316TIP3    H249144   3.769   6.656  10.712 -0.2595 -0.0780 -0.0494
 8317TIP3   OH249145   0.326   2.311  10.875 -0.1633  0.1679 -0.4058
 8317TIP3    H149146   0.239   2.273  10.878 -0.8627  1.7450  0.4912
 8317TIP3    H249147   0.311   2.406  10.877  1.5877  0.4817  1.4797
 8318TIP3   OH249148   4.781   3.150  11.842 -0.3789  0.5028  0.4478
 8318TIP3    H149149   4.788   3.225  11.902 -0.3331  0.9938 -0.1536
 8318TIP3    H249150   4.831   3.081  11.884  0.5472  1.1742  0.4811
 8319TIP3   OH249151   0.032   0.289  13.008  0.0115  0.1301 -0.0360
 8319TIP3    H149152  -0.029   0.219  12.985 -1.5920  1.2673  0.5804
 8319TIP3    H249153  -0.023   0.367  13.013  1.7422  1.4516 -0.7041
 8320TIP3   OH249154   6.628   5.502  10.611 -0.4105 -0.2642 -0.0689
 8320TIP3    H149155   6.609   5.567  10.678 -1.9103 -0.5782 -0.1398
 8320TIP3    H249156   6.608   5.546  10.528  1.4899  0.1418 -0.3440
 8321TIP3   OH249157   0.734   1.151  11.816  0.4111 -1.0179  0.5305
 8321TIP3    H149158   0.678   1.190  11.749  0.6854 -1.1403  0.2287
 8321TIP3    H249159   0.770   1.072  11.775  2.7143  0.2956 -0.1747
 8322TIP3   OH249160   0.829   1.787  12.523  0.4222  0.3430  0.1040
 8322TIP3    H149161   0.799   1.776  12.433  0.9943 -1.9184  0.1470
 8322TIP3    H249162   0.754   1.761  12.577  0.1455  1.5078  0.3325
 8323TIP3   OH249163   3.850   5.392  11.007  0.2455  0.2562  0.5754
 8323TIP3    H149164   3.802   5.473  11.024 -0.1873  0.1006  0.1341
 8323TIP3    H249165   3.783   5.324  11.011  0.3372  0.0858 -0.5199
 8324TIP3   OH249166   2.135   3.554  10.513 -0.0207 -0.1055  0.5475
 8324TIP3    H149167   2.072   3.521  10.449  0.1952 -0.4662  0.5186
 8324TIP3    H249168   2.194   3.480  10.530  2.4871  1.1266 -1.9367
 8325TIP3   OH249169   5.585   7.277  11.008  0.1871  0.0408  0.0243
 8325TIP3    H149170   5.612   7.185  11.006  0.4360  0.1291 -0.7811
 8325TIP3    H249171   5.667   7.326  11.011  0.1694  0.2988 -2.1749
 8326TIP3   OH249172   6.043   3.147  12.788 -0.1279 -0.2268 -0.1044
 8326TIP3    H149173   6.018   3.214  12.851  0.6160  0.1853 -0.2308
 8326TIP3    H249174   6.093   3.083  12.838 -2.2643 -1.6343  0.3824
 8327TIP3   OH249175   6.333   1.610  11.262  0.1420  0.3643  0.6089
 8327TIP3    H149176   6.258   1.552  11.267  0.0224  0.5964  1.6909
 8327TIP3    H249177   6.297   1.693  11.229  0.5050 -0.4418 -2.0936
 8328TIP3   OH249178   3.568   1.082  10.472 -0.8726  0.0825 -0.6973
 8328TIP3    H149179   3.595   1.078  10.380 -0.6497  1.7149 -0.7242
 8328TIP3    H249180   3.635   1.134  10.515 -1.1281 -0.4289  0.3529
 8329TIP3   OH249181   3.530   5.494  10.473  0.9481 -0.0296 -0.0299
 8329TIP3    H149182   3.458   5.526  10.528  0.7752  0.1844 -0.3760
 8329TIP3    H249183   3.521   5.398  10.475  0.6783 -0.0047 -0.0400
 8330TIP3   OH249184   0.639   3.273  10.592 -0.2365  0.2968  0.2206
 8330TIP3    H149185   0.734   3.280  10.596 -0.2838  0.5018  1.9425
 8330TIP3    H249186   0.608   3.333  10.660 -1.5073 -1.0503  0.8946
 8331TIP3   OH249187   5.715   1.312  10.706 -0.6502  0.8112  0.1153
 8331TIP3    H149188   5.751   1.355  10.629 -0.1952 -0.4819 -0.4132
 8331TIP3    H249189   5.634   1.271  10.675 -0.1183 -0.2821  0.1620
 8332TIP3   OH249190   2.949   0.823  11.051 -0.3593  0.6876 -0.1406
 8332TIP3    H149191   2.862   0.822  11.012 -1.0295  0.8003  1.2880
 8332TIP3    H249192   3.004   0.777  10.988 -1.6739 -0.3653 -0.5760
 8333TIP3   OH249193   7.249   4.247  13.026  0.1597  0.5776  0.1036
 8333TIP3    H149194   7.260   4.235  12.932  0.0223 -0.2874  0.1895
 8333TIP3    H249195   7.260   4.159  13.063  0.9072  1.0198  0.9637
 8334TIP3   OH249196   1.994   4.775  12.246  0.6443  0.1266  0.3558
 8334TIP3    H149197   2.045   4.694  12.249 -0.6185 -0.6622  1.0081
 8334TIP3    H249198   2.047   4.838  12.295  1.0290 -0.6577  0.9719
 8335TIP3   OH249199   1.494   6.208  10.733  0.6091 -0.0574  0.2078
 8335TIP3    H149200   1.405   6.201  10.768  0.4018  1.0425 -0.0643
 8335TIP3    H249201   1.515   6.120  10.703  0.2346 -0.7153  1.7481
 8336TIP3   OH249202   4.875   1.995  16.964 -0.1100 -0.4957 -0.3996
 8336TIP3    H149203   4.948   1.935  16.950 -1.4605 -2.4314  0.3271
 8336TIP3    H249204   4.915   2.076  16.995  1.7328 -1.3426 -0.4687
 8337TIP3   OH249205   4.435   4.281  11.295  0.5080  0.0594  0.0271
 8337TIP3    H149206   4.408   4.372  11.281 -1.0272 -0.5248 -1.0754
 8337TIP3    H249207   4.401   4.259  11.381 -0.5007  0.0712 -0.3559
 8338TIP3   OH249208   0.759   5.006  10.894  0.3165  0.1916  0.0417
 8338TIP3    H149209   0.776   5.002  10.800 -2.7150  1.3394 -0.6477
 8338TIP3    H249210   0.795   5.091  10.921  1.3711 -0.2262  0.0097
 8339TIP3   OH249211   1.606   7.500  11.044  0.3133  0.1712  0.3109
 8339TIP3    H149212   1.542   7.571  11.050 -0.9991 -0.8161 -1.0762
 8339TIP3    H249213   1.553   7.421  11.031  1.7714 -0.8885  0.5641
 8340TIP3   OH249214   5.591   1.554  10.798  0.2697 -0.1867 -0.2259
 8340TIP3    H149215   5.645   1.490  10.752 -0.7721 -1.5377  0.3575
 8340TIP3    H249216   5.595   1.633  10.743  1.6644 -0.7073 -0.9100
 8341TIP3   OH249217   4.501   4.737  11.005  0.3698 -0.6240  0.3735
 8341TIP3    H149218   4.506   4.795  10.929 -1.8732 -1.5466 -0.5567
 8341TIP3    H249219   4.589   4.739  11.042  0.5103  3.1305  0.2638
 8342TIP3   OH249220   5.731   7.675  12.156  0.0623  0.0714  0.2579
 8342TIP3    H149221   5.649   7.708  12.118 -0.2782  2.3899  2.7227
 8342TIP3    H249222   5.706   7.592  12.197 -0.3943 -0.5791 -1.2789
 8343TIP3   OH249223   2.933   5.768  10.631 -0.2950  0.1723  0.1419
 8343TIP3    H149224   2.917   5.829  10.703  0.3955 -0.7096  1.0748
 8343TIP3    H249225   3.017   5.795  10.594 -0.8864  0.9318 -0.6718
 8344TIP3   OH249226   4.931   0.966  11.556  0.0811  0.1199  0.0845
 8344TIP3    H149227   4.905   0.884  11.514 -0.0603 -0.0052  0.4096
 8344TIP3    H249228   5.002   0.999  11.502  0.3508 -0.3748  0.1254
 8345TIP3   OH249229   1.713   7.442  12.504  0.0804  0.3184  0.2768
 8345TIP3    H149230   1.789   7.427  12.560  0.9985 -1.3574 -1.3184
 8345TIP3    H249231   1.653   7.371  12.526 -0.3445  0.7084  0.3936
 8346TIP3   OH249232   1.421   0.032  11.070 -0.4789  0.1784  0.1367
 8346TIP3    H149233   1.353   0.008  11.134 -1.2413  1.5161 -0.1261
 8346TIP3    H249234   1.373   0.072  10.998  0.2803 -2.0226 -1.7134
 8347TIP3   OH249235   5.917   6.512  12.464 -0.3720  0.0088  0.3985
 8347TIP3    H149236   5.970   6.555  12.531 -0.9922 -0.0678  0.9458
 8347TIP3    H249237   5.828   6.546  12.477 -0.5307 -0.1293 -0.2802
 8348TIP3   OH249238   0.672   7.003  18.861  0.6456  0.0016 -0.2771
 8348TIP3    H149239   0.768   7.008  18.866  0.6346 -0.4457  0.6243
 8348TIP3    H249240   0.642   7.059  18.933  0.2283  0.1648 -0.5750
 8349TIP3   OH249241   0.188   6.797  11.815 -0.1168  0.0307 -0.1527
 8349TIP3    H149242   0.099   6.811  11.783 -0.0858 -0.7253 -0.5893
 8349TIP3    H249243   0.244   6.826  11.743 -0.0462 -1.5145 -0.7536
 8350TIP3   OH249244   6.899   5.060  10.928  0.2983 -0.3679 -0.3210
 8350TIP3    H149245   6.936   5.047  10.840  0.2533 -1.8742 -0.1491
 8350TIP3    H249246   6.864   4.974  10.951 -0.8902  0.3522  0.6363
 8351TIP3   OH249247   3.597   0.525  11.704  0.1796 -0.4272 -0.3633
 8351TIP3    H149248   3.535   0.478  11.648  1.0996 -2.2788  0.1011
 8351TIP3    H249249   3.601   0.473  11.784  1.8258  0.0105 -0.1258
 8352TIP3   OH249250   6.364   4.692  13.650  0.5345 -0.0332 -0.0364
 8352TIP3    H149251   6.358   4.717  13.742 -1.4608 -1.0321  0.1621
 8352TIP3    H249252   6.275   4.700  13.617  0.5685 -2.7169 -1.0344
 8353TIP3   OH249253   5.649   0.699  12.166  0.0422 -0.3760  0.0852
 8353TIP3    H149254   5.598   0.778  12.180  3.0700  1.7416  0.2282
 8353TIP3    H249255   5.635   0.646  12.244 -0.5083  0.9791  0.9276
 8354TIP3   OH249256   0.569   3.818  10.376 -0.0572  0.2419  0.3778
 8354TIP3    H149257   0.618   3.880  10.322 -0.5856  1.7136  1.5015
 8354TIP3    H249258   0.623   3.740  10.378  0.6680  0.6700 -1.0454
 8355TIP3   OH249259   1.877   5.223  10.738  0.2675  0.2235  0.0027
 8355TIP3    H149260   1.803   5.198  10.683  1.4290 -1.7436 -0.8082
 8355TIP3    H249261   1.948   5.239  10.676  0.8996  0.6243  0.8161
 8356TIP3   OH249262   5.516   0.354  10.546 -0.0976  0.4586 -0.2321
 8356TIP3    H149263   5.605   0.334  10.573 -0.2703  0.3401  0.2680
 8356TIP3    H249264   5.526   0.416  10.473  0.4010 -0.0044 -0.5640
 8357TIP3   OH249265   1.325   6.015  11.666 -0.1131  0.5049  0.0812
 8357TIP3    H149266   1.333   5.999  11.760 -2.1022  3.2581  0.8334
 8357TIP3    H249267   1.406   6.062  11.643  1.3996 -2.0529 -0.1564
 8358TIP3   OH249268   2.439   4.493  11.337 -0.2360  0.7951  0.0195
 8358TIP3    H149269   2.361   4.478  11.283  0.1395 -0.8666 -0.1090
 8358TIP3    H249270   2.420   4.575  11.384 -2.7332 -0.3211  1.1376
 8359TIP3   OH249271   3.467   6.252  11.583  0.1245  0.0016  0.1647
 8359TIP3    H149272   3.393   6.310  11.567  0.8210  1.0202  0.5453
 8359TIP3    H249273   3.443   6.205  11.664  0.3012  1.0210  0.8213
 8360TIP3   OH249274   6.924   7.017  11.432  0.2941 -0.1787  0.3245
 8360TIP3    H149275   6.930   7.058  11.519 -0.4689 -1.3586  0.9641
 8360TIP3    H249276   7.015   7.003  11.406  0.6489 -2.7438  2.4296
 8361TIP3   OH249277   5.143   7.307  10.434 -0.4322  0.3066  0.3373
 8361TIP3    H149278   5.179   7.356  10.359  1.0360  0.5508  1.1617
 8361TIP3    H249279   5.201   7.232  10.444 -1.7100 -0.7604  0.1146
 8362TIP3   OH249280   2.551   0.628  11.815  0.0542 -0.8982 -0.1978
 8362TIP3    H149281   2.625   0.635  11.875  0.1404  0.1307 -0.4042
 8362TIP3    H249282   2.551   0.536  11.787  0.7389 -1.0997  0.4438
 8363TIP3   OH249283   7.644   6.919  12.276 -0.8869  0.6340  0.0862
 8363TIP3    H149284   7.661   6.833  12.237 -0.8110  0.1313  1.1936
 8363TIP3    H249285   7.685   6.915  12.362 -0.7793  1.8310  0.1170
 8364TIP3   OH249286   2.634   4.922  12.338 -0.0958  0.1932 -0.3117
 8364TIP3    H149287   2.583   4.891  12.413  1.1863 -3.5222 -0.7403
 8364TIP3    H249288   2.716   4.873  12.344  1.7810  2.8638 -1.9164
 8365TIP3   OH249289   1.608   3.069  11.541 -0.3797 -0.2661 -0.7450
 8365TIP3    H149290   1.694   3.060  11.500 -0.1026  0.4639 -0.3392
 8365TIP3    H249291   1.626   3.078  11.634 -0.8181  1.0431 -0.7726
 8366TIP3   OH249292   5.858   7.602  11.653 -0.1505  0.5923  0.7962
 8366TIP3    H149293   5.928   7.573  11.594 -0.6515  1.5018 -0.2791
 8366TIP3    H249294   5.777   7.586  11.604 -0.7877 -1.0006  2.2507
 8367TIP3   OH249295   4.468   3.850  11.282  0.0387 -0.0671 -0.2202
 8367TIP3    H149296   4.556   3.831  11.249  0.8681 -0.1900  1.9078
 8367TIP3    H249297   4.429   3.908  11.217  1.0658 -1.3222 -2.0163
 8368TIP3   OH249298   7.268   4.087  10.555  0.1190 -0.1917  0.4476
 8368TIP3    H149299   7.173   4.089  10.539  0.5349  0.0271 -2.4659
 8368TIP3    H249300   7.286   4.171  10.598 -1.0231 -0.3538  1.3045
 8369TIP3   OH249301   4.201   0.866  10.571 -0.1180 -0.1451 -0.0916
 8369TIP3    H149302   4.196   0.779  10.530 -1.1486  0.2468 -0.8496
 8369TIP3    H249303   4.173   0.851  10.661 -2.4141 -0.3065 -0.7583
 8370TIP3   OH249304   0.044   5.883  11.607  0.1984  0.2144 -0.0222
 8370TIP3    H149305  -0.010   5.806  11.625 -0.1876  0.5752  0.3739
 8370TIP3    H249306   0.109   5.852  11.544 -1.2404  0.0804 -1.5227
 8371TIP3   OH249307   0.450   0.469  11.288 -0.6264 -0.1420 -0.5211
 8371TIP3    H149308   0.488   0.535  11.346 -3.5425  0.8399  0.4702
 8371TIP3    H249309   0.505   0.470  11.210  1.2106  1.2154  0.7228
 8372TIP3   OH249310   5.589   1.546  10.299  0.4206  0.7638  0.3879
 8372TIP3    H149311   5.618   1.636  10.309 -1.0458  1.1985  1.0456
 8372TIP3    H249312   5.632   1.498  10.369  1.5097  0.8642 -0.2008
 8373TIP3   OH249313   0.322   0.570  11.786 -0.0588 -0.3128 -0.4775
 8373TIP3    H149314   0.347   0.550  11.876  0.9929  1.3455 -0.3594
 8373TIP3    H249315   0.403   0.599  11.744 -0.6127 -0.6593 -1.8426
 8374TIP3   OH249316   5.756   5.273  12.923 -0.2720 -0.4332 -0.3821
 8374TIP3    H149317   5.707   5.220  12.986 -0.3101  0.6417  0.5147
 8374TIP3    H249318   5.699   5.276  12.845 -0.7919 -0.7254 -0.0215
 8375TIP3   OH249319   5.438   6.167  11.205 -0.4389  0.0632 -0.6596
 8375TIP3    H149320   5.384   6.166  11.284  0.5835 -0.1861  0.0479
 8375TIP3    H249321   5.437   6.076  11.175 -0.3052  0.0310 -0.5675
 8376TIP3   OH249322   6.386   1.646  11.547 -0.1363 -0.2474 -0.3851
 8376TIP3    H149323   6.387   1.607  11.460 -0.2847 -1.5368  0.1556
 8376TIP3    H249324   6.320   1.715  11.543  0.5465  0.3679 -1.5453
 8377TIP3   OH249325   2.913   2.391  11.269 -0.0866 -0.3715  0.2227
 8377TIP3    H149326   2.877   2.466  11.317 -0.5204  0.8343 -1.8285
 8377TIP3    H249327   2.837   2.354  11.223  0.2821 -1.5509  0.5491
 8378TIP3   OH249328   1.276   0.894  12.036  0.0026  0.2577 -0.6576
 8378TIP3    H149329   1.181   0.890  12.019 -0.1204 -1.2769  0.1703
 8378TIP3    H249330   1.282   0.912  12.130  0.4807 -1.2165 -0.3823
 8379TIP3   OH249331   4.720   1.681  12.287  0.4690 -0.2810  0.1705
 8379TIP3    H149332   4.746   1.616  12.222 -0.1584 -0.0103 -0.3620
 8379TIP3    H249333   4.657   1.737  12.241 -0.3279 -0.3549  1.1341
 8380TIP3   OH249334   5.198   6.119  11.683 -0.0316 -0.0072  0.0256
 8380TIP3    H149335   5.218   6.034  11.722  1.3922  1.1017  1.8548
 8380TIP3    H249336   5.103   6.125  11.688  0.0176 -0.1043  3.1193
 8381TIP3   OH249337   3.456   5.526  13.259 -0.0775  0.4933  0.2685
 8381TIP3    H149338   3.369   5.530  13.300 -0.3764 -0.3883 -0.2660
 8381TIP3    H249339   3.492   5.614  13.271 -1.6642  1.3386 -0.8459
 8382TIP3   OH249340   7.161   6.667  12.594 -0.4996  0.8581 -0.3796
 8382TIP3    H149341   7.218   6.744  12.591  1.1424 -0.3181 -0.7091
 8382TIP3    H249342   7.088   6.690  12.536 -0.7552  2.6563  0.5635
 8383TIP3   OH249343   0.439   1.830  12.537  0.5216 -0.5931 -0.1132
 8383TIP3    H149344   0.490   1.749  12.541  0.0174 -0.8789  1.1162
 8383TIP3    H249345   0.351   1.804  12.566  0.4493  0.4528  0.6576
 8384TIP3   OH249346   3.953   3.437  12.955 -0.3502  0.0650  0.1283
 8384TIP3    H149347   3.999   3.449  12.872 -0.7750  0.8142 -0.0028
 8384TIP3    H249348   3.863   3.417  12.930 -0.3805 -0.1403  0.4007
 8385TIP3   OH249349   7.524   3.738  10.635  0.0573 -0.4410  0.1373
 8385TIP3    H149350   7.616   3.712  10.627 -0.1389 -1.0273 -0.2414
 8385TIP3    H249351   7.515   3.813  10.576  0.3921 -0.1098  0.5000
 8386TIP3   OH249352   4.600   1.805  10.864 -0.7259  0.3996 -0.5615
 8386TIP3    H149353   4.632   1.821  10.775  0.6803  1.3093  0.0671
 8386TIP3    H249354   4.576   1.892  10.897 -1.8561 -0.0104 -0.2552
 8387TIP3   OH249355   5.731   5.380  10.466 -0.2873 -0.1781  0.0513
 8387TIP3    H149356   5.709   5.343  10.381 -0.1822 -1.6235  0.6376
 8387TIP3    H249357   5.648   5.387  10.513 -0.8171  3.2545 -1.0949
 8388TIP3   OH249358   6.552   1.225   9.907  0.1347  0.6516  0.3649
 8388TIP3    H149359   6.560   1.318   9.886  1.3942  0.7107  0.9786
 8388TIP3    H249360   6.471   1.197   9.865  0.9865  1.4378 -1.9889
 8389TIP3   OH249361   5.679   2.912  12.011 -0.1476  0.2319 -0.0713
 8389TIP3    H149362   5.738   2.879  12.080 -1.2413  1.0853  1.3312
 8389TIP3    H249363   5.732   2.976  11.964  0.2823  0.4711  0.7104
 8390TIP3   OH249364   0.962   0.728  11.581  0.2986  0.3120 -0.3353
 8390TIP3    H149365   0.939   0.777  11.502  1.6350  0.2177 -0.8093
 8390TIP3    H249366   1.010   0.651  11.548 -0.7077 -0.6981  0.4694
 8391TIP3   OH249367   2.300   3.416  10.862 -0.0748  0.1333 -0.0451
 8391TIP3    H149368   2.319   3.508  10.845  0.7569  0.2197  1.1983
 8391TIP3    H249369   2.371   3.368  10.821  1.0037  0.2422  1.5935
 8392TIP3   OH249370   1.088   7.176  12.178 -0.2384  0.1035  0.1204
 8392TIP3    H149371   1.150   7.232  12.226 -1.4396  1.2246  0.4406
 8392TIP3    H249372   1.043   7.127  12.247  2.0169 -2.7102 -0.2304
 8393TIP3   OH249373   4.717   7.225  12.486  0.0804 -0.1043  0.1034
 8393TIP3    H149374   4.677   7.310  12.504  0.3276 -0.4806  2.9186
 8393TIP3    H249375   4.685   7.201  12.400 -1.6458  1.9128  0.1061
 8394TIP3   OH249376   2.592   0.614  10.851  0.1141 -0.1478 -0.2277
 8394TIP3    H149377   2.513   0.586  10.806  0.8516  0.4856 -2.0165
 8394TIP3    H249378   2.569   0.613  10.944 -1.9495 -0.0423 -0.6922
 8395TIP3   OH249379   4.973   7.134  11.356  0.2635  0.4550 -0.4678
 8395TIP3    H149380   4.952   7.048  11.319 -0.0438  0.2439  0.1759
 8395TIP3    H249381   4.891   7.165  11.393  0.5220  0.7405 -0.1263
 8396TIP3   OH249382   3.894   1.530  11.435 -0.5221 -0.1305 -0.3075
 8396TIP3    H149383   3.922   1.567  11.519 -0.8605 -0.0694 -0.2222
 8396TIP3    H249384   3.807   1.566  11.421 -0.9802 -1.1115 -0.0756
 8397TIP3   OH249385   2.622   4.784  11.610  0.3357  0.4032  0.1521
 8397TIP3    H149386   2.600   4.874  11.584  0.1983 -0.1596 -1.8547
 8397TIP3    H249387   2.696   4.761  11.554  0.6446 -0.6049  0.9512
 8398TIP3   OH249388   4.907   4.037  10.838  0.1934 -0.1177  0.0122
 8398TIP3    H149389   4.934   4.106  10.778  0.2795 -0.0641  0.1105
 8398TIP3    H249390   4.935   4.068  10.924  0.2089 -0.2624  0.0603
 8399TIP3   OH249391   5.874   3.008  12.605  0.2149  0.5761  0.4149
 8399TIP3    H149392   5.927   2.930  12.585 -2.0687 -1.2675  1.1810
 8399TIP3    H249393   5.930   3.060  12.663  1.3083 -1.1309  0.9758
 8400TIP3   OH249394   4.033   5.814  12.640  0.5419 -0.0574  0.1360
 8400TIP3    H149395   4.015   5.723  12.616  0.5773  0.2242 -1.0294
 8400TIP3    H249396   4.052   5.811  12.734  0.2785 -1.2096  0.1677
 8401TIP3   OH249397   3.139   5.576  10.534 -0.2636 -0.2888 -0.4269
 8401TIP3    H149398   3.195   5.630  10.590 -0.7433  1.4621 -1.5602
 8401TIP3    H249399   3.177   5.586  10.447 -1.6102 -0.0377 -1.0090
 8402TIP3   OH249400   2.340   5.915  11.044 -0.2037  0.2745  0.2044
 8402TIP3    H149401   2.329   5.849  10.977 -1.2389  0.0206  0.6089
 8402TIP3    H249402   2.346   5.866  11.126  0.7006  0.5972  0.3467
 8403TIP3   OH249403   0.615   0.522  11.718  0.2027 -0.3624 -0.7399
 8403TIP3    H149404   0.700   0.540  11.757 -1.6258  0.1929  3.5159
 8403TIP3    H249405   0.589   0.437  11.753 -0.8623 -0.7557 -2.3452
 8404TIP3   OH249406   0.522   2.497  11.016 -0.1877 -0.5568 -0.1334
 8404TIP3    H149407   0.458   2.440  11.058 -0.1121 -0.9637 -0.5634
 8404TIP3    H249408   0.595   2.439  10.995  0.1719 -0.1671  0.0236
 8405TIP3   OH249409   4.422   3.765  10.856 -0.5034  0.3460  0.0425
 8405TIP3    H149410   4.477   3.688  10.869 -1.7957 -0.9549 -1.6633
 8405TIP3    H249411   4.384   3.782  10.943  1.0921  0.1259  0.8150
 8406TIP3   OH249412   5.267   0.632  11.318  0.0150  0.4753 -0.2720
 8406TIP3    H149413   5.322   0.555  11.328 -0.7582 -0.7606 -4.0165
 8406TIP3    H249414   5.328   0.706  11.316  0.9801 -0.2504  0.8709
 8407TIP3   OH249415   2.983   1.630  11.295 -0.0511 -0.2957 -0.1684
 8407TIP3    H149416   2.925   1.699  11.328  1.1998  1.2299 -0.9975
 8407TIP3    H249417   2.992   1.650  11.202  1.9989 -0.3118 -0.0027
 8408TIP3   OH249418   7.370   5.894  10.870 -0.2495 -0.4357 -0.1263
 8408TIP3    H149419   7.385   5.815  10.923  2.5830  1.5530  2.4171
 8408TIP3    H249420   7.459   5.925  10.849 -1.2842  1.1374 -2.6124
 8409TIP3   OH249421   5.172   2.944  12.639 -0.6361  0.2195 -0.1203
 8409TIP3    H149422   5.204   2.868  12.590  2.5454  0.2985  1.5760
 8409TIP3    H249423   5.236   3.013  12.621 -1.5423  1.4283  1.0860
 8410TIP3   OH249424   5.664   4.659  11.583 -0.2208 -0.3063  0.4084
 8410TIP3    H149425   5.617   4.581  11.614 -0.8612 -0.6367 -1.2937
 8410TIP3    H249426   5.757   4.636  11.591 -0.3978 -1.0490  0.4018
 8411TIP3   OH249427   0.949   3.906  12.555 -0.7159  0.4041  0.1200
 8411TIP3    H149428   0.961   3.917  12.649 -0.4604 -0.4465  0.1953
 8411TIP3    H249429   0.963   3.812  12.540  2.7029  0.9615 -1.2040
 8412TIP3   OH249430   4.088   4.355  11.386  0.2998 -0.4313 -0.0681
 8412TIP3    H149431   4.141   4.431  11.362  0.6069 -0.1969  1.2618
 8412TIP3    H249432   4.074   4.308  11.304  1.9894 -0.1362 -0.5544
 8413TIP3   OH249433   5.211   4.375  11.882 -0.1056 -0.2918 -0.0228
 8413TIP3    H149434   5.254   4.302  11.926  0.9508  0.0782 -0.4176
 8413TIP3    H249435   5.283   4.425  11.843 -0.8508  0.7054 -0.1392
 8414TIP3   OH249436   7.567   4.166  13.096 -0.0980  0.2229 -0.2854
 8414TIP3    H149437   7.481   4.139  13.064  0.2293 -0.2856 -0.7666
 8414TIP3    H249438   7.613   4.084  13.116  0.0724  0.5052  0.5276
 8415TIP3   OH249439   5.384   2.968  11.582  0.1415 -0.1805  0.3160
 8415TIP3    H149440   5.336   3.026  11.523 -0.5780 -1.0175  0.0549
 8415TIP3    H249441   5.327   2.960  11.659  0.4795 -0.1144  0.5713
 8416TIP3   OH249442   6.321   6.036  10.496  0.7170  0.2830  0.1787
 8416TIP3    H149443   6.292   6.013  10.585  2.5635  0.2322  0.8124
 8416TIP3    H249444   6.416   6.038  10.502  0.8486  1.0538 -1.6372
 8417TIP3   OH249445   0.234   6.385  11.155  0.2981 -0.6307 -0.1003
 8417TIP3    H149446   0.170   6.455  11.170 -0.2117 -0.6306 -2.0139
 8417TIP3    H249447   0.182   6.305  11.156  0.4513 -0.7366 -0.5579
 8418TIP3   OH249448   2.868   4.766  10.976  0.0329  0.3064 -0.1633
 8418TIP3    H149449   2.875   4.769  10.881  0.4191  0.1987 -0.1403
 8418TIP3    H249450   2.779   4.797  10.995  0.7076  2.5262 -0.4303
 8419TIP3   OH249451   4.133   5.684  10.929 -0.1924 -0.1697 -0.0061
 8419TIP3    H149452   4.084   5.618  10.979 -0.1382  0.7826  1.3442
 8419TIP3    H249453   4.195   5.720  10.991 -0.8585  1.8267 -0.4271
 8420TIP3   OH249454   0.916   0.502  12.108  0.2282  0.0331  0.5382
 8420TIP3    H149455   0.913   0.574  12.045 -0.1483  0.2652  0.8195
 8420TIP3    H249456   0.947   0.427  12.058 -2.1249 -0.3463 -0.4644
 8421TIP3   OH249457   7.679   5.630  10.841 -0.1827 -0.0168 -0.3044
 8421TIP3    H149458   7.612   5.631  10.910 -1.1429  0.4212 -1.2208
 8421TIP3    H249459   7.656   5.554  10.787 -0.5596  0.7094 -1.1944
 8422TIP3   OH249460   5.525   3.546  11.165 -0.4083  0.0159  0.5163
 8422TIP3    H149461   5.615   3.556  11.195 -0.7662  0.5438  1.4838
 8422TIP3    H249462   5.482   3.496  11.235 -0.8648 -0.2251  0.0692
 8423TIP3   OH249463   0.613   0.760  13.288 -0.7057 -0.3795 -0.0350
 8423TIP3    H149464   0.641   0.848  13.314 -0.1130 -0.1601 -1.3578
 8423TIP3    H249465   0.679   0.702  13.327  0.3273 -0.0329 -1.2011
 8424TIP3   OH249466   2.589   6.565  11.879 -0.6909 -0.0953 -0.0739
 8424TIP3    H149467   2.659   6.579  11.942 -0.2843 -0.7600 -0.3716
 8424TIP3    H249468   2.624   6.598  11.796 -0.7116 -0.4790 -0.2348
 8425TIP3   OH249469   5.302   1.970  11.077  0.0618 -0.0407  0.5485
 8425TIP3    H149470   5.337   1.981  11.165 -0.9776 -0.5051  1.0473
 8425TIP3    H249471   5.291   1.875  11.068  0.9307 -0.0685 -0.4058
 8426TIP3   OH249472   2.532   2.480  12.638 -0.4000 -0.5765 -0.5722
 8426TIP3    H149473   2.592   2.459  12.566  0.2709 -0.2885 -0.1105
 8426TIP3    H249474   2.590   2.502  12.711 -1.0460  1.1139 -0.5194
 8427TIP3   OH249475   1.681   2.674  13.258  0.1592  0.4210  0.5437
 8427TIP3    H149476   1.633   2.591  13.257 -1.6129  1.4021  0.3061
 8427TIP3    H249477   1.771   2.649  13.237 -0.6355 -1.2765 -1.2214
 8428TIP3   OH249478   1.848   6.646  10.954  0.0293 -0.4934  0.2818
 8428TIP3    H149479   1.889   6.563  10.979  0.4967 -0.1510  0.6873
 8428TIP3    H249480   1.873   6.707  11.024 -0.8793 -0.1826  0.3492
 8429TIP3   OH249481   7.608   3.892  12.897  0.0105  0.7542 -0.8450
 8429TIP3    H149482   7.593   3.984  12.918 -1.5807  0.2016  0.7378
 8429TIP3    H249483   7.597   3.847  12.981  0.4118 -0.9201 -1.6579
 8430TIP3   OH249484   4.101   5.631  12.225 -0.9984 -0.0249  0.3396
 8430TIP3    H149485   4.169   5.589  12.277 -0.3307  1.6067  0.8540
 8430TIP3    H249486   4.132   5.721  12.213 -2.6081  0.4929 -0.2366
 8431TIP3   OH249487   6.745   4.102  11.284 -0.1596  0.0185  0.3866
 8431TIP3    H149488   6.701   4.017  11.282  1.6859 -0.9797  0.4762
 8431TIP3    H249489   6.675   4.165  11.265 -1.4981 -1.5324 -0.0890
 8432TIP3   OH249490   6.280   5.383  10.976  0.2471  0.5248  0.1052
 8432TIP3    H149491   6.288   5.406  10.884  1.1176  2.5491  0.6090
 8432TIP3    H249492   6.193   5.415  11.001 -0.2417 -0.5849 -0.1341
 8433TIP3   OH249493   0.420   1.182  10.567  0.1874  0.5120 -0.1394
 8433TIP3    H149494   0.404   1.269  10.603 -0.8408  0.6606 -0.9040
 8433TIP3    H249495   0.399   1.191  10.473  0.0979 -0.5387 -0.2312
 8434TIP3   OH249496   5.913   3.616  12.537  0.0971 -0.2394  0.3804
 8434TIP3    H149497   5.992   3.667  12.518  0.8482 -1.2341  0.7100
 8434TIP3    H249498   5.888   3.578  12.453  1.1537 -1.5175  0.6116
 8435TIP3   OH249499   3.022   3.124  12.629  0.2478 -0.1211 -0.4068
 8435TIP3    H149500   3.038   3.089  12.717  0.1444  1.1747  0.1502
 8435TIP3    H249501   3.095   3.090  12.576  0.3451 -0.8653  0.1810
 8436TIP3   OH249502   5.079   3.414  11.782  0.0075  0.2474 -1.0176
 8436TIP3    H149503   5.035   3.487  11.737 -0.9799 -1.6132 -3.3405
 8436TIP3    H249504   5.049   3.420  11.873 -2.3510  1.0974 -1.7703
 8437TIP3   OH249505   2.228   3.531  11.117  0.3760  0.2194  0.3183
 8437TIP3    H149506   2.162   3.472  11.153 -1.1834  1.5133 -0.3056
 8437TIP3    H249507   2.274   3.477  11.052  0.2317 -0.8219  1.0438
 8438TIP3   OH249508   4.441   1.691  12.171 -0.2774  0.4583 -0.0468
 8438TIP3    H149509   4.486   1.628  12.114 -0.9469 -3.2916  3.1349
 8438TIP3    H249510   4.352   1.696  12.134  0.1238  0.5336 -1.0439
 8439TIP3   OH249511   0.551   7.539  11.694  0.2728  0.6559  0.6927
 8439TIP3    H149512   0.484   7.513  11.758 -0.5657 -1.5935 -0.9808
 8439TIP3    H249513   0.609   7.463  11.688 -0.4391  0.2188 -2.1330
 8440TIP3   OH249514   2.248   3.713  11.789 -0.0817  0.2473 -0.6707
 8440TIP3    H149515   2.186   3.681  11.723 -0.5454  0.9407 -0.5928
 8440TIP3    H249516   2.275   3.799  11.756 -0.2861  0.5839  0.0098
 8441TIP3   OH249517   2.834   7.185  10.597 -0.6050 -0.3822  0.2339
 8441TIP3    H149518   2.787   7.116  10.549  1.4587 -1.9545  0.3414
 8441TIP3    H249519   2.806   7.174  10.687  0.5130 -1.8818  0.4440
 8442TIP3   OH249520   4.932   0.437  12.184  0.3600  0.2356 -0.3753
 8442TIP3    H149521   4.941   0.359  12.130  0.6750  1.4854 -2.2141
 8442TIP3    H249522   4.838   0.450  12.193  0.3053 -0.4021  0.0649
 8443TIP3   OH249523   0.747   0.362  12.389  0.3269 -0.5335 -0.1913
 8443TIP3    H149524   0.757   0.272  12.358 -1.2945 -0.5789 -0.6679
 8443TIP3    H249525   0.667   0.360  12.442  0.9912  0.3598  0.8940
 8444TIP3   OH249526   6.866   4.031  12.677 -0.0137 -0.0455 -0.1693
 8444TIP3    H149527   6.845   4.072  12.593  1.1256  0.3740 -0.2728
 8444TIP3    H249528   6.874   4.104  12.738 -0.4598 -0.3221  0.2276
 8445TIP3   OH249529   5.541   1.359  11.922 -0.4469  0.4745  0.0465
 8445TIP3    H149530   5.463   1.404  11.890  0.5054  2.0046 -0.2711
 8445TIP3    H249531   5.612   1.396  11.870  0.8003  0.9523  1.9583
 8446TIP3   OH249532   0.507   2.725  11.191 -0.0639  0.4206 -0.5948
 8446TIP3    H149533   0.497   2.655  11.126 -0.8875  0.3397 -0.3934
 8446TIP3    H249534   0.601   2.737  11.199  0.2117 -2.0358  0.8038
 8447TIP3   OH249535   5.316   7.565  12.107 -0.0132  0.0802 -0.6567
 8447TIP3    H149536   5.383   7.567  12.039 -1.4881  0.0312 -2.1720
 8447TIP3    H249537   5.283   7.475  12.106 -0.5530  0.2736 -0.3871
 8448TIP3   OH249538   0.800   0.680  10.952  0.8032  0.3272 -0.4637
 8448TIP3    H149539   0.811   0.696  10.858 -0.7783  0.7662 -0.6034
 8448TIP3    H249540   0.866   0.735  10.993  0.2298  1.6698 -1.2581
 8449TIP3   OH249541   1.691   3.661  12.183  0.4373 -0.2416 -0.0259
 8449TIP3    H149542   1.617   3.653  12.243 -0.9886 -1.6874 -1.8536
 8449TIP3    H249543   1.730   3.746  12.203 -0.5761 -0.2371  2.2137
 8450TIP3   OH249544   4.823   4.824  12.966 -0.5354  0.2930 -0.0105
 8450TIP3    H149545   4.758   4.761  12.935  0.2432 -0.2407 -0.5935
 8450TIP3    H249546   4.874   4.847  12.888  0.9852 -0.5130  0.7012
 8451TIP3   OH249547   4.755   1.122  11.788 -0.1179  0.5123  0.2479
 8451TIP3    H149548   4.845   1.140  11.763  0.2654  0.9028  1.8031
 8451TIP3    H249549   4.702   1.176  11.730  0.7183  1.3110  0.2168
 8452TIP3   OH249550   3.361   5.568  11.816 -0.2297  0.3516  0.0005
 8452TIP3    H149551   3.314   5.523  11.745 -1.5793  0.9361  0.4855
 8452TIP3    H249552   3.435   5.611  11.773 -0.1059 -0.6191 -0.7899
 8453TIP3   OH249553   3.071   2.806  11.393 -0.6055 -0.2262  0.0599
 8453TIP3    H149554   3.072   2.901  11.408  0.3967 -0.4564  1.7292
 8453TIP3    H249555   3.163   2.781  11.397 -0.7823 -1.1831 -1.2161
 8454TIP3   OH249556   7.558   3.973  11.362 -0.3191 -0.2462  0.0474
 8454TIP3    H149557   7.523   4.004  11.279  1.6845  2.3572  0.0473
 8454TIP3    H249558   7.485   3.982  11.424 -1.1810 -0.0879 -0.9664
 8455TIP3   OH249559   0.617   4.481  10.405 -0.0836 -0.3154  0.0498
 8455TIP3    H149560   0.590   4.441  10.487 -1.0329  0.1600 -0.0230
 8455TIP3    H249561   0.535   4.504  10.361  0.3325 -2.0801 -1.7981
 8456TIP3   OH249562   4.452   3.960  11.052 -0.1427  0.2348 -0.2835
 8456TIP3    H149563   4.463   4.055  11.060 -1.3696  0.3858 -0.2779
 8456TIP3    H249564   4.491   3.939  10.967 -1.0030  0.9504 -0.8762
 8457TIP3   OH249565   3.116   1.991  12.223  0.2074  0.3108  1.1096
 8457TIP3    H149566   3.085   1.996  12.133  1.6471  0.5198  0.5968
 8457TIP3    H249567   3.155   1.904  12.230  0.2913  0.3754  1.4588
 8458TIP3   OH249568   5.714   1.523  11.780 -0.5880 -0.1798 -0.2337
 8458TIP3    H149569   5.668   1.542  11.698  0.7770  1.5457 -0.6710
 8458TIP3    H249570   5.750   1.435  11.767  1.4097  0.8562 -2.4405
 8459TIP3   OH249571   4.227   4.651  12.824 -0.2913  0.1902  0.3211
 8459TIP3    H149572   4.265   4.571  12.861 -2.7703 -1.6658 -0.8566
 8459TIP3    H249573   4.286   4.721  12.853  1.7180 -1.9616  1.8347
 8460TIP3   OH249574   1.104   3.714  11.721  0.5035  0.0231 -0.0930
 8460TIP3    H149575   1.190   3.675  11.705 -0.1004 -1.1449 -0.6125
 8460TIP3    H249576   1.101   3.790  11.663  2.2105  1.7063  1.8707
 8461TIP3   OH249577   2.401   5.930  11.568  0.5095 -0.4417  0.1096
 8461TIP3    H149578   2.413   5.955  11.659 -1.7144 -1.4995  0.7680
 8461TIP3    H249579   2.353   5.848  11.572 -0.3206 -0.1281 -2.0328
 8462TIP3   OH249580   5.499   0.435  11.748 -0.5666  0.0549  0.3777
 8462TIP3    H149581   5.554   0.496  11.798 -0.2598  0.3744 -0.3427
 8462TIP3    H249582   5.410   0.467  11.763 -0.4357  0.4656  0.2960
 8463TIP3   OH249583   2.246   1.537  12.496 -0.4460 -0.9001  0.0299
 8463TIP3    H149584   2.229   1.453  12.454 -1.3000 -0.2976 -0.9045
 8463TIP3    H249585   2.311   1.519  12.563 -0.9957 -2.3904  0.1847
 8464TIP3   OH249586   5.900   4.557  11.562  0.1629 -0.3237 -0.0504
 8464TIP3    H149587   5.867   4.473  11.531 -1.2669  0.7309 -1.5448
 8464TIP3    H249588   5.991   4.559  11.536  0.4386 -1.7043  0.7027
 8465TIP3   OH249589   5.405   3.602  12.266 -0.0234  0.0744 -0.2988
 8465TIP3    H149590   5.411   3.537  12.197 -0.8168  1.2462 -1.5460
 8465TIP3    H249591   5.321   3.584  12.309  1.0946 -1.5386  1.3810
 8466TIP3   OH249592   2.937   6.731  12.452 -0.1732 -0.3930 -0.2394
 8466TIP3    H149593   3.018   6.738  12.501 -0.9465 -1.9996  1.3666
 8466TIP3    H249594   2.920   6.637  12.445 -0.6742 -0.1988 -2.6970
 8467TIP3   OH249595   3.970   4.522  10.700  0.2306  0.1794  0.3401
 8467TIP3    H149596   3.950   4.459  10.769 -0.9557 -1.0178 -1.0453
 8467TIP3    H249597   3.927   4.488  10.622  1.0585  1.7845 -0.8908
 8468TIP3   OH249598   3.608   3.782  12.651 -0.0532 -0.0447  0.4142
 8468TIP3    H149599   3.545   3.843  12.691  0.1441 -0.2737  1.0813
 8468TIP3    H249600   3.618   3.713  12.716  0.5031 -0.2694  0.0877
 8469TIP3   OH249601   5.814   1.488  10.966  0.2039 -0.5331  0.2495
 8469TIP3    H149602   5.844   1.403  10.934 -0.2034 -0.2888 -0.8333
 8469TIP3    H249603   5.724   1.494  10.934 -0.4951 -0.5963  2.1215
 8470TIP3   OH249604   4.632   7.287  11.547 -0.2007 -0.2963 -0.1586
 8470TIP3    H149605   4.695   7.352  11.578 -1.7737  0.2112  2.2132
 8470TIP3    H249606   4.663   7.204  11.583 -1.0214  0.0042  1.2891
 8471TIP3   OH249607   6.624   2.317  10.283 -0.6227 -0.6090 -0.1770
 8471TIP3    H149608   6.626   2.399  10.233 -0.4236 -0.9514 -0.7396
 8471TIP3    H249609   6.540   2.278  10.260 -0.4194 -0.8911 -0.4510
 8472TIP3   OH249610   6.664   3.032  11.448  0.0515  0.3172  0.3042
 8472TIP3    H149611   6.748   3.079  11.446 -0.1412  0.7661 -2.9336
 8472TIP3    H249612   6.688   2.940  11.438  0.1803  0.3923 -0.0853
 8473TIP3   OH249613   7.597   1.180  11.784 -0.1942  0.2577 -0.4583
 8473TIP3    H149614   7.585   1.121  11.710 -1.1843 -0.1965  0.0578
 8473TIP3    H249615   7.522   1.239  11.780  0.7328  1.4657 -0.9178
 8474TIP3   OH249616   5.926   2.963  10.209 -0.8683 -0.1855 -0.3361
 8474TIP3    H149617   5.841   2.990  10.173 -0.9014 -1.4787 -1.3311
 8474TIP3    H249618   5.987   3.029  10.178 -0.9148 -1.1868 -2.8479
 8475TIP3   OH249619   1.693   4.568  11.465  0.1255 -0.0636 -0.2958
 8475TIP3    H149620   1.719   4.493  11.519 -0.0628  0.7918  1.0195
 8475TIP3    H249621   1.612   4.599  11.505 -1.3476 -0.7829 -2.4608
 8476TIP3   OH249622   2.973   1.102  11.285 -0.1795 -0.3789 -0.1684
 8476TIP3    H149623   2.936   1.190  11.296 -0.7388 -0.5480 -0.6738
 8476TIP3    H249624   3.017   1.105  11.201 -0.2995 -0.6190 -0.2391
 8477TIP3   OH249625   4.328   7.650  11.486  0.0120  0.3358  0.1646
 8477TIP3    H149626   4.300   7.741  11.472 -0.6301 -0.0276 -1.0279
 8477TIP3    H249627   4.424   7.654  11.484 -0.0040  1.0330  0.4803
 8478TIP3   OH249628   2.651   6.654  10.701 -0.7048  0.3864 -0.1449
 8478TIP3    H149629   2.726   6.612  10.659  0.4816  0.8375  1.4324
 8478TIP3    H249630   2.676   6.747  10.706 -0.6517  0.3082  1.7788
 8479TIP3   OH249631   7.558   0.211  11.320  0.4177 -0.2801  0.2263
 8479TIP3    H149632   7.633   0.269  11.304  0.0681  0.6812  1.8550
 8479TIP3    H249633   7.525   0.237  11.406 -1.8117 -0.6649 -0.4404
 8480TIP3   OH249634   6.590   4.395  11.956 -0.6937  0.3476 -0.1208
 8480TIP3    H149635   6.591   4.300  11.949  0.1271  0.2260  1.2491
 8480TIP3    H249636   6.542   4.424  11.879  1.8224 -1.0227 -2.3851
 8481TIP3   OH249637   7.317   5.336  12.187 -0.0928 -0.1202  0.5374
 8481TIP3    H149638   7.380   5.357  12.257 -0.3498 -0.5904  0.9191
 8481TIP3    H249639   7.252   5.406  12.191  0.7305  0.7065 -0.2656
 8482TIP3   OH249640   7.629   5.950  10.801 -0.4912  0.1603  0.6856
 8482TIP3    H149641   7.632   5.952  10.706  1.9850  0.1311  0.7016
 8482TIP3    H249642   7.691   5.881  10.826 -1.3306 -0.0576  2.3177
 8483TIP3   OH249643   5.875   2.750  12.146  0.0772 -0.4707 -0.4842
 8483TIP3    H149644   5.955   2.732  12.196 -0.6584  0.9053  1.3000
 8483TIP3    H249645   5.900   2.736  12.055  1.4122 -3.3893  0.2046
 8484TIP3   OH249646   3.049   5.916  10.956  1.0485 -0.2142 -0.5300
 8484TIP3    H149647   3.126   5.878  11.000  2.4744  0.3317 -2.4108
 8484TIP3    H249648   2.977   5.857  10.979  1.2425  0.9319  3.8561
 8485TIP3   OH249649   5.721   3.102   9.895 -0.6875  0.5100  0.1355
 8485TIP3    H149650   5.715   3.089   9.990 -0.5288 -0.5680  0.0142
 8485TIP3    H249651   5.811   3.129   9.880 -0.3355 -0.5861  0.1772
 8486TIP3   OH249652   2.146   2.278  12.944  0.0920 -0.4856  1.1346
 8486TIP3    H149653   2.145   2.329  12.863  1.0214 -0.9121  0.8450
 8486TIP3    H249654   2.198   2.331  13.005  0.6487 -0.8607  0.9854
 8487TIP3   OH249655   1.210   4.882  11.079  0.5613  0.1743 -0.2985
 8487TIP3    H149656   1.249   4.814  11.135  1.5064  0.0494 -1.0793
 8487TIP3    H249657   1.131   4.841  11.044 -0.2297  0.3763  1.1887
 8488TIP3   OH249658   4.030   2.523  13.037 -0.4107 -0.1731 -0.0520
 8488TIP3    H149659   4.043   2.439  13.081 -0.5144 -0.1929 -0.0599
 8488TIP3    H249660   3.979   2.575  13.099  0.1277  0.0790  0.1858
 8489TIP3   OH249661   6.224   0.506  11.604  0.2452  0.4750 -0.0927
 8489TIP3    H149662   6.141   0.541  11.571  1.8662  3.2507 -1.5822
 8489TIP3    H249663   6.212   0.411  11.603 -2.3155  0.7151 -1.8810
 8490TIP3   OH249664   4.395   7.332  11.773 -0.1287 -0.2052  0.2845
 8490TIP3    H149665   4.424   7.273  11.843 -0.6019 -1.1659 -0.3083
 8490TIP3    H249666   4.329   7.282  11.726 -1.3590  1.2124  0.4247
 8491TIP3   OH249667   7.490   1.743  12.865  0.2222 -0.6166 -0.1651
 8491TIP3    H149668   7.447   1.817  12.908 -0.0229 -0.3349 -0.8792
 8491TIP3    H249669   7.584   1.763  12.870  0.1220  0.0576 -0.9145
 8492TIP3   OH249670   2.556   4.288  10.094  0.1453 -0.1310  0.2417
 8492TIP3    H149671   2.602   4.249  10.020  0.0085 -0.7733  0.4902
 8492TIP3    H249672   2.501   4.217  10.129  0.3270  0.1154  1.0544
 8493TIP3   OH249673   1.591   3.405  11.029  0.0880  0.2277  1.0478
 8493TIP3    H149674   1.579   3.317  10.993 -0.2866  0.7251 -0.1045
 8493TIP3    H249675   1.621   3.457  10.954  0.6267  1.0081  1.7925
 8494TIP3   OH249676   5.397   2.383  11.557 -0.4127  0.1010  0.6778
 8494TIP3    H149677   5.488   2.411  11.569 -0.1718 -0.4682  0.2435
 8494TIP3    H249678   5.359   2.450  11.501  0.3203 -0.7162 -0.8502
 8495TIP3   OH249679   4.190   5.528  13.138 -0.3079 -0.4276  0.3886
 8495TIP3    H149680   4.159   5.606  13.185  0.4461  1.2060 -1.6706
 8495TIP3    H249681   4.283   5.544  13.123 -0.3978 -1.1329 -1.1283
 8496TIP3   OH249682   3.509   0.252  11.135 -0.8725  0.0778 -0.0112
 8496TIP3    H149683   3.544   0.164  11.120  2.8286  1.6166 -1.6574
 8496TIP3    H249684   3.459   0.273  11.056  0.6806  0.4269 -0.9391
 8497TIP3   OH249685   2.639   6.301  10.816  0.0249 -0.3666  0.3884
 8497TIP3    H149686   2.732   6.293  10.794  0.5025  1.0776  1.7183
 8497TIP3    H249687   2.608   6.375  10.763 -0.3280 -0.6975  0.1234
 8498TIP3   OH249688   4.270   6.961  11.499 -0.0997  0.3130 -0.4350
 8498TIP3    H149689   4.363   6.954  11.523 -0.1497  0.6638 -0.1219
 8498TIP3    H249690   4.260   6.903  11.424  0.4366  0.4841 -0.6451
 8499TIP3   OH249691   4.676   6.006  11.277  0.2171  0.1054 -0.1294
 8499TIP3    H149692   4.694   5.943  11.208  0.3776  3.5691 -3.5708
 8499TIP3    H249693   4.583   6.025  11.269  0.5044  1.5553 -0.4601
 8500TIP3   OH249694   0.324   2.285  11.933  0.7661 -0.3857  0.4951
 8500TIP3    H149695   0.283   2.350  11.989 -0.7153  0.6179 -1.6006
 8500TIP3    H249696   0.398   2.330  11.892  1.6027 -0.9917  1.2854
 8501TIP3   OH249697   0.512   3.469  10.773  0.4139 -0.1966 -0.4657
 8501TIP3    H149698   0.475   3.502  10.692  2.2372  2.0586 -0.4714
 8501TIP3    H249699   0.451   3.497  10.841  0.3993  0.5216 -0.7735
 8502TIP3   OH249700   3.872   2.954  11.151  0.3357  0.0424  0.2910
 8502TIP3    H149701   3.800   2.959  11.089 -1.0414 -0.6875  1.7740
 8502TIP3    H249702   3.844   3.006  11.226 -0.2382 -2.9379  2.3238
 8503TIP3   OH249703   7.117   3.596  13.024 -0.4141 -0.1282  0.5232
 8503TIP3    H149704   7.145   3.524  12.967  0.2806  0.1443  0.4999
 8503TIP3    H249705   7.117   3.559  13.112  2.3545  0.4334  0.8535
 8504TIP3   OH249706   6.324   2.892  10.816  0.1785  0.0765 -0.1935
 8504TIP3    H149707   6.292   2.979  10.840  0.7546 -0.6135  3.6188
 8504TIP3    H249708   6.412   2.888  10.853  0.6929 -1.6863 -1.5105
 8505TIP3   OH249709   4.874   5.391  10.622  0.2563  0.1907  0.8285
 8505TIP3    H149710   4.803   5.327  10.612  0.9113 -0.4685  0.1901
 8505TIP3    H249711   4.907   5.377  10.710  1.3290 -1.3926  0.2217
 8506TIP3   OH249712   1.561   3.490  10.533  0.6387  0.3988  0.0012
 8506TIP3    H149713   1.470   3.509  10.554  0.3381 -0.5062 -0.4467
 8506TIP3    H249714   1.582   3.549  10.461 -0.0320 -0.3739 -0.8385
 8507TIP3   OH249715   5.884   4.683  10.872  0.1100  0.3860  0.3277
 8507TIP3    H149716   5.846   4.770  10.860 -1.3609 -0.4579 -1.6721
 8507TIP3    H249717   5.881   4.643  10.785  2.4172 -1.0516  0.8089
 8508TIP3   OH249718   0.082   5.353  11.448 -0.5570  0.0466 -0.0973
 8508TIP3    H149719   0.086   5.369  11.353 -1.9874  2.4498  0.1460
 8508TIP3    H249720   0.172   5.362  11.478  0.2580 -2.6323 -1.3824
 8509TIP3   OH249721   2.662   1.287  12.651 -0.0475 -0.4827 -0.3074
 8509TIP3    H149722   2.610   1.255  12.725  1.3748 -1.7755  0.1914
 8509TIP3    H249723   2.750   1.302  12.688  0.3927 -0.0342 -1.4874
 8510TIP3   OH249724   3.827   1.594  10.655 -1.4445 -0.2193 -0.1176
 8510TIP3    H149725   3.795   1.635  10.735  0.5865 -1.3494  1.3712
 8510TIP3    H249726   3.877   1.663  10.611 -2.6702  0.4394 -0.5066
 8511TIP3   OH249727   5.344   0.295  12.017 -0.3641 -0.1796 -0.9102
 8511TIP3    H149728   5.429   0.332  12.041 -0.8481 -0.2032  1.0100
 8511TIP3    H249729   5.282   0.335  12.077 -1.3337 -1.9475 -0.6460
 8512TIP3   OH249730   5.923   6.032  10.755 -0.2919 -0.2803  0.2125
 8512TIP3    H149731   5.846   6.081  10.781  0.4027  1.1494 -0.3423
 8512TIP3    H249732   5.893   5.941  10.751 -1.4711  0.0024  1.7674
 8513TIP3   OH249733   6.171   3.826  12.892 -0.0796  0.8382  0.4881
 8513TIP3    H149734   6.131   3.900  12.847 -0.5129  1.4179  1.7784
 8513TIP3    H249735   6.236   3.866  12.950 -1.2246  0.3801  2.1848
 8514TIP3   OH249736   5.548   3.217  11.058  0.1611 -0.0276 -0.2248
 8514TIP3    H149737   5.533   3.154  11.128 -0.6797  2.6845  2.2065
 8514TIP3    H249738   5.627   3.264  11.083 -0.5909  1.5341 -0.6271
 8515TIP3   OH249739   5.172   4.094  12.097 -0.4587 -0.0223  0.7651
 8515TIP3    H149740   5.209   4.025  12.152 -2.3605 -1.3955  0.4171
 8515TIP3    H249741   5.248   4.133  12.054  0.6803 -2.3419  0.4766
 8516TIP3   OH249742   3.080   5.514  13.014 -0.2325 -0.0548  0.6053
 8516TIP3    H149743   3.169   5.481  13.027  0.0020 -0.2526 -1.2297
 8516TIP3    H249744   3.027   5.436  12.998 -0.1287  0.2420 -1.3614
 8517TIP3   OH249745   4.557   0.246  11.945 -0.2375  0.4726 -0.3654
 8517TIP3    H149746   4.489   0.246  11.877 -0.1424 -3.0985 -0.6322
 8517TIP3    H249747   4.624   0.186  11.912  0.7879  0.2170  2.0049
 8518TIP3   OH249748   0.667   5.828  11.725  0.1370  0.3968 -0.1320
 8518TIP3    H149749   0.670   5.893  11.796 -0.4672  0.0506  0.2241
 8518TIP3    H249750   0.747   5.843  11.675 -0.4447  2.0712 -0.6486
 8519TIP3   OH249751   2.305   7.127  11.756  0.3417  0.0277 -0.2907
 8519TIP3    H149752   2.327   7.214  11.722  1.7716 -0.0719  0.3185
 8519TIP3    H249753   2.257   7.144  11.836 -0.0926  0.2539 -0.5959
 8520TIP3   OH249754   3.900   7.351  10.700 -0.1352  0.0240 -0.2339
 8520TIP3    H149755   3.865   7.304  10.775 -0.6344 -0.8793 -1.0094
 8520TIP3    H249756   3.831   7.412  10.675  0.7223  1.6290  1.1082
 8521TIP3   OH249757   1.771   3.469  11.517  0.2546  0.4457 -0.5359
 8521TIP3    H149758   1.837   3.400  11.522 -2.5202 -2.5017 -1.0431
 8521TIP3    H249759   1.750   3.476  11.424 -0.6983  0.6823 -0.3192
 8522TIP3   OH249760   0.684   2.245  11.001  0.5133  0.2576  0.3943
 8522TIP3    H149761   0.682   2.159  11.043  0.0041 -0.2591 -0.6557
 8522TIP3    H249762   0.768   2.246  10.954  0.7475  0.5437  0.8105
 8523TIP3   OH249763   4.248   4.925  12.136 -0.4539  0.1629  0.1775
 8523TIP3    H149764   4.265   4.932  12.230  0.2597 -0.0460  0.0771
 8523TIP3    H249765   4.183   4.856  12.128 -0.9833  0.6152  0.5614
 8524TIP3   OH249766   4.340   4.577  13.366 -0.3467  0.3017 -0.5403
 8524TIP3    H149767   4.415   4.536  13.410 -1.3098  1.1489  2.0432
 8524TIP3    H249768   4.365   4.579  13.273  2.5217 -0.0860  0.1361
 8525TIP3   OH249769   0.175   5.086  13.523  0.2227 -0.8620  0.3320
 8525TIP3    H149770   0.215   5.148  13.461 -2.4831  0.0758 -0.5953
 8525TIP3    H249771   0.221   5.103  13.605  0.7930  1.1489 -0.3230
 8526TIP3   OH249772   4.766   3.693  10.465 -0.0470  0.4037 -0.2576
 8526TIP3    H149773   4.703   3.764  10.462  0.5314  0.9131 -0.3994
 8526TIP3    H249774   4.715   3.618  10.498 -0.9769  0.5245 -1.3532
 8527TIP3   OH249775   4.958   2.386  11.779 -0.2941 -0.3646  0.3554
 8527TIP3    H149776   4.970   2.389  11.684  1.1077  0.3192  0.5191
 8527TIP3    H249777   4.864   2.380  11.791 -0.4766 -0.8402 -1.0862
 8528TIP3   OH249778   3.801   3.123  12.118  0.3067 -0.3935 -0.1595
 8528TIP3    H149779   3.856   3.051  12.149 -0.4653 -1.7152 -1.7152
 8528TIP3    H249780   3.726   3.123  12.177  0.8424 -0.0949  0.5403
 8529TIP3   OH249781   0.043   1.966  11.677  0.1031  0.0450 -0.4469
 8529TIP3    H149782  -0.046   1.944  11.706  0.7271  0.5847  2.1097
 8529TIP3    H249783   0.033   2.052  11.634 -0.7715 -0.5213 -1.4442
 8530TIP3   OH249784   4.959   2.993  10.879  0.0394 -1.3423 -0.3981
 8530TIP3    H149785   5.032   2.961  10.932  0.3906 -1.1848 -0.7803
 8530TIP3    H249786   4.962   3.088  10.890  0.2680 -1.2902 -0.8991
 8531TIP3   OH249787   2.424   2.922  10.521 -0.7093  0.1734 -0.0888
 8531TIP3    H149788   2.365   2.858  10.561  0.4554 -2.0946 -1.7843
 8531TIP3    H249789   2.375   2.955  10.445 -1.8669  2.5167  1.5169
 8532TIP3   OH249790   7.095   1.876  11.520 -0.2021 -0.4584 -0.9530
 8532TIP3    H149791   7.111   1.786  11.491 -0.5717 -0.2182 -1.9530
 8532TIP3    H249792   7.141   1.930  11.456 -1.9490  0.1282 -1.7763
 8533TIP3   OH249793   0.907   4.950  12.106 -0.4141  0.2411  0.0618
 8533TIP3    H149794   0.995   4.982  12.125 -0.6172  0.6546  0.3130
 8533TIP3    H249795   0.883   4.993  12.024 -0.6145  0.5915  0.3026
 8534TIP3   OH249796   2.140   0.917  12.769  0.0046  0.5326 -0.4866
 8534TIP3    H149797   2.202   0.914  12.841  1.0591 -3.2282 -1.3276
 8534TIP3    H249798   2.089   0.836  12.777 -0.4753  0.4108 -3.3753
 8535TIP3   OH249799   5.218   2.358  10.699 -0.2331  0.1395 -0.4188
 8535TIP3    H149800   5.298   2.346  10.648 -0.2429  1.3472 -0.7518
 8535TIP3    H249801   5.199   2.272  10.734  0.8909 -0.2916 -0.8188
 8536TIP3   OH249802   5.168   3.969  11.109 -0.1964 -0.2274 -0.2158
 8536TIP3    H149803   5.116   4.047  11.090  0.6966  0.2607 -0.7368
 8536TIP3    H249804   5.152   3.951  11.202 -0.1516  0.7812 -0.0006
 8537TIP3   OH249805   0.288   3.668  12.547  0.0609  0.1226  0.3161
 8537TIP3    H149806   0.220   3.698  12.487 -0.5696 -1.4538  0.1791
 8537TIP3    H249807   0.245   3.668  12.633  1.0834  2.7708  0.9113
 8538TIP3   OH249808   7.577   4.595  11.440  0.3462  0.6791  0.3614
 8538TIP3    H149809   7.636   4.556  11.504 -0.5177 -1.9248 -0.2786
 8538TIP3    H249810   7.495   4.609  11.487 -0.4023 -1.5682 -0.1460
 8539TIP3   OH249811   6.390   2.577  12.407 -0.5522  0.0826 -0.0932
 8539TIP3    H149812   6.389   2.557  12.501 -2.6555 -0.7877 -0.2657
 8539TIP3    H249813   6.391   2.673  12.403  0.2169  0.1315  0.7766
 8540TIP3   OH249814   5.015   2.388  13.363 -0.1358  0.1061 -0.4843
 8540TIP3    H149815   5.078   2.316  13.369 -0.0189  0.1772 -0.8642
 8540TIP3    H249816   4.954   2.371  13.435  0.5679  0.2864  0.1678
 8541TIP3   OH249817   5.347   5.083  10.492  0.5252 -0.2679  0.6130
 8541TIP3    H149818   5.269   5.139  10.498  0.6887 -0.0506  0.7009
 8541TIP3    H249819   5.368   5.061  10.583  0.1942 -0.8455  0.5595
 8542TIP3   OH249820   0.883   2.494  11.509  0.4660  0.4916 -0.3525
 8542TIP3    H149821   0.921   2.430  11.568  1.7540 -0.7136 -2.3499
 8542TIP3    H249822   0.807   2.450  11.471  0.0611  0.9839 -0.1209
 8543TIP3   OH249823   6.063   1.464  10.409  0.3365 -0.5003  0.4400
 8543TIP3    H149824   6.145   1.506  10.383 -0.2260  0.7821  0.6208
 8543TIP3    H249825   6.089   1.396  10.471  1.3213 -0.6690 -0.1392
 8544TIP3   OH249826   2.370   1.609  10.613  0.0679  0.2744 -0.1760
 8544TIP3    H149827   2.321   1.686  10.640  0.8500  1.5241 -2.1177
 8544TIP3    H249828   2.444   1.605  10.675  0.6232  1.7708 -0.6957
 8545TIP3   OH249829   2.995   0.473  11.284  1.1885 -0.3675  0.3803
 8545TIP3    H149830   2.906   0.477  11.249  0.3773  0.5878  2.4204
 8545TIP3    H249831   3.024   0.384  11.265  0.8910  0.0610 -2.7020
 8546TIP3   OH249832   3.059   3.035  13.300  0.4780 -0.5153 -0.0347
 8546TIP3    H149833   3.017   3.082  13.228 -0.5354  0.7144  1.3078
 8546TIP3    H249834   3.003   2.959  13.315  0.1888 -0.2871  0.0457
 8547TIP3   OH249835   3.756   3.685  11.680  0.4082 -0.1497 -0.3898
 8547TIP3    H149836   3.687   3.727  11.731  1.8145  0.4342  1.1320
 8547TIP3    H249837   3.837   3.711  11.723  1.5815 -1.0583 -1.9265
 8548TIP3   OH249838   1.315   5.041  12.420  0.4589  0.0685  0.5589
 8548TIP3    H149839   1.369   5.119  12.403  0.7791 -0.3489 -0.4569
 8548TIP3    H249840   1.370   4.985  12.474  0.1418  0.6362  1.4829
 8549TIP3   OH249841   5.828   6.489  10.912  0.0164  0.3950  0.1116
 8549TIP3    H149842   5.744   6.443  10.911  0.5094 -0.6817  2.1823
 8549TIP3    H249843   5.894   6.419  10.920  0.9771  1.2953  0.3514
 8550TIP3   OH249844   5.483   7.269  17.242 -0.4722 -0.3685  0.7486
 8550TIP3    H149845   5.526   7.342  17.288 -0.5674  0.2470 -0.1270
 8550TIP3    H249846   5.548   7.199  17.244 -0.7138 -0.5877  2.3918
 8551TIP3   OH249847   6.809   2.209  11.925  0.3569 -0.6476 -0.0080
 8551TIP3    H149848   6.773   2.293  11.952  1.6340 -0.3515  0.8341
 8551TIP3    H249849   6.774   2.146  11.988 -0.1766 -0.6784 -0.3253
 8552TIP3   OH249850   1.866   7.206  11.262  0.1922  0.5324  0.1045
 8552TIP3    H149851   1.957   7.175  11.262  0.9894  2.7075 -0.6345
 8552TIP3    H249852   1.863   7.272  11.331 -1.3217 -0.6852  1.2814
 8553TIP3   OH249853   2.878   5.709  11.022 -0.1640  0.0183  0.3740
 8553TIP3    H149854   2.931   5.662  10.957 -0.5334  2.7572 -2.0943
 8553TIP3    H249855   2.808   5.647  11.044  0.3630 -1.2793 -1.3200
 8554TIP3   OH249856   4.701   2.282  11.274  0.1903 -0.3110 -0.0224
 8554TIP3    H149857   4.643   2.206  11.270  0.5868 -0.6718  0.7443
 8554TIP3    H249858   4.761   2.271  11.200 -0.9040  0.2412 -1.0238
 8555TIP3   OH249859   0.390   1.835  12.990 -0.3561  0.2729 -0.3644
 8555TIP3    H149860   0.430   1.902  13.045 -0.7934 -0.1069  0.4281
 8555TIP3    H249861   0.390   1.873  12.902  2.6079 -0.0396 -0.6326
 8556TIP3   OH249862   3.898   7.404  11.291  0.6467  0.1560  0.0542
 8556TIP3    H149863   3.867   7.316  11.314 -0.3996  0.8615  1.5532
 8556TIP3    H249864   3.964   7.423  11.357  0.6182  0.6186 -0.0509
 8557TIP3   OH249865   6.110   6.348  13.004  0.2468 -0.5037  0.2665
 8557TIP3    H149866   6.053   6.395  13.065  0.0805  0.0545 -0.3080
 8557TIP3    H249867   6.199   6.366  13.035  0.2154  0.6518 -0.2492
 8558TIP3   OH249868   4.942   3.184  11.179  0.2499 -0.1719 -0.1599
 8558TIP3    H149869   5.024   3.232  11.170  0.8071 -0.8278  1.3064
 8558TIP3    H249870   4.907   3.181  11.089  0.8990  1.6858 -0.5277
 8559TIP3   OH249871   7.252   5.715  10.540 -0.2568  0.3484 -0.1446
 8559TIP3    H149872   7.343   5.744  10.542 -0.4204  0.8369  1.3888
 8559TIP3    H249873   7.205   5.779  10.594 -1.3249 -0.4906 -0.0351
 8560TIP3   OH249874   5.948   1.442  12.368  0.0630 -0.1450 -0.6482
 8560TIP3    H149875   5.958   1.356  12.410 -0.2812 -0.4884 -1.2591
 8560TIP3    H249876   5.990   1.503  12.429 -0.9924 -0.5417  0.5194
 8561TIP3   OH249877   4.648   3.597  10.872 -0.0358 -0.2824 -0.3772
 8561TIP3    H149878   4.673   3.657  10.942 -1.2098  0.0429 -0.2276
 8561TIP3    H249879   4.726   3.593  10.816  0.5604  0.2402  0.3898
 8562TIP3   OH249880   2.695   0.950  19.047  0.0597  0.2957  0.0438
 8562TIP3    H149881   2.636   1.020  19.073 -0.1116  0.3526 -0.4993
 8562TIP3    H249882   2.729   0.977  18.961  0.8443  0.2496  0.3284
 8563TIP3   OH249883   4.926   2.940  12.757  0.9961 -0.4885 -0.4695
 8563TIP3    H149884   4.942   2.846  12.759  1.1479 -0.4606 -0.2746
 8563TIP3    H249885   5.012   2.978  12.738  1.3576 -0.2950  1.2995
 8564TIP3   OH249886   7.506   3.989  10.472 -0.2184 -0.2022  0.0588
 8564TIP3    H149887   7.467   4.052  10.532 -2.1752 -1.4369  0.1920
 8564TIP3    H249888   7.431   3.955  10.422  0.9660 -1.3759 -0.9866
 8565TIP3   OH249889   4.978   7.451  11.814  0.5043 -0.2107  0.2172
 8565TIP3    H149890   5.068   7.481  11.801 -0.2528  1.2392 -2.2121
 8565TIP3    H249891   4.935   7.524  11.858  0.5529 -1.0423  1.7004
 8566TIP3   OH249892   6.587   1.478   9.944  0.1120 -0.1329 -0.2861
 8566TIP3    H149893   6.554   1.565   9.923  0.9557  0.3169  0.1591
 8566TIP3    H249894   6.669   1.495   9.992 -0.8398 -1.1103  1.8030
 8567TIP3   OH249895   5.702   0.531  11.522  0.0642  0.2362 -0.0058
 8567TIP3    H149896   5.670   0.496  11.605  0.5263  0.8428  0.4451
 8567TIP3    H249897   5.674   0.623  11.522 -3.6109 -0.6863 -2.4411
 8568TIP3   OH249898   4.540   2.606  11.291  0.1204  0.0159 -0.2026
 8568TIP3    H149899   4.513   2.551  11.364  0.9834 -2.1313 -1.4185
 8568TIP3    H249900   4.522   2.695  11.321 -0.8460 -0.8525  2.0565
 8569TIP3   OH249901   2.120   7.235  11.535 -0.1635 -0.1287 -0.3714
 8569TIP3    H149902   2.052   7.210  11.598  0.7215  0.4253  0.8476
 8569TIP3    H249903   2.202   7.204  11.575  0.5718  1.5384 -0.5224
 8570TIP3   OH249904   4.830   1.246  10.982 -0.0072 -0.2011 -0.2633
 8570TIP3    H149905   4.922   1.267  10.998  0.2695  0.5149 -2.4236
 8570TIP3    H249906   4.830   1.152  10.961  0.0691 -0.4065  0.6001
 8571TIP3   OH249907   0.907   2.061  10.832 -0.3801 -0.0227 -0.4090
 8571TIP3    H149908   0.995   2.080  10.799 -0.2323  0.1329  0.0677
 8571TIP3    H249909   0.922   2.013  10.913 -0.7439 -0.8728 -0.8340
 8572TIP3   OH249910   4.592   6.814  12.390 -0.7339 -0.0461 -0.7116
 8572TIP3    H149911   4.537   6.778  12.460  0.6564 -1.0001 -0.0557
 8572TIP3    H249912   4.661   6.862  12.436  0.2012 -0.6951 -1.3896
 8573TIP3   OH249913   2.968   5.809  12.664  0.1036  0.4900  0.2798
 8573TIP3    H149914   2.896   5.807  12.601  1.3973 -0.8731 -1.2578
 8573TIP3    H249915   2.969   5.722  12.703  1.0495  0.4056  0.1002
 8574TIP3   OH249916   3.662   7.496  10.612 -0.1152 -0.0331  0.0072
 8574TIP3    H149917   3.655   7.588  10.584 -0.2717  0.0652  0.3648
 8574TIP3    H249918   3.574   7.461  10.601 -0.1306 -0.0494  0.1856
 8575TIP3   OH249919   0.127   1.712  11.203 -0.0151  0.1955  0.3735
 8575TIP3    H149920   0.093   1.736  11.117 -1.7495 -1.2061  0.6291
 8575TIP3    H249921   0.221   1.697  11.188 -0.5052 -1.2878 -1.5613
 8576TIP3   OH249922   5.851   3.585  11.862  0.4239 -0.2963 -0.4851
 8576TIP3    H149923   5.945   3.568  11.869  0.4807  0.3678  0.4849
 8576TIP3    H249924   5.828   3.632  11.942 -0.8477 -0.8974 -0.4617
 8577TIP3   OH249925   0.140   4.759  10.522  0.4003 -0.5334 -0.0554
 8577TIP3    H149926   0.054   4.789  10.551 -0.3596 -2.6007 -0.0162
 8577TIP3    H249927   0.193   4.756  10.601 -0.3690 -1.9683  0.4327
 8578TIP3   OH249928   7.195   6.198  12.012 -0.0226  0.4821  0.4781
 8578TIP3    H149929   7.193   6.116  12.062  2.4315  0.1442  0.1580
 8578TIP3    H249930   7.189   6.170  11.920  1.4996  0.5504  0.3306
 8579TIP3   OH249931   4.695   5.740  12.805  0.1385  0.0380  0.2616
 8579TIP3    H149932   4.769   5.690  12.769 -0.0427 -0.3381  0.4060
 8579TIP3    H249933   4.725   5.831  12.804  0.0763  0.0697 -1.0043
 8580TIP3   OH249934   0.301   0.240  11.193  0.3538 -0.6106 -0.1347
 8580TIP3    H149935   0.318   0.172  11.127  0.0459  0.2661 -1.1422
 8580TIP3    H249936   0.387   0.279  11.209  0.2331  0.0315 -0.9917
 8581TIP3   OH249937   3.768   1.832  13.006  0.5136  0.6176  0.4113
 8581TIP3    H149938   3.772   1.866  12.916 -1.2570 -0.8322 -0.2768
 8581TIP3    H249939   3.700   1.886  13.048  1.4700  1.4185  0.9780
 8582TIP3   OH249940   3.873   2.374  10.475  0.1939  0.4003 -0.4619
 8582TIP3    H149941   3.897   2.450  10.529  0.3138  0.2948 -0.3646
 8582TIP3    H249942   3.955   2.346  10.435  0.3846 -0.4089  0.4432
 8583TIP3   OH249943   7.514   6.398  10.498 -0.0114 -0.3647  0.2909
 8583TIP3    H149944   7.589   6.415  10.554 -0.1258 -1.8471  0.9396
 8583TIP3    H249945   7.543   6.424  10.410  0.3945  1.3404  0.8967
 8584TIP3   OH249946   3.093   4.113  12.354 -0.1111  0.6867 -0.4234
 8584TIP3    H149947   3.052   4.058  12.287 -0.2666  0.8512 -0.4636
 8584TIP3    H249948   3.130   4.187  12.305 -0.5909  1.0240 -0.2810
 8585TIP3   OH249949   2.155   5.034  12.752  0.6989  0.0763  0.1350
 8585TIP3    H149950   2.212   5.095  12.706 -0.3014  1.5054  0.7232
 8585TIP3    H249951   2.214   4.968  12.788  1.6636 -0.0642 -1.6279
 8586TIP3   OH249952   2.994   3.983  11.623  0.2468  0.3970 -0.1905
 8586TIP3    H149953   2.904   4.017  11.619  0.5944  1.2236 -2.0993
 8586TIP3    H249954   3.044   4.041  11.566  2.0295 -0.0280  0.8628
 8587TIP3   OH249955   7.564   0.309  12.000 -0.7273 -0.0474 -0.7454
 8587TIP3    H149956   7.520   0.346  12.076 -1.3582  0.0943 -1.1644
 8587TIP3    H249957   7.633   0.253  12.036 -1.3196 -0.3593 -0.0648
 8588TIP3   OH249958   1.763   0.285  11.653  0.7111  0.2834  0.1591
 8588TIP3    H149959   1.701   0.327  11.594 -1.2864 -0.5553  1.5310
 8588TIP3    H249960   1.848   0.316  11.625 -0.3448  1.7991 -1.5907
 8589TIP3   OH249961   6.520   1.684  11.852 -0.1950  0.2982  0.4771
 8589TIP3    H149962   6.445   1.628  11.872 -0.0663  0.6718  2.1888
 8589TIP3    H249963   6.490   1.773  11.871  0.0102  0.7026 -0.9548
 8590TIP3   OH249964   3.073   7.134  11.649  0.7759 -0.2841 -0.3662
 8590TIP3    H149965   3.135   7.066  11.676  0.4346 -1.4605 -2.3007
 8590TIP3    H249966   3.109   7.169  11.568  0.8308  1.7638  0.4734
 8591TIP3   OH249967   4.017   3.395  10.631  0.2339  0.7190  0.8084
 8591TIP3    H149968   4.097   3.359  10.593  0.4358  0.3188  1.6088
 8591TIP3    H249969   4.040   3.417  10.721 -1.1146 -1.4166  1.7616
 8592TIP3   OH249970   0.052   7.054  12.796  0.2635  0.1423  1.2947
 8592TIP3    H149971   0.135   7.056  12.844  0.9848 -0.3830  0.1311
 8592TIP3    H249972   0.072   7.003  12.718 -0.8380  1.0847  0.3706
 8593TIP3   OH249973   2.042   1.341  11.708 -0.0012 -0.1881  0.1864
 8593TIP3    H149974   2.078   1.281  11.773  0.4781  0.0132  0.1109
 8593TIP3    H249975   1.984   1.398  11.758 -0.4778 -0.7210  0.2553
 8594TIP3   OH249976   5.031   5.918  12.807 -0.2760 -0.5641 -0.1300
 8594TIP3    H149977   4.937   5.935  12.812 -0.3905 -1.0811 -0.4175
 8594TIP3    H249978   5.066   5.955  12.888 -0.5238  0.8358 -0.6334
 8595TIP3   OH249979   4.735   0.932  11.031 -0.0085 -0.0134 -0.4108
 8595TIP3    H149980   4.822   0.957  10.998  0.0491  0.1611 -0.1267
 8595TIP3    H249981   4.678   1.004  11.004 -0.0258 -0.0284 -0.4150
 8596TIP3   OH249982   7.331   1.003  11.872 -0.0297 -0.3644  0.2257
 8596TIP3    H149983   7.383   0.945  11.928  2.0478  0.2060 -0.9838
 8596TIP3    H249984   7.309   0.951  11.795  0.1754 -0.1451  0.0125
 8597TIP3   OH249985   2.825   2.956   9.951  0.0103 -0.4766 -0.2187
 8597TIP3    H149986   2.834   3.051   9.951 -0.7976 -0.3876 -0.1093
 8597TIP3    H249987   2.839   2.931  10.043 -0.4375 -0.3801 -0.1184
 8598TIP3   OH249988   3.339   6.942  12.102  0.3765  0.0758 -0.1946
 8598TIP3    H149989   3.360   7.025  12.145 -0.0903 -0.3522  0.8828
 8598TIP3    H249990   3.270   6.904  12.155  1.5515 -1.6761  0.1512
 8599TIP3   OH249991   2.955   6.891  12.003  0.1453 -0.1454  1.3640
 8599TIP3    H149992   3.011   6.933  12.068 -0.1651  1.2741  0.7743
 8599TIP3    H249993   3.011   6.824  11.963  0.5619 -0.5494  2.5687
 8600TIP3   OH249994   3.661   4.376  11.752  0.0956 -0.4672  0.3041
 8600TIP3    H149995   3.683   4.458  11.797  0.3197 -1.4816  2.1499
 8600TIP3    H249996   3.588   4.341  11.803  0.7252 -1.9461  0.2253
 8601TIP3   OH249997   1.973   5.181  13.067  0.4158  0.0686  0.5917
 8601TIP3    H149998   2.041   5.241  13.036 -0.6901  0.7152 -0.6676
 8601TIP3    H249999   1.915   5.236  13.119 -0.1419 -0.0829  0.1358
 8602TIP3   OH250000   6.403   0.727  11.990 -0.0868 -0.0055  0.2108
 8602TIP3    H150001   6.417   0.736  11.896  1.9061 -1.7102  0.2583
 8602TIP3    H250002   6.464   0.789  12.030 -0.2087 -0.0026  0.3969
 8603TIP3   OH250003   5.109   3.354  12.132  0.5952  0.1536  0.1679
 8603TIP3    H150004   5.124   3.275  12.079 -0.1916 -0.9736  1.5374
 8603TIP3    H250005   5.020   3.380  12.110  0.4005 -0.0991  0.6418
 8604TIP3   OH250006   6.074   1.169  11.618 -0.2165 -0.3375 -0.2336
 8604TIP3    H150007   6.019   1.118  11.559 -1.8853  0.9139  0.1844
 8604TIP3    H250008   6.114   1.103  11.675  0.2476 -1.4258 -1.7482
 8605TIP3   OH250009   2.637   7.411  11.261 -0.6130  0.2377 -0.0842
 8605TIP3    H150010   2.701   7.445  11.324 -1.1401 -0.5478  0.8995
 8605TIP3    H250011   2.561   7.468  11.272 -1.2741 -0.8145  1.1348
 8606TIP3   OH250012   6.370   4.569  10.905 -0.1238 -0.4860 -0.3323
 8606TIP3    H150013   6.423   4.596  10.831 -0.5385 -1.0020 -0.8316
 8606TIP3    H250014   6.430   4.522  10.963  0.4956  1.0436  0.3180
 8607TIP3   OH250015   1.324   3.491  10.925  0.7764 -0.3209  0.0355
 8607TIP3    H150016   1.391   3.459  10.985  0.8534  0.3818  0.3268
 8607TIP3    H250017   1.279   3.411  10.896  0.4837 -0.6622  1.3204
 8608TIP3   OH250018   5.323   1.508  11.818 -0.6670 -0.0288 -0.0954
 8608TIP3    H150019   5.350   1.600  11.822  1.4547 -0.6560  1.6603
 8608TIP3    H250020   5.273   1.495  11.898 -2.3619 -0.0737 -1.1052
 8609TIP3   OH250021   3.173   7.609  10.740 -0.2307  0.1839  0.6354
 8609TIP3    H150022   3.126   7.681  10.783 -1.0377 -1.0255  1.8585
 8609TIP3    H250023   3.134   7.530  10.777  0.7692 -0.8936 -0.5398
 8610TIP3   OH250024   4.439   5.499  12.162  0.1236 -0.1755 -0.0709
 8610TIP3    H150025   4.427   5.562  12.091 -1.4514  2.8163  2.5669
 8610TIP3    H250026   4.390   5.421  12.134 -2.8262  1.8832 -1.2014
 8611TIP3   OH250027   0.092   1.029  11.158  0.5776  0.0841 -0.2796
 8611TIP3    H150028   0.036   1.074  11.094  0.6259  2.9461  1.5420
 8611TIP3    H250029   0.180   1.036  11.121  0.4574  0.6253 -0.4721
 8612TIP3   OH250030   6.785   1.815  12.331 -0.7705  0.0786 -0.3154
 8612TIP3    H150031   6.849   1.804  12.261 -0.2938  2.2006 -0.2732
 8612TIP3    H250032   6.829   1.780  12.409  0.4578  1.5863 -0.2676
 8613TIP3   OH250033   1.731   2.453  10.334  0.3449  0.3489  0.0021
 8613TIP3    H150034   1.779   2.534  10.353  1.0152 -0.4585  2.0647
 8613TIP3    H250035   1.792   2.400  10.284 -0.0501  1.0294 -1.2452
 8614TIP3   OH250036   7.593   4.706  12.988 -0.0453 -0.1500  0.3625
 8614TIP3    H150037   7.541   4.786  12.987 -1.0539 -0.7896 -0.5291
 8614TIP3    H250038   7.600   4.682  13.080 -0.3290  0.5826  0.5801
 8615TIP3   OH250039   6.970   1.379  11.866  0.2857 -0.1427 -0.2151
 8615TIP3    H150040   7.023   1.368  11.787 -0.4894  0.1660 -0.7867
 8615TIP3    H250041   7.001   1.460  11.905 -0.8415  0.9129 -1.4227
 8616TIP3   OH250042   6.597   6.147  11.621 -0.2583  1.0225  0.2337
 8616TIP3    H150043   6.690   6.155  11.645 -0.1760  1.1087 -0.1174
 8616TIP3    H250044   6.550   6.173  11.701  0.0134  2.9412 -0.1765
 8617TIP3   OH250045   0.193   4.715  12.524 -0.1469  0.3632 -0.2882
 8617TIP3    H150046   0.222   4.762  12.446  2.1174 -0.3746  0.0345
 8617TIP3    H250047   0.239   4.757  12.596  2.3267 -2.4927 -0.0240
 8618TIP3   OH250048   3.066   5.169  11.450 -0.6259  0.4016  0.4130
 8618TIP3    H150049   2.997   5.231  11.429 -0.0777  1.1800  0.8321
 8618TIP3    H250050   3.047   5.142  11.540 -1.3343 -0.6952 -0.0510
 8619TIP3   OH250051   5.537   0.973  12.236 -0.2073 -0.1693  0.5249
 8619TIP3    H150052   5.591   1.051  12.249  0.7448 -0.7523  0.1871
 8619TIP3    H250053   5.517   0.942  12.324  2.2193 -1.4094  0.7085
 8620TIP3   OH250054   5.133   4.710  12.519 -0.2456 -0.1113  0.7041
 8620TIP3    H150055   5.199   4.756  12.570  0.9485  0.3671 -1.1796
 8620TIP3    H250056   5.182   4.650  12.463 -1.1162  1.6860 -2.2271
 8621TIP3   OH250057   3.147   0.639  12.547 -0.8246  0.2169 -0.6759
 8621TIP3    H150058   3.117   0.555  12.583 -2.7232  0.2426 -2.0950
 8621TIP3    H250059   3.150   0.697  12.623 -0.4838 -0.8499  0.1567
 8622TIP3   OH250060   5.235   7.456  11.718  0.2411  0.0445  0.0924
 8622TIP3    H150061   5.294   7.529  11.701  0.6253 -0.5095 -1.0370
 8622TIP3    H250062   5.245   7.398  11.642 -0.1652 -1.1108  0.8866
 8623TIP3   OH250063   1.398   5.797  11.298 -0.1729  0.4808 -0.6418
 8623TIP3    H150064   1.406   5.761  11.210  1.0454 -0.8968 -0.0057
 8623TIP3    H250065   1.305   5.793  11.318 -0.3308 -0.1583 -1.4736
 8624TIP3   OH250066   4.636   3.519  11.232 -0.0828  0.5884  0.1981
 8624TIP3    H150067   4.633   3.595  11.173  0.0068  0.3724 -0.0852
 8624TIP3    H250068   4.651   3.444  11.174  0.6757  0.4549  0.5621
 8625TIP3   OH250069   3.300   0.245  12.772  0.2395  0.2811 -0.0155
 8625TIP3    H150070   3.375   0.232  12.829  0.3197 -1.3752 -0.4543
 8625TIP3    H250071   3.337   0.247  12.683 -0.2757 -1.1980 -0.2830
 8626TIP3   OH250072   5.722   2.856  12.383  0.0573  0.2408 -0.2018
 8626TIP3    H150073   5.809   2.840  12.346 -0.1846  1.7207 -1.5227
 8626TIP3    H250074   5.727   2.945  12.417 -1.2754  0.8194 -1.4239
 8627TIP3   OH250075   6.839   2.842  12.891  0.1297 -0.4125 -0.0849
 8627TIP3    H150076   6.828   2.849  12.796  0.3372 -3.0886 -0.3861
 8627TIP3    H250077   6.902   2.911  12.913 -0.1546  0.4520 -1.8271
 8628TIP3   OH250078   0.324   1.323  10.345 -0.1867 -0.5296 -0.1860
 8628TIP3    H150079   0.352   1.395  10.401 -0.2947 -0.7911  0.2046
 8628TIP3    H250080   0.261   1.363  10.284 -0.1956 -0.2817 -0.0160
 8629TIP3   OH250081   5.216   4.845  11.504  0.8478  0.0732 -0.0958
 8629TIP3    H150082   5.311   4.860  11.503  0.8470  0.1013 -1.1442
 8629TIP3    H250083   5.179   4.927  11.535  1.2135 -0.2983  1.3667
 8630TIP3   OH250084   3.061   3.352  10.604  0.0320 -0.3738 -0.2034
 8630TIP3    H150085   3.112   3.318  10.531  0.1970  0.1674 -0.3421
 8630TIP3    H250086   3.109   3.324  10.682  0.2521 -0.3208 -0.3192
 8631TIP3   OH250087   5.614   4.018  11.587 -0.4561  0.7649 -0.0875
 8631TIP3    H150088   5.610   3.930  11.626 -1.4043  0.8003 -0.0829
 8631TIP3    H250089   5.550   4.016  11.516  1.1368  0.7578 -1.5797
 8632TIP3   OH250090   0.621   2.401  11.384  0.2229  0.3263 -1.3907
 8632TIP3    H150091   0.564   2.364  11.451  0.3792  0.0440 -1.4126
 8632TIP3    H250092   0.561   2.430  11.315 -0.0245  1.6517 -0.6477
 8633TIP3   OH250093   0.057   5.019  10.437  0.3160  0.0905 -0.2131
 8633TIP3    H150094   0.098   4.932  10.437  0.9949  0.4049 -0.7147
 8633TIP3    H250095   0.118   5.075  10.483  1.6001  1.0620 -2.8937
 8634TIP3   OH250096   0.997   3.461  11.471  0.6751 -0.6217  0.1743
 8634TIP3    H150097   0.908   3.496  11.467 -0.5562 -3.5114  0.1115
 8634TIP3    H250098   1.035   3.484  11.386 -0.4881 -0.4833 -0.3252
 8635TIP3   OH250099   6.880   5.718  12.266  0.1558  0.2018  0.3029
 8635TIP3    H150100   6.822   5.645  12.286 -2.4793  2.2666  0.6809
 8635TIP3    H250101   6.832   5.796  12.293  2.3239  2.2064 -1.1741
 8636TIP3   OH250102   5.274   2.569  11.410 -0.5543 -0.2539 -0.5999
 8636TIP3    H150103   5.241   2.551  11.322 -0.7470  0.9277 -0.7847
 8636TIP3    H250104   5.336   2.641  11.398 -1.1382  0.4287  0.3285
 8637TIP3   OH250105   2.085   5.261  11.632  0.7299  0.1008  0.3457
 8637TIP3    H150106   2.134   5.190  11.673  0.8472  0.4781  0.8588
 8637TIP3    H250107   2.001   5.263  11.678  0.3870 -0.2677 -0.2497
 8638TIP3   OH250108   0.221   2.166  13.069  0.3735 -0.0590  0.0894
 8638TIP3    H150109   0.301   2.212  13.093  1.1822 -1.0881 -0.5734
 8638TIP3    H250110   0.190   2.213  12.991  1.5094 -0.9511 -0.9315
 8639TIP3   OH250111   4.835   2.570  10.318 -0.7351 -0.2826 -0.1763
 8639TIP3    H150112   4.842   2.665  10.313 -1.5021 -0.2233 -0.2595
 8639TIP3    H250113   4.919   2.542  10.354 -0.8438  0.5058  0.7527
 8640TIP3   OH250114   5.033   6.567  12.825 -0.3385 -0.0965  0.5925
 8640TIP3    H150115   5.005   6.633  12.761  0.6847  0.8015  1.0261
 8640TIP3    H250116   5.098   6.514  12.778  1.0374  1.0850  1.0835
 8641TIP3   OH250117   6.366   6.949  10.651  0.4520  0.2508  0.2562
 8641TIP3    H150118   6.360   7.035  10.693  0.8300  0.2179  0.3813
 8641TIP3    H250119   6.351   6.967  10.558  1.2931  0.5715  0.1690
 8642TIP3   OH250120   7.045   3.288  12.321  0.2043 -0.4835  0.3357
 8642TIP3    H150121   7.113   3.355  12.325 -1.5139  1.3168  0.4690
 8642TIP3    H250122   7.017   3.277  12.412  0.3067 -1.2563  0.2850
 8643TIP3   OH250123   4.647   7.176  10.992  0.6116 -0.7397  0.5070
 8643TIP3    H150124   4.673   7.092  11.029 -1.6398 -2.0247 -0.6045
 8643TIP3    H250125   4.563   7.197  11.035 -1.5946 -1.8080 -2.8514
 8644TIP3   OH250126   3.367   2.296  12.591 -0.2954  0.4178  0.3478
 8644TIP3    H150127   3.334   2.238  12.523  1.9245 -0.4389 -0.1008
 8644TIP3    H250128   3.385   2.378  12.546  2.1448 -0.4593 -0.4579
 8645TIP3   OH250129   5.344   4.637  12.778  0.3723 -0.1660 -0.4300
 8645TIP3    H150130   5.284   4.643  12.852  0.4151  0.6192 -0.4514
 8645TIP3    H250131   5.335   4.721  12.733  0.4439 -0.5793 -1.2437
 8646TIP3   OH250132   4.289   1.893  12.868  0.6888 -0.1662 -0.3522
 8646TIP3    H150133   4.227   1.838  12.916  0.1212  0.1777 -0.6775
 8646TIP3    H250134   4.301   1.848  12.785 -0.8724  0.8737 -1.2013
 8647TIP3   OH250135   3.344   6.588  12.059 -0.0015  0.2459  0.1412
 8647TIP3    H150136   3.419   6.641  12.031  1.7707 -1.7199  0.8238
 8647TIP3    H250137   3.328   6.614  12.149  0.3794  0.1660  0.2355
 8648TIP3   OH250138   5.282   2.670  11.945  0.0609 -0.1517 -0.3389
 8648TIP3    H150139   5.275   2.588  11.897  0.6926 -0.1629 -0.4187
 8648TIP3    H250140   5.217   2.663  12.015 -0.3870 -0.4144 -0.7810
 8649TIP3   OH250141   5.775   2.426  10.362  0.0082  0.0676 -0.5337
 8649TIP3    H150142   5.726   2.500  10.324  1.1199  0.2794 -1.6369
 8649TIP3    H250143   5.748   2.351  10.310 -1.2243 -0.3655  0.6780
 8650TIP3   OH250144   5.792   7.498  11.901  0.9619  0.0940  0.3115
 8650TIP3    H150145   5.831   7.526  11.818 -0.8896 -0.7636 -0.9419
 8650TIP3    H250146   5.865   7.491  11.962  2.4128  0.5891 -1.2973
 8651TIP3   OH250147   0.424   6.199  11.083  0.2790 -0.2601  1.1383
 8651TIP3    H150148   0.353   6.263  11.083  0.7236  0.2482  0.1819
 8651TIP3    H250149   0.381   6.116  11.067 -0.0305  0.1515 -0.2773
 8652TIP3   OH250150   2.163   5.369  10.865 -0.3465  0.1064  0.2568
 8652TIP3    H150151   2.118   5.453  10.856  0.9682  0.7553 -0.7036
 8652TIP3    H250152   2.106   5.316  10.921 -1.1960  1.6371  0.8806
 8653TIP3   OH250153   5.946   3.343  12.951  0.7571 -0.5022  0.1249
 8653TIP3    H150154   5.975   3.347  13.042  2.3041 -2.4115 -0.2219
 8653TIP3    H250155   5.878   3.410  12.945  0.5811 -0.3478  2.6775
 8654TIP3   OH250156   3.118   6.670  11.940  0.0091 -0.2676  0.2639
 8654TIP3    H150157   3.182   6.651  12.008  0.4253 -1.2361 -0.3808
 8654TIP3    H250158   3.091   6.584  11.907 -1.0402  0.1527 -0.0077
 8655TIP3   OH250159   3.562   5.550  12.654 -0.7166  0.0507 -0.2211
 8655TIP3    H150160   3.644   5.573  12.699 -0.0809 -1.7812 -0.3494
 8655TIP3    H250161   3.585   5.549  12.561 -1.1890  0.6328 -0.3481
 8656TIP3   OH250162   1.024   0.917  12.206 -0.2384  0.5387 -0.2476
 8656TIP3    H150163   0.959   0.851  12.232 -0.4388  0.2463 -1.4199
 8656TIP3    H250164   0.974   0.982  12.157  0.2693  0.5881 -0.7108
 8657TIP3   OH250165   2.925   4.737  10.375 -0.0859  0.7302 -0.0891
 8657TIP3    H150166   2.960   4.737  10.286  0.3732 -0.5564  0.0716
 8657TIP3    H250167   2.990   4.783  10.426  0.1393  0.5827 -0.2418
 8658TIP3   OH250168   1.737   5.185  11.147 -0.8213  0.0043 -0.3577
 8658TIP3    H150169   1.690   5.241  11.209 -0.4332 -1.1346  1.0147
 8658TIP3    H250170   1.818   5.232  11.130 -0.5270 -0.0708  0.7283
 8659TIP3   OH250171   4.284   6.555  12.370 -0.5654 -0.4943  0.3701
 8659TIP3    H150172   4.245   6.579  12.454  1.5406  1.1980  0.9537
 8659TIP3    H250173   4.368   6.515  12.393  0.2214  0.3512 -0.9032
 8660TIP3   OH250174   0.715   6.503  11.474  1.2199  0.1340 -0.3609
 8660TIP3    H150175   0.741   6.414  11.450 -0.1340 -0.1409 -0.8965
 8660TIP3    H250176   0.624   6.496  11.502  1.9521  0.8814  2.5882
 8661TIP3   OH250177   5.098   5.966  11.316  0.3838  0.6854 -0.3511
 8661TIP3    H150178   5.159   5.894  11.333  0.0293  0.0946 -1.5285
 8661TIP3    H250179   5.150   6.045  11.331  1.1744  0.1873 -0.4253
 8662TIP3   OH250180   5.524   1.247  11.329  0.3388 -0.5757  0.2881
 8662TIP3    H150181   5.474   1.266  11.408  0.5207  4.3197 -0.4674
 8662TIP3    H250182   5.601   1.198  11.360 -1.4685 -2.3120  2.4062
 8663TIP3   OH250183   4.988   7.106  11.679  0.1046 -0.5160 -0.0029
 8663TIP3    H150184   5.055   7.130  11.743 -0.8645  2.4727  0.0709
 8663TIP3    H250185   4.957   7.190  11.644 -3.2919 -1.7574 -0.3522
 8664TIP3   OH250186   3.941   6.109  10.857 -0.2554  0.0100  0.1621
 8664TIP3    H150187   3.846   6.101  10.869 -0.1824  0.3828  1.0359
 8664TIP3    H250188   3.967   6.025  10.820 -1.2650  0.7453 -2.4566
 8665TIP3   OH250189   4.827   0.379  11.851  0.3217 -0.2321 -0.5568
 8665TIP3    H150190   4.751   0.425  11.888 -0.1975 -2.5093  1.4787
 8665TIP3    H250191   4.801   0.360  11.761 -1.8798 -1.4933  0.2556
 8666TIP3   OH250192   6.928   7.293  12.963 -0.0880  0.4540 -0.1348
 8666TIP3    H150193   6.902   7.347  13.037  1.4231  1.1629 -0.0730
 8666TIP3    H250194   7.012   7.256  12.989 -0.8503 -1.5755 -0.3843
 8667TIP3   OH250195   0.549   0.850  11.895  0.2235 -0.1046  0.8080
 8667TIP3    H150196   0.469   0.870  11.845 -0.0080  0.4427  1.3880
 8667TIP3    H250197   0.617   0.844  11.828 -0.2875 -0.4860  0.3116
 8668TIP3   OH250198   2.736   7.164  10.846 -0.4993  0.2337  0.3543
 8668TIP3    H150199   2.793   7.127  10.914 -0.0107  2.5176  1.3172
 8668TIP3    H250200   2.649   7.162  10.885 -0.6025 -0.5485  0.0958
 8669TIP3   OH250201   6.799   5.923  11.112  0.1410 -0.0690  0.8770
 8669TIP3    H150202   6.869   5.966  11.062  0.6553 -1.5113  0.2936
 8669TIP3    H250203   6.718   5.964  11.080  0.5088 -0.4891 -0.7173
 8670TIP3   OH250204   2.318   5.087  11.447 -0.0415  0.2006  0.4907
 8670TIP3    H150205   2.409   5.089  11.476  0.4219 -2.3504 -0.5132
 8670TIP3    H250206   2.273   5.037  11.515 -0.0364 -1.1676 -0.4820
 8671TIP3   OH250207   1.784   7.680  10.333  0.1418 -0.4749  0.4139
 8671TIP3    H150208   1.694   7.670  10.365  0.2499  0.7425  1.1583
 8671TIP3    H250209   1.838   7.646  10.404  0.3213  0.6692  0.8511
 8672TIP3   OH250210   3.272   6.433  11.613  0.0324  0.6562  0.2325
 8672TIP3    H150211   3.269   6.526  11.593  2.3846  1.2455  2.1529
 8672TIP3    H250212   3.200   6.395  11.562  0.6629  3.0613 -2.7708
 8673TIP3   OH250213   7.468   3.624  11.440  0.3124 -0.2150  0.2887
 8673TIP3    H150214   7.431   3.549  11.394 -0.3967 -0.1919  0.8085
 8673TIP3    H250215   7.400   3.692  11.435  0.0522 -0.3480  1.7047
 8674TIP3   OH250216   1.205   4.636  12.296 -0.7606 -0.0319 -0.0449
 8674TIP3    H150217   1.292   4.676  12.291 -0.3040 -0.8673  0.7655
 8674TIP3    H250218   1.169   4.668  12.379 -1.0414 -0.0414 -0.1625
 8675TIP3   OH250219   1.960   6.849  11.137 -0.3529  0.1488 -0.1184
 8675TIP3    H150220   2.019   6.917  11.170  1.3241 -0.4776 -1.6893
 8675TIP3    H250221   1.965   6.780  11.203 -1.0689  0.9756  0.8425
 8676TIP3   OH250222   2.652   7.449  12.472 -0.7354  0.4372 -0.0044
 8676TIP3    H150223   2.716   7.393  12.429 -0.3159  1.1378 -0.3086
 8676TIP3    H250224   2.703   7.501  12.534 -1.1295  0.4267  0.3328
 8677TIP3   OH250225   1.182   5.830  11.528  0.3460  0.3594 -0.3107
 8677TIP3    H150226   1.186   5.760  11.593  0.0668  0.3972 -0.2511
 8677TIP3    H250227   1.252   5.890  11.554  3.1234 -1.6900 -2.4900
 8678TIP3   OH250228   3.427   1.013  10.696  1.3449 -0.1791  0.0333
 8678TIP3    H150229   3.469   1.084  10.743  0.6322 -0.7465  1.6336
 8678TIP3    H250230   3.459   1.020  10.606  2.5767  1.1156  0.5393
 8679TIP3   OH250231   7.027   6.153  10.602  0.2498  0.4530  0.3455
 8679TIP3    H150232   6.983   6.117  10.525 -1.0708 -1.9537  2.0761
 8679TIP3    H250233   7.112   6.183  10.569 -0.3340 -0.2788 -2.0648
 8680TIP3   OH250234   0.813   0.021  12.064  0.3694 -0.0772  0.1217
 8680TIP3    H150235   0.803  -0.053  12.004  1.2312  1.2070 -1.7036
 8680TIP3    H250236   0.763   0.091  12.023 -1.5642  0.0536  2.5073
 8681TIP3   OH250237   5.322   1.018  11.603  0.3724  0.2896 -0.2495
 8681TIP3    H150238   5.286   1.100  11.634  0.4511 -0.7290  2.9281
 8681TIP3    H250239   5.391   0.997  11.665 -0.2360 -2.5828 -0.3861
 8682TIP3   OH250240   4.351   3.087  10.947 -0.4106  0.2917  0.3354
 8682TIP3    H150241   4.421   3.079  11.011 -0.1827  0.7554  0.1483
 8682TIP3    H250242   4.276   3.120  10.998 -1.1725 -2.1885  0.9815
 8683TIP3   OH250243   0.197   4.761  12.915  0.2164 -0.0370  0.0208
 8683TIP3    H150244   0.169   4.694  12.976  1.3914 -0.8422 -0.2929
 8683TIP3    H250245   0.121   4.776  12.859 -0.1405 -0.9315  0.2496
 8684TIP3   OH250246   4.001   5.103  11.109  0.3242  0.5244  0.7432
 8684TIP3    H150247   3.999   5.140  11.021  0.7582  1.4488  1.1044
 8684TIP3    H250248   4.094   5.100  11.132  0.3229 -0.9413  0.6887
 8685TIP3   OH250249   5.731   3.024  13.418  0.2299  0.4057 -0.6494
 8685TIP3    H150250   5.652   3.010  13.365 -0.4960  1.3621  0.1424
 8685TIP3    H250251   5.763   3.110  13.391  1.0029  0.0395 -0.9383
 8686TIP3   OH250252   1.692   3.092  11.805 -0.5644  0.0042  0.0668
 8686TIP3    H150253   1.760   3.031  11.775 -0.6157  0.4883 -1.1094
 8686TIP3    H250254   1.704   3.098  11.899  1.2385  0.3376 -0.1580
 8687TIP3   OH250255   5.669   0.154  11.917  0.5082 -0.0594 -0.9983
 8687TIP3    H150256   5.656   0.239  11.960  0.7383  0.2306 -1.4874
 8687TIP3    H250257   5.762   0.152  11.896  0.8345 -1.1080  0.3847
 8688TIP3   OH250258   1.082   1.996  11.259  0.0376  0.3881  0.1200
 8688TIP3    H150259   1.148   1.935  11.292 -0.8675 -0.0467  1.2022
 8688TIP3    H250260   1.086   1.986  11.163 -1.4311 -2.9421  0.2392
 8689TIP3   OH250261   6.734   5.943  11.930 -0.3363  0.0618 -0.2127
 8689TIP3    H150262   6.645   5.963  11.957  0.0476 -0.2732  1.3695
 8689TIP3    H250263   6.742   5.848  11.939  0.1785  0.0890 -0.3398
 8690TIP3   OH250264   2.451   4.391  11.956 -0.4174  0.1093 -0.3637
 8690TIP3    H150265   2.427   4.301  11.933 -1.9234  0.1756  0.7604
 8690TIP3    H250266   2.445   4.439  11.873 -0.5139 -0.6523 -0.8094
 8691TIP3   OH250267   1.381   4.287  11.178  0.2165  0.8067  0.1094
 8691TIP3    H150268   1.411   4.307  11.267  1.1890 -0.2454  0.0335
 8691TIP3    H250269   1.302   4.340  11.168 -1.2232 -0.6660  2.4138
 8692TIP3   OH250270   2.730   0.268  11.651  0.3318 -0.2928  0.6034
 8692TIP3    H150271   2.637   0.280  11.636  0.8888  2.4018 -1.3450
 8692TIP3    H250272   2.745   0.303  11.739 -0.4855 -1.0436  1.0632
 8693TIP3   OH250273   0.680   7.383  11.273 -0.0273 -0.1620 -0.1506
 8693TIP3    H150274   0.688   7.406  11.365 -0.8210 -0.4720  0.0061
 8693TIP3    H250275   0.646   7.462  11.231  0.3732 -0.0077 -0.1871
 8694TIP3   OH250276   2.416   2.600  10.000  0.1051 -0.1102  0.5149
 8694TIP3    H150277   2.426   2.508   9.974  0.2428  0.0364  0.0310
 8694TIP3    H250278   2.498   2.641   9.972 -0.6767  0.5367 -0.9555
 8695TIP3   OH250279   7.261   0.614  12.087  0.2379  0.3212  0.2661
 8695TIP3    H150280   7.265   0.657  12.172  1.8828 -2.7522  1.9470
 8695TIP3    H250281   7.352   0.589  12.069 -0.3878 -1.0571 -1.2417
 8696TIP3   OH250282   7.324   5.543  13.717 -0.6440  0.4927  0.2312
 8696TIP3    H150283   7.330   5.478  13.786 -0.9740  0.8805  0.6349
 8696TIP3    H250284   7.347   5.496  13.637  0.8397  0.2999  0.7401
 8697TIP3   OH250285   4.843   2.389  12.804  0.0310  0.3107  0.6832
 8697TIP3    H150286   4.828   2.295  12.816 -3.2184  0.5569 -0.4352
 8697TIP3    H250287   4.776   2.431  12.859 -1.0608  1.8000 -1.6340
 8698TIP3   OH250288   4.644   1.482  12.074 -0.3658 -0.1742 -0.0430
 8698TIP3    H150289   4.585   1.475  11.998 -1.5033 -0.9884  0.8853
 8698TIP3    H250290   4.684   1.396  12.082 -0.5181 -0.2005  0.4843
 8699TIP3   OH250291   5.827   5.749  10.751 -0.2636 -0.7677  0.0004
 8699TIP3    H150292   5.837   5.754  10.846 -1.5868  0.1522  0.1159
 8699TIP3    H250293   5.915   5.729  10.719  0.7216  1.2129  1.2601
 8700TIP3   OH250294   0.439   1.439  10.697 -0.5478  0.0233  0.0028
 8700TIP3    H150295   0.516   1.389  10.725  0.3211  1.3342  0.0411
 8700TIP3    H250296   0.457   1.528  10.726 -1.8476  0.4565 -0.4795
 8701TIP3   OH250297   4.757   5.452  12.191  0.3370  0.3426 -0.6819
 8701TIP3    H150298   4.672   5.484  12.161 -0.1931 -0.6069 -0.2158
 8701TIP3    H250299   4.820   5.515  12.154 -0.5941  1.3821 -0.5543
 8702TIP3   OH250300   6.574   7.044  11.812 -0.2963  0.2738  0.4649
 8702TIP3    H150301   6.577   7.137  11.833 -1.4674  0.5197 -0.3854
 8702TIP3    H250302   6.482   7.021  11.819 -0.2369 -0.4427 -0.9206
 8703TIP3   OH250303   3.811   3.487  11.493  0.5362  0.4596 -0.0092
 8703TIP3    H150304   3.776   3.541  11.563 -0.2771 -1.5948  1.2645
 8703TIP3    H250305   3.877   3.432  11.535 -1.1109 -1.9726 -0.3886
 8704TIP3   OH250306   0.748   6.684  12.868  0.0946 -0.4820  0.6949
 8704TIP3    H150307   0.811   6.753  12.890 -1.6443  0.9790  1.4242
 8704TIP3    H250308   0.662   6.724  12.885 -1.2088 -1.4064 -2.7959
 8705TIP3   OH250309   6.088   7.552  11.522 -0.1498  0.0864  0.4984
 8705TIP3    H150310   6.071   7.560  11.428 -1.1114  1.1403  0.7423
 8705TIP3    H250311   6.169   7.602  11.536 -0.5231  0.7340  0.3738
 8706TIP3   OH250312   5.952   6.469  12.196  0.4848  0.4535  0.7976
 8706TIP3    H150313   5.971   6.497  12.286  2.3458 -2.0074  1.2766
 8706TIP3    H250314   5.857   6.458  12.194  0.3001  1.4804  2.1647
 8707TIP3   OH250315   0.849   3.593  11.720 -0.4515  0.6669 -0.0126
 8707TIP3    H150316   0.921   3.656  11.719 -0.4511  0.7303 -2.3104
 8707TIP3    H250317   0.888   3.512  11.750  0.9436  0.4161 -2.2473
 8708TIP3   OH250318   0.190   4.047  11.809  0.0228  0.0385  0.1560
 8708TIP3    H150319   0.131   4.054  11.734 -1.0574  1.4952  1.0710
 8708TIP3    H250320   0.277   4.064  11.773 -0.2640 -0.9177 -1.0205
 8709TIP3   OH250321   5.459   5.844  12.579  0.2457 -0.0977  0.0949
 8709TIP3    H150322   5.523   5.803  12.637  0.4324 -1.0829 -0.7678
 8709TIP3    H250323   5.392   5.880  12.637  1.0248 -0.0112  0.9576
 8710TIP3   OH250324   2.132   3.842  10.506 -0.3336 -0.2488 -0.7075
 8710TIP3    H150325   2.155   3.751  10.528 -2.7735 -0.5630  0.9367
 8710TIP3    H250326   2.044   3.836  10.470 -1.0849  1.5639  0.6739
 8711TIP3   OH250327   3.715   5.720  11.924 -0.0158 -0.2801  0.2348
 8711TIP3    H150328   3.724   5.780  11.850 -2.7876  1.4447  1.1374
 8711TIP3    H250329   3.692   5.776  11.998 -2.0088 -2.3124  1.3019
 8712TIP3   OH250330   6.896   5.698  12.968  0.2429 -0.3401  0.0407
 8712TIP3    H150331   6.812   5.697  12.922 -0.3055 -0.5442  1.0155
 8712TIP3    H250332   6.921   5.791  12.971 -0.5450 -0.1359  0.7770
 8713TIP3   OH250333   3.324   2.084  12.433  0.4487 -0.2015  0.0527
 8713TIP3    H150334   3.331   1.998  12.476 -0.5137 -0.3748 -0.1258
 8713TIP3    H250335   3.268   2.069  12.357  2.0985  0.1086 -1.3058
 8714TIP3   OH250336   6.063   4.569  13.128 -0.0719 -0.3637 -0.1969
 8714TIP3    H150337   6.128   4.633  13.101  0.2049 -0.6542 -0.2164
 8714TIP3    H250338   6.106   4.517  13.195 -0.9741  0.7980  1.3492
 8715TIP3   OH250339   3.848   4.455  12.697  0.1177  0.3756  0.0968
 8715TIP3    H150340   3.766   4.407  12.686  0.8094 -0.8329  0.0476
 8715TIP3    H250341   3.916   4.392  12.674  0.9973  2.1860 -2.8550
 8716TIP3   OH250342   6.702   3.685  12.161 -0.1913 -0.2365  0.2594
 8716TIP3    H150343   6.718   3.592  12.149 -2.1140 -0.7072  0.9155
 8716TIP3    H250344   6.757   3.710  12.235  3.2600  0.1240 -2.2017
 8717TIP3   OH250345   3.968   4.405  12.287  0.0919 -0.2975 -0.5910
 8717TIP3    H150346   3.975   4.313  12.311 -1.4509 -0.6265 -1.3322
 8717TIP3    H250347   3.991   4.452  12.368 -0.6501 -1.3361  0.2576
 8718TIP3   OH250348   4.247   0.962  11.615 -0.0521  0.0056 -0.0657
 8718TIP3    H150349   4.303   0.900  11.570  0.9413  0.6303  0.2813
 8718TIP3    H250350   4.238   0.927  11.704  0.0974  0.1073 -0.0115
 8719TIP3   OH250351   5.007   0.997  12.230  0.5654  0.5675  0.2950
 8719TIP3    H150352   5.068   1.027  12.163 -1.1648 -0.0844 -1.6401
 8719TIP3    H250353   4.935   1.059  12.227 -0.7524 -0.9469 -0.3066
 8720TIP3   OH250354   1.751   6.067  12.116  0.4827 -0.0432  0.0786
 8720TIP3    H150355   1.787   5.980  12.132  0.9441 -0.1924 -1.5357
 8720TIP3    H250356   1.813   6.109  12.056 -1.2163  0.2344 -1.6135
 8721TIP3   OH250357   0.515   0.872  11.538 -0.3012 -0.5638 -0.0714
 8721TIP3    H150358   0.439   0.882  11.595 -0.2456 -0.0242 -0.0876
 8721TIP3    H250359   0.484   0.901  11.452  0.1638  0.4955  0.1091
 8722TIP3   OH250360   6.592   3.094  13.087  0.6580  0.7023  0.0302
 8722TIP3    H150361   6.609   3.000  13.084 -0.3366  0.5158 -0.0612
 8722TIP3    H250362   6.559   3.110  13.175 -3.6734  0.1009 -1.2518
 8723TIP3   OH250363   5.131   4.573  12.153 -0.0977  0.0276 -0.1342
 8723TIP3    H150364   5.224   4.550  12.161 -0.3510 -0.5461  1.7139
 8723TIP3    H250365   5.108   4.552  12.063  1.1177 -1.6483 -0.1041
 8724TIP3   OH250366   3.255   3.968  12.502  0.3332  0.6077 -0.1082
 8724TIP3    H150367   3.326   3.981  12.439  1.0909 -0.0206  0.5839
 8724TIP3    H250368   3.184   4.023  12.470  0.2508 -0.5934 -2.1755
 8725TIP3   OH250369   0.553   5.304  11.004  0.1978 -0.5982 -0.2505
 8725TIP3    H150370   0.458   5.295  11.014  0.1213  0.3511 -0.0538
 8725TIP3    H250371   0.589   5.234  11.059 -0.3768 -0.6801  0.0297
 8726TIP3   OH250372   5.009   4.218  10.660  0.2620 -0.2893 -0.0820
 8726TIP3    H150373   4.981   4.276  10.589  0.4641 -0.9425 -0.7079
 8726TIP3    H250374   5.104   4.210  10.650  0.2964 -0.3679  0.2743
 8727TIP3   OH250375   5.262   6.193  10.949 -0.0164  0.2872  0.0384
 8727TIP3    H150376   5.336   6.221  11.002  1.1025  0.3388 -1.4590
 8727TIP3    H250377   5.184   6.219  10.998  0.9080 -1.2761  2.4692
 8728TIP3   OH250378   1.134   6.004  10.779 -0.1893  0.2421 -0.9178
 8728TIP3    H150379   1.171   6.088  10.809 -1.2454  0.2766  0.4070
 8728TIP3    H250380   1.209   5.945  10.777  0.3079  0.8280 -0.3519
 8729TIP3   OH250381   7.427   5.626  11.280 -0.3220 -0.1214  0.8931
 8729TIP3    H150382   7.470   5.582  11.354 -1.2974 -1.5902  0.6320
 8729TIP3    H250383   7.335   5.631  11.306 -0.3074  1.4063  0.7068
 8730TIP3   OH250384   6.837   6.814  12.034 -0.0253  0.2785 -0.4911
 8730TIP3    H150385   6.793   6.761  11.968 -0.4975  0.9027 -0.6805
 8730TIP3    H250386   6.919   6.842  11.992 -0.8090  1.5749 -1.2389
 8731TIP3   OH250387   1.372   6.608  11.195 -0.9539 -0.3002 -0.3184
 8731TIP3    H150388   1.420   6.558  11.128  0.4207  0.5890 -0.0448
 8731TIP3    H250389   1.318   6.669  11.145 -0.3399 -0.0085 -0.6449
 8732TIP3   OH250390   4.178   6.477  11.007 -0.3218 -0.3099  0.2417
 8732TIP3    H150391   4.205   6.385  11.006 -0.0533 -0.2520  1.4448
 8732TIP3    H250392   4.198   6.508  11.095 -1.1931  0.6756  0.1193
 8733TIP3   OH250393   0.129   1.713  13.031 -0.2389  0.4026  0.5953
 8733TIP3    H150394   0.216   1.751  13.027 -0.4333  0.8284  0.3604
 8733TIP3    H250395   0.076   1.779  13.077 -0.4533  0.1771  0.6783
 8734TIP3   OH250396   3.816   1.324  10.757 -0.6693  0.0368  0.3457
 8734TIP3    H150397   3.894   1.347  10.808 -0.3924 -1.3450  0.5753
 8734TIP3    H250398   3.794   1.405  10.710 -0.1749  0.9627  1.6571
 8735TIP3   OH250399   4.215   5.884  12.195  0.0245  0.0188 -0.8655
 8735TIP3    H150400   4.279   5.906  12.127 -1.7494  0.2261 -2.5630
 8735TIP3    H250401   4.138   5.937  12.173 -1.5404 -1.8991 -0.2584
 8736TIP3   OH250402   2.683   2.805  10.556 -0.0708 -0.3637 -0.3488
 8736TIP3    H150403   2.727   2.872  10.609  0.6302 -0.8752 -0.2755
 8736TIP3    H250404   2.602   2.847  10.527  0.6935  0.7743 -0.9053
 8737TIP3   OH250405   6.907   4.450  10.963 -0.0267  0.0245 -0.4515
 8737TIP3    H150406   6.970   4.508  11.005  0.2413 -1.0847  0.7492
 8737TIP3    H250407   6.956   4.371  10.943 -1.0593 -0.9719  0.7658
 8738TIP3   OH250408   4.919   5.751  12.380 -0.1435 -0.5892  0.2566
 8738TIP3    H150409   4.824   5.752  12.396  0.0827  0.0646  1.6883
 8738TIP3    H250410   4.950   5.670  12.419  0.0017 -0.4020  0.5318
 8739TIP3   OH250411   1.791   3.347  11.786 -0.0996  0.3175  0.6673
 8739TIP3    H150412   1.742   3.264  11.782  1.2352 -0.4730 -0.4515
 8739TIP3    H250413   1.845   3.339  11.865  0.3288 -0.0651  0.3383
 8740TIP3   OH250414   3.245   2.845  11.038 -0.1615 -0.6580  0.2529
 8740TIP3    H150415   3.156   2.810  11.042  0.1496 -1.4988 -0.1045
 8740TIP3    H250416   3.270   2.836  10.947  0.6940 -1.4463  0.5539
 8741TIP3   OH250417   2.090   0.237  10.959 -0.1807 -1.0933  0.8611
 8741TIP3    H150418   2.014   0.214  11.012 -1.4748 -0.0779 -0.4562
 8741TIP3    H250419   2.086   0.179  10.884 -1.1441  0.5878 -0.4565
 8742TIP3   OH250420   6.738   6.768  10.789  0.2741  0.8167  0.2282
 8742TIP3    H150421   6.667   6.721  10.833  0.7471  0.8165  1.0041
 8742TIP3    H250422   6.729   6.742  10.697 -0.6170  0.6772  0.3387
 8743TIP3   OH250423   7.359   5.027  10.715  0.1051 -0.5821 -0.0644
 8743TIP3    H150424   7.274   4.983  10.703 -1.0837  1.5375  0.1045
 8743TIP3    H250425   7.336   5.113  10.749  2.5364 -1.1316  3.5489
 8744TIP3   OH250426   3.197   3.366  11.579 -0.4555  0.1590  0.0852
 8744TIP3    H150427   3.150   3.415  11.647 -0.8149  1.1193 -0.8302
 8744TIP3    H250428   3.275   3.332  11.624 -0.6768  0.7832  0.9749
 8745TIP3   OH250429   5.779   6.992  11.446  0.1921  0.2649 -0.1373
 8745TIP3    H150430   5.815   6.997  11.535  1.1846  1.6366 -0.5864
 8745TIP3    H250431   5.733   7.075  11.434 -0.5583 -0.2180 -0.6565
 8746TIP3   OH250432   7.051   6.505  11.393 -0.1226  0.1480  0.0208
 8746TIP3    H150433   7.035   6.560  11.470  0.5483  1.0016 -0.4224
 8746TIP3    H250434   7.009   6.552  11.321  0.7902  0.2989 -0.4324
 8747TIP3   OH250435   6.401   6.634  11.237 -0.0388  0.3017  0.4311
 8747TIP3    H150436   6.472   6.696  11.250 -0.1947  0.5925 -0.0975
 8747TIP3    H250437   6.323   6.679  11.271 -0.0697  0.2118  0.4802
 8748TIP3   OH250438   6.376   5.822  11.313 -0.4288 -0.0298 -0.9997
 8748TIP3    H150439   6.418   5.825  11.399 -2.4299  0.8426  0.0170
 8748TIP3    H250440   6.340   5.734  11.307 -0.6968  0.0578 -0.7172
 8749TIP3   OH250441   3.070   1.849  12.764  0.3199  0.0372  0.5633
 8749TIP3    H150442   3.088   1.769  12.715  0.2412 -0.0467  0.6703
 8749TIP3    H250443   2.993   1.887  12.722  1.3146  0.9256 -0.5372
 8750TIP3   OH250444   1.238   2.303  11.096  0.0806 -0.0655  0.4168
 8750TIP3    H150445   1.144   2.302  11.114  0.5777 -0.7786  3.6799
 8750TIP3    H250446   1.278   2.300  11.183  3.1308 -0.3763 -0.9017
 8751TIP3   OH250447   7.374   1.499  12.771 -0.0359 -0.5883  0.1528
 8751TIP3    H150448   7.439   1.430  12.783  0.3780 -0.0505  1.0246
 8751TIP3    H250449   7.414   1.578  12.807 -1.4571 -0.4066  1.4244
 8752TIP3   OH250450   1.805   0.554  11.963  0.2502 -0.2752 -0.2294
 8752TIP3    H150451   1.726   0.503  11.980  0.2516  0.2782  1.5465
 8752TIP3    H250452   1.773   0.642  11.942  0.3818 -0.1766 -0.0155
 8753TIP3   OH250453   3.758   6.328  11.849 -0.0743  0.2087  0.1707
 8753TIP3    H150454   3.844   6.370  11.856 -0.2960  0.5769  0.7648
 8753TIP3    H250455   3.762   6.278  11.767  0.7937  0.0213  0.3189
 8754TIP3   OH250456   2.648   4.515  12.110 -0.0364  0.4619 -0.4068
 8754TIP3    H150457   2.667   4.466  12.190  0.6821  0.7123 -0.4150
 8754TIP3    H250458   2.572   4.471  12.072  0.6974 -0.7548 -0.5101
 8755TIP3   OH250459   5.815   3.888  13.677 -0.1230 -0.5045  0.2348
 8755TIP3    H150460   5.819   3.966  13.732  1.3910 -0.2381 -0.2118
 8755TIP3    H250461   5.890   3.835  13.704 -0.2113 -1.0631 -0.5634
 8756TIP3   OH250462   2.742   5.450  11.673  0.5419 -0.2047 -0.5157
 8756TIP3    H150463   2.771   5.359  11.676 -0.6843 -0.6235 -0.6567
 8756TIP3    H250464   2.669   5.450  11.611 -0.8221  0.4505  0.9790
 8757TIP3   OH250465   4.158   6.127  11.322  0.4992 -0.5099 -0.1188
 8757TIP3    H150466   4.236   6.162  11.279  0.3964 -2.0472 -1.6316
 8757TIP3    H250467   4.176   6.034  11.334 -1.2277 -0.9842 -0.8577
 8758TIP3   OH250468   2.433   7.535  12.091  0.4889 -0.3875  0.2618
 8758TIP3    H150469   2.436   7.528  12.187  0.6763 -1.0063  0.2132
 8758TIP3    H250470   2.359   7.594  12.074 -0.6388 -1.5913  0.7485
 8759TIP3   OH250471   2.289   4.349  12.962 -0.6884  0.3274  0.3646
 8759TIP3    H150472   2.243   4.405  13.025 -1.4649  0.3326 -0.1897
 8759TIP3    H250473   2.311   4.408  12.890  0.2254  0.3283  0.6313
 8760TIP3   OH250474   7.205   4.067  11.886  0.0932  0.3219 -0.2893
 8760TIP3    H150475   7.147   4.002  11.847  0.9722  0.1198 -1.3243
 8760TIP3    H250476   7.225   4.127  11.813  0.0374  1.2134  0.4141
 8761TIP3   OH250477   3.152   1.650  10.988 -0.8339  0.6596  0.2210
 8761TIP3    H150478   3.085   1.588  11.018  2.4928 -4.7985 -2.1122
 8761TIP3    H250479   3.154   1.639  10.893  2.4978  1.4233  0.0852
 8762TIP3   OH250480   6.198   5.099  10.609  0.5978 -0.0526  0.6616
 8762TIP3    H150481   6.258   5.037  10.652  0.5416  0.1121  0.9846
 8762TIP3    H250482   6.143   5.044  10.554  0.4541 -0.3118  1.0544
 8763TIP3   OH250483   0.674   3.423  12.754  0.1760  0.1638 -0.5108
 8763TIP3    H150484   0.669   3.452  12.663 -0.4094  0.7356 -0.3023
 8763TIP3    H250485   0.586   3.393  12.775 -0.3284  2.1894  0.5475
 8764TIP3   OH250486   4.508   2.840  18.921  0.4768  0.0078  0.1614
 8764TIP3    H150487   4.519   2.924  18.964  0.4714 -0.1965  0.5676
 8764TIP3    H250488   4.464   2.785  18.986 -3.0794  0.7808 -1.3544
 8765TIP3   OH250489   4.284   1.340  11.973  0.2247  0.5894 -0.1948
 8765TIP3    H150490   4.304   1.273  11.907 -1.5900  0.5998 -0.8050
 8765TIP3    H250491   4.297   1.295  12.057 -3.3507 -1.4728 -0.5307
 8766TIP3   OH250492   2.013   4.181  12.475 -0.0699  0.2142 -0.1103
 8766TIP3    H150493   1.960   4.260  12.464 -0.5854 -0.2318 -0.9292
 8766TIP3    H250494   2.076   4.204  12.543 -1.4207  0.6923  1.0187
 8767TIP3   OH250495   1.616   6.749  11.233 -0.2508  0.0010  0.0431
 8767TIP3    H150496   1.633   6.818  11.170  0.5613 -0.7602 -0.5998
 8767TIP3    H250497   1.525   6.725  11.218 -0.2818  0.3389 -0.3295
 8768TIP3   OH250498   7.576   1.447  11.985  0.3435 -0.3271 -0.2589
 8768TIP3    H150499   7.502   1.483  12.036 -0.2405 -0.5107 -0.9611
 8768TIP3    H250500   7.599   1.518  11.925  1.4601  0.1325  0.6714
 8769TIP3   OH250501   1.677   0.140  11.867  0.6261  0.3835  0.1216
 8769TIP3    H150502   1.763   0.130  11.909  0.4341  0.2965  0.4931
 8769TIP3    H250503   1.697   0.182  11.783  1.1099 -0.2900 -0.1130
 8770TIP3   OH250504   1.691   3.510  10.796 -0.9799  0.2413  0.1453
 8770TIP3    H150505   1.669   3.514  10.703 -0.9659 -0.5240  0.1005
 8770TIP3    H250506   1.787   3.506  10.798 -0.9688  0.5538  0.2044
 8771TIP3   OH250507   5.478   3.751  11.607  0.1798  0.1948  0.1478
 8771TIP3    H150508   5.397   3.700  11.606  0.5647 -0.4355  0.7962
 8771TIP3    H250509   5.530   3.715  11.535  0.1484  0.1755  0.1347
 8772TIP3   OH250510   1.244   1.539  11.366  0.2105  0.4651 -0.1289
 8772TIP3    H150511   1.205   1.609  11.418 -2.2262 -0.9810  0.1433
 8772TIP3    H250512   1.275   1.582  11.287  1.0042  2.1926  1.0738
 8773TIP3   OH250513   4.077   1.927  11.296 -0.1836 -0.5498 -0.0818
 8773TIP3    H150514   4.086   1.986  11.221  0.8726 -0.5797  0.0087
 8773TIP3    H250515   3.986   1.937  11.324 -0.1517  0.6523 -0.3835
 8774TIP3   OH250516   6.952   0.096  11.814 -0.1386 -0.1849 -0.1246
 8774TIP3    H150517   6.977   0.036  11.885  1.2835 -1.0858 -1.3166
 8774TIP3    H250518   6.884   0.049  11.766  1.4039 -1.1801 -1.4201
 8775TIP3   OH250519   4.598   5.834  13.079  0.2455  0.5137 -0.3226
 8775TIP3    H150520   4.611   5.919  13.121 -0.4604  1.3076 -1.6413
 8775TIP3    H250521   4.650   5.839  12.998 -0.8723  0.2189 -1.0738
 8776TIP3   OH250522   3.988   1.773  17.634  0.5812  0.0710  0.1903
 8776TIP3    H150523   3.962   1.749  17.545  1.6939 -1.0474  0.1334
 8776TIP3    H250524   3.991   1.868  17.634 -0.1557  0.1055 -0.7477
 8777TIP3   OH250525   1.154   2.152  10.736 -0.1961 -0.2722 -0.2646
 8777TIP3    H150526   1.172   2.195  10.652  3.0653  0.6534  0.7825
 8777TIP3    H250527   1.169   2.220  10.802 -1.3584 -1.3474  1.1765
 8778TIP3   OH250528   1.101   4.739  13.164 -0.1371  0.1184 -0.1295
 8778TIP3    H150529   1.159   4.786  13.103  1.1472 -0.3062  0.7301
 8778TIP3    H250530   1.119   4.778  13.249 -1.2619  0.0886  0.1353
 8779TIP3   OH250531   4.864   2.598  11.952  0.9662 -0.1616  0.3567
 8779TIP3    H150532   4.934   2.595  12.016  0.9373  2.4156  0.6130
 8779TIP3    H250533   4.908   2.591  11.867  1.7164  2.4187  0.4685
 8780TIP3   OH250534   6.961   3.817  13.003 -0.5467  0.1534 -0.2872
 8780TIP3    H150535   7.010   3.737  13.025 -2.5074 -1.6140 -1.9604
 8780TIP3    H250536   6.870   3.796  13.025 -1.1292  1.9453 -0.8166
 8781TIP3   OH250537   1.274   1.775  12.449 -0.2809  0.1578 -0.0406
 8781TIP3    H150538   1.234   1.694  12.479 -0.2526  0.3744  0.6037
 8781TIP3    H250539   1.215   1.808  12.381  0.9057 -1.5953 -2.0353
 8782TIP3   OH250540   4.051   4.830  13.031  0.1826 -0.1403 -0.3982
 8782TIP3    H150541   4.026   4.753  12.980  2.4550 -2.0761  1.2031
 8782TIP3    H250542   4.130   4.862  12.989  0.3064  0.1555  0.0505
 8783TIP3   OH250543   5.113   3.687  13.232 -0.5614  0.2880  0.1602
 8783TIP3    H150544   5.176   3.758  13.238 -1.6568  1.3316 -0.2565
 8783TIP3    H250545   5.029   3.728  13.252 -1.0781 -1.1304  1.0051
 8784TIP3   OH250546   6.759   4.418  12.155  0.1991 -1.1825 -0.4059
 8784TIP3    H150547   6.824   4.483  12.127  0.1587 -1.5945 -1.4702
 8784TIP3    H250548   6.695   4.416  12.084 -0.6601 -1.2310  0.3535
 8785TIP3   OH250549   7.211   2.417  11.794  0.2026  0.6389  0.2649
 8785TIP3    H150550   7.276   2.394  11.727  1.2965  0.2924  1.4109
 8785TIP3    H250551   7.144   2.349  11.787  0.4030  0.5022 -0.3534
 8786TIP3   OH250552   5.291   6.954  12.360 -0.2611 -0.0500  0.0909
 8786TIP3    H150553   5.338   6.927  12.439 -1.0975  1.4754  1.1349
 8786TIP3    H250554   5.211   6.996  12.391 -0.5562  0.7044 -1.5570
 8787TIP3   OH250555   5.481   1.104  12.481 -0.1813  0.1071 -0.6457
 8787TIP3    H150556   5.403   1.123  12.534 -0.0053  0.1938 -0.4157
 8787TIP3    H250557   5.490   1.180  12.424 -0.8998 -0.3925 -1.4423
 8788TIP3   OH250558   7.504   0.806  11.135  0.1275 -0.3405  0.1837
 8788TIP3    H150559   7.550   0.743  11.079  1.5893  0.5909  0.2829
 8788TIP3    H250560   7.423   0.825  11.089  0.6799 -0.6284 -0.9452
 8789TIP3   OH250561   5.882   5.705  13.034 -0.4737 -0.3611 -0.0540
 8789TIP3    H150562   5.924   5.736  13.114 -2.2990  0.2194  0.7250
 8789TIP3    H250563   5.819   5.639  13.064 -1.0036 -0.3182 -1.0420
 8790TIP3   OH250564   1.041   1.197  11.917 -0.2264  0.3404 -0.0162
 8790TIP3    H150565   1.004   1.273  11.873  1.6136  1.8083  0.8554
 8790TIP3    H250566   1.044   1.129  11.849 -0.9879  1.3356 -1.0781
 8791TIP3   OH250567   4.277   1.690  11.118 -0.1461 -0.0143 -0.3868
 8791TIP3    H150568   4.222   1.755  11.075 -1.5627  0.0455  1.3723
 8791TIP3    H250569   4.215   1.634  11.166  1.2165 -1.0353  0.2628
 8792TIP3   OH250570   6.627   2.725  10.585  0.3724  0.2058  0.0455
 8792TIP3    H150571   6.630   2.793  10.518 -0.9217  1.1818  0.9327
 8792TIP3    H250572   6.553   2.669  10.559  0.6671 -0.1489 -0.0278
 8793TIP3   OH250573   1.073   3.673  12.200 -0.1847 -0.4437 -0.0635
 8793TIP3    H150574   1.099   3.686  12.291 -2.9181 -1.7198  1.0261
 8793TIP3    H250575   1.066   3.761  12.164  2.3670  0.0511  0.4177
 8794TIP3   OH250576   2.278   2.523  12.153  0.4065  0.0099 -0.1651
 8794TIP3    H150577   2.341   2.494  12.218 -0.2709  2.3030  1.6591
 8794TIP3    H250578   2.280   2.619  12.159 -2.6511  0.1851 -0.5788
 8795TIP3   OH250579   3.720   4.279  10.999  0.3222  0.1771  0.0334
 8795TIP3    H150580   3.796   4.300  10.944  0.9939  2.1702  1.5568
 8795TIP3    H250581   3.684   4.365  11.022 -1.8034 -0.7099  0.1884
 8796TIP3   OH250582   6.756   7.638  11.707  0.0963 -0.2424 -0.6536
 8796TIP3    H150583   6.701   7.667  11.634  0.2991 -1.6829 -1.4112
 8796TIP3    H250584   6.761   7.543  11.697 -3.2648 -1.2119  3.5618
 8797TIP3   OH250585   0.749   1.800  12.875  0.2851 -0.2648  0.1200
 8797TIP3    H150586   0.844   1.801  12.867  0.3485 -0.2364  0.8237
 8797TIP3    H250587   0.732   1.777  12.967 -0.3712  0.6893  0.2601
 8798TIP3   OH250588   4.946   0.532  12.784 -0.7704  0.7557  0.6770
 8798TIP3    H150589   4.905   0.618  12.776 -0.8022  0.5937 -1.9296
 8798TIP3    H250590   5.039   0.549  12.772 -0.8271  0.4180 -0.3781
 8799TIP3   OH250591   5.155   2.542  11.113 -0.7346 -0.3981 -0.3916
 8799TIP3    H150592   5.147   2.448  11.095 -2.2066 -0.6127  1.1253
 8799TIP3    H250593   5.079   2.582  11.072 -1.0675 -0.1365  0.4506
 8800TIP3   OH250594   0.339   4.048  11.375  0.1727 -0.4460 -0.4112
 8800TIP3    H150595   0.290   3.972  11.407  0.1931 -0.3167 -0.0719
 8800TIP3    H250596   0.313   4.056  11.283  2.0615 -2.3806 -1.1933
 8801TIP3   OH250597   3.837   4.697  10.968  0.3329  0.4938 -0.4224
 8801TIP3    H150598   3.900   4.629  10.992 -0.3518 -0.3415 -0.9258
 8801TIP3    H250599   3.864   4.726  10.881  0.0236  0.1339 -0.6392
 8802TIP3   OH250600   2.902   0.030  12.505  0.0378  0.0204 -0.3382
 8802TIP3    H150601   2.968   0.007  12.439  0.9964 -1.6139  1.1422
 8802TIP3    H250602   2.952   0.047  12.584 -1.1759  1.1250  0.2287
 8803TIP3   OH250603   7.543   1.692  11.825  0.2486 -0.0064  0.2371
 8803TIP3    H150604   7.590   1.656  11.750  1.1601  0.5114  0.5484
 8803TIP3    H250605   7.502   1.772  11.791 -0.4909 -0.4924 -0.0509
 8804TIP3   OH250606   0.889   4.492  12.276 -0.3023 -0.7802 -0.0577
 8804TIP3    H150607   0.797   4.475  12.296 -0.0604 -0.2350  1.6643
 8804TIP3    H250608   0.896   4.588  12.278  0.1221 -0.7681 -1.1671
 8805TIP3   OH250609   3.190   5.882  12.529 -0.1094  0.5403  0.2510
 8805TIP3    H150610   3.223   5.795  12.507  1.1734  0.8818  0.6989
 8805TIP3    H250611   3.110   5.866  12.579 -0.6307 -0.3377 -0.8361
 8806TIP3   OH250612   7.019   1.571  12.075 -0.6717  0.2152  0.1366
 8806TIP3    H150613   6.951   1.621  12.030 -1.7782 -0.1062  1.3714
 8806TIP3    H250614   7.027   1.614  12.160  0.3820 -0.0186  0.1669
 8807TIP3   OH250615   6.952   4.069  13.141 -0.3382 -0.4015  0.0717
 8807TIP3    H150616   6.892   4.104  13.075 -0.0210 -0.9943 -0.5383
 8807TIP3    H250617   6.987   3.989  13.102  1.0290  0.0584  0.3366
 8808TIP3   OH250618   1.383   1.820  13.410 -0.2466 -0.3916 -0.5354
 8808TIP3    H150619   1.443   1.745  13.411 -0.1369 -0.3013  0.4192
 8808TIP3    H250620   1.439   1.896  13.423 -0.6581 -0.4045  1.7351
 8809TIP3   OH250621   0.347   0.053  12.736 -0.4615  0.8544 -0.2139
 8809TIP3    H150622   0.349   0.015  12.649  0.2296  0.1818  0.0861
 8809TIP3    H250623   0.363  -0.020  12.795 -2.4526  0.9978  0.5913
 8810TIP3   OH250624   7.039   2.249  10.824  0.5669  0.5351 -0.4179
 8810TIP3    H150625   7.065   2.224  10.912  0.1146  0.4956 -0.2942
 8810TIP3    H250626   6.947   2.223  10.817  0.9841 -0.8023 -1.3917
 8811TIP3   OH250627   5.735   3.744  13.407 -0.0378 -0.2369  0.7964
 8811TIP3    H150628   5.778   3.691  13.474  0.3175 -1.6884 -0.4995
 8811TIP3    H250629   5.754   3.698  13.325 -1.1798  0.9882 -0.2047
 8812TIP3   OH250630   4.986   3.193  11.625  0.3813  0.5812  0.2863
 8812TIP3    H150631   4.898   3.155  11.634  0.3010  0.5543 -0.5810
 8812TIP3    H250632   5.004   3.232  11.711  0.9240 -2.3636  1.6215
 8813TIP3   OH250633   6.860   1.933  11.380  0.6572  0.1206  0.1958
 8813TIP3    H150634   6.829   2.011  11.427 -1.0378 -0.3221 -0.0974
 8813TIP3    H250635   6.914   1.886  11.444 -0.4397  0.2485  1.2699
 8814TIP3   OH250636   4.871   1.445  11.309  0.6562  0.6445 -0.3411
 8814TIP3    H150637   4.844   1.532  11.281  3.5504  1.2729 -1.4964
 8814TIP3    H250638   4.824   1.386  11.251 -2.9978  1.1287  1.7929
 8815TIP3   OH250639   5.996   3.695  13.243  0.1853  0.2721  0.1135
 8815TIP3    H150640   6.091   3.681  13.248  0.2417  0.2941 -0.6707
 8815TIP3    H250641   5.978   3.765  13.306  0.1828 -1.9532  2.7214
 8816TIP3   OH250642   6.603   6.015  10.460  0.4177 -0.7310 -0.4998
 8816TIP3    H150643   6.675   6.076  10.478  0.5147 -0.8232 -0.5797
 8816TIP3    H250644   6.616   5.944  10.523 -1.9216  1.1604  2.3727
 8817TIP3   OH250645   6.862   5.149  12.824 -1.0199 -0.0761  0.0872
 8817TIP3    H150646   6.924   5.174  12.892 -1.4011  0.1436  0.3625
 8817TIP3    H250647   6.780   5.132  12.872 -1.0492 -0.8325 -0.2072
 8818TIP3   OH250648   5.068   3.548  11.214 -0.0211  0.1681 -0.3226
 8818TIP3    H150649   5.085   3.483  11.283 -0.0211 -1.4070 -1.7385
 8818TIP3    H250650   5.128   3.524  11.143  0.7208  2.3941 -0.5143
 8819TIP3   OH250651   2.248   2.780  10.705  0.6452 -0.8704 -0.6042
 8819TIP3    H150652   2.185   2.789  10.776 -0.2434 -1.6276 -1.2563
 8819TIP3    H250653   2.233   2.692  10.671  0.2618 -0.1513 -2.4280
 8820TIP3   OH250654   4.969   4.434  11.614  0.2276  0.4779 -0.4114
 8820TIP3    H150655   5.042   4.419  11.554  1.8717 -1.1527  1.7959
 8820TIP3    H250656   4.972   4.528  11.633 -0.2112  0.9851 -2.6230
 8821TIP3   OH250657   6.517   0.465  11.006 -0.0992  0.3902  0.0288
 8821TIP3    H150658   6.455   0.422  11.065 -0.1124  0.6823  0.2251
 8821TIP3    H250659   6.555   0.536  11.058  1.3493 -0.5654  0.3495
 8822TIP3   OH250660   3.665   2.351  10.669 -0.2442 -0.6241  0.1903
 8822TIP3    H150661   3.744   2.367  10.617 -0.9209 -0.1211 -0.7116
 8822TIP3    H250662   3.638   2.437  10.699  0.0577 -0.8979  1.2847
 8823TIP3   OH250663   1.303   3.775  12.853 -0.7026 -0.1548 -0.0568
 8823TIP3    H150664   1.307   3.704  12.917 -1.3935 -0.0790  0.0827
 8823TIP3    H250665   1.231   3.831  12.884 -0.2849  0.5097 -0.2590
 8824TIP3   OH250666   6.351   3.359  11.573  0.0214 -0.0654  0.2732
 8824TIP3    H150667   6.384   3.292  11.513  1.8619  1.3892 -0.4581
 8824TIP3    H250668   6.271   3.391  11.532 -0.2721 -1.0158  0.0641
 8825TIP3   OH250669   3.503   5.926  11.203  0.3436 -0.2123 -0.4900
 8825TIP3    H150670   3.566   5.856  11.218  0.6940  0.3653  0.8988
 8825TIP3    H250671   3.555   6.006  11.200 -0.2606  0.2353  0.3489
 8826TIP3   OH250672   2.599   6.602  12.282  0.7052 -0.0629  0.0370
 8826TIP3    H150673   2.688   6.635  12.294  1.3178 -1.3922 -0.6456
 8826TIP3    H250674   2.559   6.663  12.220  2.3415 -1.3821 -2.4939
 8827TIP3   OH250675   1.213   1.908  12.007  0.4350 -0.1013  0.5898
 8827TIP3    H150676   1.302   1.944  12.001  0.7120 -0.6834  1.0548
 8827TIP3    H250677   1.221   1.835  12.069 -0.4482  0.0681  0.9147
 8828TIP3   OH250678   4.697   6.414  11.828  0.3629  0.0602 -0.6764
 8828TIP3    H150679   4.778   6.448  11.866  0.4958 -1.8588  0.9301
 8828TIP3    H250680   4.725   6.357  11.757  0.4314 -0.4201 -0.2706
 8829TIP3   OH250681   6.034   6.272  12.035  0.4268  0.3232  0.0359
 8829TIP3    H150682   6.104   6.301  11.977 -0.8079 -0.0561 -1.7421
 8829TIP3    H250683   5.993   6.352  12.067 -0.9327  0.6604 -2.2944
 8830TIP3   OH250684   3.429   4.207  12.870  0.3793  0.1893  0.8357
 8830TIP3    H150685   3.350   4.183  12.919  1.2538 -2.0265  1.3002
 8830TIP3    H250686   3.449   4.296  12.898 -2.7474  1.4237 -0.4289
 8831TIP3   OH250687   4.588   2.066  10.990  0.5886  0.3680  0.2866
 8831TIP3    H150688   4.545   2.083  11.074  0.9239 -0.5530  0.6679
 8831TIP3    H250689   4.604   2.153  10.953  1.5435  0.8647  1.7551
 8832TIP3   OH250690   0.924   3.800  11.213 -0.2746 -0.8675  0.2318
 8832TIP3    H150691   0.899   3.708  11.213  0.1567 -1.0056  1.7032
 8832TIP3    H250692   0.863   3.842  11.273 -1.4798  0.1354 -1.6167
 8833TIP3   OH250693   7.326   4.059  12.812 -0.0909  0.3665 -0.4026
 8833TIP3    H150694   7.312   3.966  12.828  1.8527  0.1881  0.4505
 8833TIP3    H250695   7.254   4.084  12.753  0.2225 -2.0065 -1.9059
 8834TIP3   OH250696   2.137   5.489  11.327  0.2517 -0.5170  0.1262
 8834TIP3    H150697   2.227   5.455  11.320  0.1701 -0.6137 -0.4787
 8834TIP3    H250698   2.087   5.415  11.361  0.3492 -0.5490  0.2014
 8835TIP3   OH250699   2.299   2.917  13.342  0.0171 -0.0901 -0.1220
 8835TIP3    H150700   2.317   2.844  13.400 -0.8239  0.8827  1.4260
 8835TIP3    H250701   2.205   2.913  13.327  0.2270 -0.3733 -1.5376
 8836TIP3   OH250702   7.058   3.329  10.610  0.0442 -0.2372  0.1015
 8836TIP3    H150703   7.011   3.412  10.616  1.1767  0.3588  1.2878
 8836TIP3    H250704   6.996   3.264  10.644 -0.0935  0.4766  1.2884
 8837TIP3   OH250705   7.223   7.026  11.337 -0.2536  0.1765 -0.0457
 8837TIP3    H150706   7.197   7.075  11.259 -0.3662  1.4780  0.7782
 8837TIP3    H250707   7.245   7.093  11.401  1.9045 -0.8604  0.3880
 8838TIP3   OH250708   2.440   4.905  11.242 -0.3410 -0.4809 -0.5389
 8838TIP3    H150709   2.415   4.819  11.274  0.1835 -0.9178 -1.2761
 8838TIP3    H250710   2.384   4.966  11.290  0.9625 -1.0157  1.8046
 8839TIP3   OH250711   5.626   7.219  11.433 -0.0197  0.0558 -0.0454
 8839TIP3    H150712   5.559   7.230  11.365 -1.9387 -0.1880  1.7112
 8839TIP3    H250713   5.593   7.270  11.507  1.7808 -0.0536  0.8787
 8840TIP3   OH250714   1.199   3.888  11.232 -0.0181  0.3351  0.1417
 8840TIP3    H150715   1.118   3.851  11.267 -0.1559  1.9683  1.6792
 8840TIP3    H250716   1.201   3.859  11.140 -2.4541  0.4358 -0.0053
 8841TIP3   OH250717   3.726   2.695  12.556 -0.1465 -0.2286 -0.0788
 8841TIP3    H150718   3.786   2.719  12.485  0.4070  0.7806  0.7074
 8841TIP3    H250719   3.701   2.605  12.537  0.0883 -0.0146 -1.4910
 8842TIP3   OH250720   7.315   2.316  11.126  0.3161 -0.3133 -0.3368
 8842TIP3    H150721   7.256   2.243  11.147 -1.0476  0.3611 -1.6747
 8842TIP3    H250722   7.381   2.277  11.069  2.1979 -1.4318  2.3953
 8843TIP3   OH250723   5.218   3.153  11.469  0.1097 -0.3556  0.6874
 8843TIP3    H150724   5.132   3.135  11.508  1.7732 -1.1349  4.4693
 8843TIP3    H250725   5.228   3.248  11.474 -0.8302 -0.1435 -0.7166
 8844TIP3   OH250726   6.931   1.979  13.061 -0.6390  0.0810  1.0662
 8844TIP3    H150727   6.846   1.949  13.030 -1.1638  1.1517  1.4148
 8844TIP3    H250728   6.995   1.926  13.013 -1.4485  0.8597 -0.9513
 8845TIP3   OH250729   7.548   4.818  11.184 -0.5476  0.7868  0.1279
 8845TIP3    H150730   7.488   4.852  11.118 -0.3464 -0.2280 -0.6006
 8845TIP3    H250731   7.629   4.867  11.170  0.0363 -0.5500 -1.5318
 8846TIP3   OH250732   5.221   0.920  10.951  0.4918  0.5172 -0.6192
 8846TIP3    H150733   5.261   0.964  11.026  1.7945 -0.5367 -0.6461
 8846TIP3    H250734   5.213   0.829  10.979  0.2050  0.2821 -1.4485
 8847TIP3   OH250735   2.529   5.863  12.362 -0.4387  0.1786  0.5494
 8847TIP3    H150736   2.462   5.795  12.361 -0.5581  0.2237 -2.4908
 8847TIP3    H250737   2.608   5.819  12.394 -0.3885 -1.6037 -1.7669
 8848TIP3   OH250738   0.651   1.987  12.701 -0.4089 -0.2874  0.3493
 8848TIP3    H150739   0.585   1.941  12.648 -1.1837 -0.8998  1.7921
 8848TIP3    H250740   0.702   1.917  12.741  0.7166  0.1843 -0.2251
 8849TIP3   OH250741   1.127   1.713  11.587 -0.2749  0.2749  0.3449
 8849TIP3    H150742   1.220   1.723  11.605  0.1545 -0.8820 -1.0539
 8849TIP3    H250743   1.084   1.737  11.669  1.2527  0.5730  1.0938
 8850TIP3   OH250744   5.556   2.852  10.666  1.0531  0.0212  0.7470
 8850TIP3    H150745   5.530   2.761  10.654  0.7014  0.1047  0.8707
 8850TIP3    H250746   5.474   2.900  10.679  1.1835  0.4786 -0.0853
 8851TIP3   OH250747   2.163   4.535  11.245 -0.1957  0.0103  0.2209
 8851TIP3    H150748   2.087   4.479  11.228 -0.4505  0.1966  0.7281
 8851TIP3    H250749   2.126   4.623  11.257  0.3552  0.7056 -2.5488
 8852TIP3   OH250750   3.464   7.240  11.374  0.3797  0.2348  0.4448
 8852TIP3    H150751   3.555   7.215  11.360  0.1846  0.0378 -0.4923
 8852TIP3    H250752   3.432   7.177  11.439  0.8491  0.1913  0.6432
 8853TIP3   OH250753   2.159   4.539  10.954  0.4884  0.1178  0.3324
 8853TIP3    H150754   2.072   4.568  10.978  0.6118  0.9865 -0.2024
 8853TIP3    H250755   2.207   4.533  11.036  0.2701  0.8404  0.5192
 8854TIP3   OH250756   7.186   4.198  12.140 -0.6823  0.1423  0.0455
 8854TIP3    H150757   7.131   4.129  12.176 -1.0948 -0.3090 -1.3586
 8854TIP3    H250758   7.202   4.171  12.049  1.4030  0.5412  0.2314
 8855TIP3   OH250759   0.361   1.402  12.232 -0.1502  0.0231 -0.1351
 8855TIP3    H150760   0.332   1.334  12.292  1.3719  0.3424  1.0396
 8855TIP3    H250761   0.375   1.357  12.149  0.1154 -0.9484  0.4274
 8856TIP3   OH250762   7.270   2.683  11.407 -0.3100  0.4519 -0.3072
 8856TIP3    H150763   7.356   2.642  11.406 -0.3968  0.0754 -3.4937
 8856TIP3    H250764   7.287   2.774  11.381 -0.7915  0.6084 -0.0907
 8857TIP3   OH250765   4.227   3.728  10.656  0.1661 -0.1047 -0.4018
 8857TIP3    H150766   4.309   3.692  10.691  0.4344 -0.4794 -1.3799
 8857TIP3    H250767   4.166   3.654  10.659  0.0098  0.0324 -0.1589
 8858TIP3   OH250768   2.285   2.553  11.333  0.0232 -0.1523 -0.0786
 8858TIP3    H150769   2.330   2.596  11.405  0.2053 -1.7306  0.7968
 8858TIP3    H250770   2.327   2.467  11.326 -1.2951 -0.7803 -0.7677
 8859TIP3   OH250771   4.885   6.731  12.996 -0.5290 -0.6032 -0.2188
 8859TIP3    H150772   4.925   6.804  13.044 -1.0105  0.1287 -0.8888
 8859TIP3    H250773   4.959   6.677  12.968 -0.2594 -1.1847  1.5208
 8860TIP3   OH250774   0.725   2.049  12.226 -0.0492 -0.1582  0.1937
 8860TIP3    H150775   0.784   2.034  12.300  0.5233  1.3892  0.1031
 8860TIP3    H250776   0.638   2.032  12.261  0.1855  0.8083  1.3334
 8861TIP3   OH250777   0.001   3.831  11.907 -0.2196  0.0366  0.1346
 8861TIP3    H150778   0.064   3.903  11.916 -1.6692  1.5346 -1.0337
 8861TIP3    H250779   0.023   3.770  11.978  0.7334  1.8799  1.5021
 8862TIP3   OH250780   0.161   3.589  13.424  0.2181 -0.0096  0.3943
 8862TIP3    H150781   0.092   3.526  13.446 -0.9261  0.4717 -1.5441
 8862TIP3    H250782   0.155   3.598  13.328  0.4014  2.9384  0.5732
 8863TIP3   OH250783   4.664   5.183  10.529 -0.0596 -0.1140 -0.1731
 8863TIP3    H150784   4.578   5.198  10.569  0.1142  1.3385 -0.3037
 8863TIP3    H250785   4.654   5.215  10.440  0.3523 -0.8444 -0.4910
 8864TIP3   OH250786   1.653   4.142  12.265 -0.6751 -0.0310 -0.6111
 8864TIP3    H150787   1.674   4.129  12.357  0.0109 -0.5663 -0.8334
 8864TIP3    H250788   1.578   4.201  12.265 -1.1440 -0.6095  0.3118
 8865TIP3   OH250789   4.988   0.410  11.055  0.0102  0.2078  0.1887
 8865TIP3    H150790   5.045   0.397  11.130  2.4650  0.4758 -1.5069
 8865TIP3    H250791   4.985   0.324  11.012  0.2983  0.5293 -0.4861
 8866TIP3   OH250792   0.352   5.330  10.771  0.0306  0.1479 -0.7311
 8866TIP3    H150793   0.351   5.268  10.844  1.0923  0.8826 -0.0662
 8866TIP3    H250794   0.443   5.332  10.742  0.0908  1.6527 -0.5116
 8867TIP3   OH250795   6.499   3.635  12.385 -0.4323  0.0485  0.1203
 8867TIP3    H150796   6.549   3.554  12.381 -2.1511 -1.0190 -1.4592
 8867TIP3    H250797   6.543   3.688  12.452  0.9186 -2.0380  0.9665
 8868TIP3   OH250798   3.276   1.028  11.689  0.1244  0.4048 -0.0046
 8868TIP3    H150799   3.356   1.057  11.732  0.3087  0.2128 -0.2194
 8868TIP3    H250800   3.208   1.039  11.756  0.5388 -0.6632  0.6043
 8869TIP3   OH250801   2.857   3.683  11.350 -0.4887  0.1652 -0.1108
 8869TIP3    H150802   2.941   3.675  11.395  0.0924 -1.0066 -1.3517
 8869TIP3    H250803   2.794   3.699  11.420  0.9007  2.4256  0.7393
 8870TIP3   OH250804   1.160   5.404  11.815 -0.1172 -0.1684 -0.2006
 8870TIP3    H150805   1.096   5.427  11.883 -1.4686 -0.6522 -1.2631
 8870TIP3    H250806   1.182   5.488  11.774 -0.4895 -0.0581 -0.1789
 8871TIP3   OH250807   0.625   1.910  11.622  0.0004 -0.8266  0.0093
 8871TIP3    H150808   0.564   1.837  11.623  0.2620 -1.0357  1.1207
 8871TIP3    H250809   0.693   1.884  11.559 -0.1911 -1.3034 -0.0033
 8872TIP3   OH250810   5.015   5.502  10.850 -0.2573 -0.5522 -0.4049
 8872TIP3    H150811   4.972   5.585  10.827 -1.1205 -0.6250  0.8067
 8872TIP3    H250812   4.991   5.488  10.942  2.9153 -0.2625  0.5857
 8873TIP3   OH250813   6.001   4.138  13.104  0.2424  0.1838 -0.1414
 8873TIP3    H150814   6.035   4.140  13.194  2.8223  0.0884 -1.0225
 8873TIP3    H250815   5.955   4.221  13.095 -0.0446  0.2069  1.2520
 8874TIP3   OH250816   7.541   1.262  12.505 -0.0891 -0.5205  0.2421
 8874TIP3    H150817   7.451   1.239  12.481 -0.1038 -0.1540 -0.0722
 8874TIP3    H250818   7.585   1.273  12.421 -0.3099  1.4602  0.3444
 8875TIP3   OH250819   3.387   1.018  11.122  0.5846 -0.4097  0.4404
 8875TIP3    H150820   3.417   1.074  11.193 -0.3078  1.2713 -0.4503
 8875TIP3    H250821   3.466   1.000  11.070  0.5342  1.9942 -0.5641
 8876TIP3   OH250822   6.907   6.304  10.819  0.1970  0.8989 -0.1994
 8876TIP3    H150823   6.823   6.263  10.840  1.2894 -1.1392  0.4497
 8876TIP3    H250824   6.931   6.266  10.735  0.4541  1.5378 -0.4196
 8877TIP3   OH250825   3.330   3.151  12.902 -0.1409 -0.6206 -0.2206
 8877TIP3    H150826   3.376   3.233  12.882  0.5869 -0.8591  0.4228
 8877TIP3    H250827   3.383   3.083  12.861 -1.2312 -0.7068 -1.5208
 8878TIP3   OH250828   5.401   5.300  10.978  0.4328  0.2402  0.0259
 8878TIP3    H150829   5.440   5.387  10.980  1.9689 -0.3805 -1.0476
 8878TIP3    H250830   5.438   5.255  11.053  0.2939  0.2546  0.1026
 8879TIP3   OH250831   0.497   0.268  11.724 -0.2877 -0.4175  0.1810
 8879TIP3    H150832   0.407   0.262  11.754 -0.3625 -1.4287 -0.2098
 8879TIP3    H250833   0.503   0.205  11.653  0.8230 -0.6244  0.4362
 8880TIP3   OH250834   7.235   0.607  12.570  0.6452  0.7822 -0.3499
 8880TIP3    H150835   7.281   0.537  12.523  0.1147  0.1541  0.0367
 8880TIP3    H250836   7.273   0.605  12.658  0.1785  0.5237 -0.1443
 8881TIP3   OH250837   0.225   3.127  10.753  0.3394 -0.0908 -0.0717
 8881TIP3    H150838   0.134   3.111  10.732 -0.1080 -0.8657  2.2019
 8881TIP3    H250839   0.225   3.147  10.847  2.4620  0.1862 -0.0799
 8882TIP3   OH250840   2.689   7.113  11.437  0.3900  0.3269 -0.0297
 8882TIP3    H150841   2.669   7.052  11.509  0.4533 -1.5507 -1.5163
 8882TIP3    H250842   2.604   7.140  11.404  0.3552  1.4810  0.9203
 8883TIP3   OH250843   3.174   2.855  10.194  0.4737  0.2917 -0.2079
 8883TIP3    H150844   3.085   2.889  10.193 -0.0015 -0.7534  1.7778
 8883TIP3    H250845   3.164   2.760  10.202  1.6569  0.3421  3.5711
 8884TIP3   OH250846   2.905   6.260  10.794  0.3143 -0.0006 -0.6011
 8884TIP3    H150847   2.977   6.305  10.750  0.1951 -0.0946 -0.8931
 8884TIP3    H250848   2.939   6.239  10.881  0.5880  0.0855 -0.6886
 8885TIP3   OH250849   5.538   3.077  11.299 -0.3889 -0.2107 -0.2637
 8885TIP3    H150850   5.471   3.012  11.279  0.1660 -0.2868 -1.9902
 8885TIP3    H250851   5.509   3.117  11.381 -1.4070 -1.7297  0.1503
 8886TIP3   OH250852   2.437   4.776  10.784  0.2273  0.5903  0.9515
 8886TIP3    H150853   2.362   4.816  10.829 -0.7812  0.0608 -0.2149
 8886TIP3    H250854   2.405   4.691  10.755 -0.0703  1.8909 -3.0599
 8887TIP3   OH250855   0.950   4.227  11.569 -0.3013 -0.1935  0.8420
 8887TIP3    H150856   0.931   4.308  11.617 -0.3429 -0.2889  0.9877
 8887TIP3    H250857   0.995   4.256  11.490  1.1704 -0.1381  1.6690
 8888TIP3   OH250858   6.787   1.153  10.045 -0.1891  0.4639  0.3296
 8888TIP3    H150859   6.804   1.077   9.989  0.2147 -0.3424  1.5110
 8888TIP3    H250860   6.698   1.180  10.021 -0.5510 -0.7172  0.2607
 8889TIP3   OH250861   0.409   3.363  12.787  0.9572  0.0992 -0.3108
 8889TIP3    H150862   0.353   3.364  12.709  1.7477  1.5230 -0.9086
 8889TIP3    H250863   0.348   3.377  12.859  0.4880  1.7417 -0.9582
 8890TIP3   OH250864   0.312   0.562  12.537 -0.4406  0.6046 -0.3487
 8890TIP3    H150865   0.258   0.519  12.471  1.3232 -2.4560  0.0370
 8890TIP3    H250866   0.283   0.525  12.620  0.5402  0.8695  0.1224
 8891TIP3   OH250867   2.522   2.863  12.362  0.3689 -0.1221 -0.4814
 8891TIP3    H150868   2.610   2.892  12.388  0.3717  0.0627 -0.6950
 8891TIP3    H250869   2.483   2.831  12.443  1.2760 -1.9192 -0.6909
 8892TIP3   OH250870   0.136   1.178  11.485  0.0552  0.0465 -0.1795
 8892TIP3    H150871   0.045   1.186  11.514  0.9219  0.0084  2.8482
 8892TIP3    H250872   0.131   1.119  11.409 -2.5321  1.0557 -0.9126
 8893TIP3   OH250873   3.933   6.228  11.110 -0.1942 -0.3253  0.0528
 8893TIP3    H150874   3.918   6.322  11.101  1.5693  0.2797  2.3636
 8893TIP3    H250875   3.962   6.199  11.024  1.4521  1.7569 -0.1632
 8894TIP3   OH250876   7.352   0.007  11.921  0.2266 -0.6732  0.3955
 8894TIP3    H150877   7.418  -0.022  11.984  0.6687  0.7130  0.6065
 8894TIP3    H250878   7.269  -0.022  11.958  0.5244 -0.2976  1.3687
 8895TIP3   OH250879   0.538   6.789  11.182 -0.5381  0.0532  0.2389
 8895TIP3    H150880   0.504   6.705  11.210  1.7179 -0.3157  2.1834
 8895TIP3    H250881   0.531   6.846  11.258  0.7712  0.6845 -0.0711
 8896TIP3   OH250882   0.560   5.254  12.506 -0.2824 -0.3586  0.3167
 8896TIP3    H150883   0.565   5.346  12.529 -0.4836  0.6465 -3.1006
 8896TIP3    H250884   0.639   5.215  12.542  0.6155  1.5105  0.4701
 8897TIP3   OH250885   6.241   6.810  11.388  0.1941 -0.6913 -0.7154
 8897TIP3    H150886   6.203   6.850  11.466 -0.3352 -1.0604 -0.7786
 8897TIP3    H250887   6.278   6.884  11.339  0.9105 -0.5095  0.0792
 8898TIP3   OH250888   4.571   2.524  10.319 -0.6353 -0.1611  0.0899
 8898TIP3    H150889   4.546   2.606  10.275 -1.4804  1.4653  3.3362
 8898TIP3    H250890   4.665   2.532  10.333 -0.8536  0.7553  1.2075
 8899TIP3   OH250891   2.546   1.868  11.526  0.0068 -0.3024  0.4815
 8899TIP3    H150892   2.508   1.819  11.599  2.0902 -1.1058  1.1021
 8899TIP3    H250893   2.565   1.802  11.460  0.6459  0.0015  0.3512
 8900TIP3   OH250894   2.094   2.911  11.204  0.3135 -0.4077  0.0225
 8900TIP3    H150895   2.127   2.940  11.119  0.7715  0.8669  0.6051
 8900TIP3    H250896   2.000   2.927  11.201  0.1502 -1.3937 -0.6212
 8901TIP3   OH250897   6.865   1.116  11.911  0.0689 -0.4838 -0.2981
 8901TIP3    H150898   6.913   1.198  11.903  0.4442 -0.7574 -0.9451
 8901TIP3    H250899   6.913   1.054  11.855  0.0913 -1.2798  0.5677
 8902TIP3   OH250900   4.609   0.888  11.760  0.3380  0.0448 -0.3210
 8902TIP3    H150901   4.578   0.871  11.671 -0.3029  0.8987 -0.2745
 8902TIP3    H250902   4.678   0.953  11.749 -0.4986  0.9889 -0.1196
 8903TIP3   OH250903   1.093   4.345  11.361 -0.0249 -0.2500 -0.0663
 8903TIP3    H150904   1.114   4.267  11.310 -0.5973 -0.2709 -0.2774
 8903TIP3    H250905   1.113   4.418  11.302  0.5760 -0.2312  0.1552
 8904TIP3   OH250906   2.489   4.071  10.299  0.1021 -0.6430  0.0249
 8904TIP3    H150907   2.441   3.989  10.306 -0.7781 -0.1114  0.3037
 8904TIP3    H250908   2.426   4.139  10.324  1.1207  0.0283  0.8914
 8905TIP3   OH250909   7.010   0.776  12.475  0.1863 -0.3834 -0.1311
 8905TIP3    H150910   7.086   0.727  12.506 -0.1897  0.4803  2.4042
 8905TIP3    H250911   6.935   0.732  12.514 -0.7512 -1.3876 -2.8193
 8906TIP3   OH250912   7.100   4.629  11.052  0.2827  0.4165  0.4072
 8906TIP3    H150913   7.135   4.714  11.079  0.4356  0.7191 -0.7085
 8906TIP3    H250914   7.170   4.589  11.001 -0.7166  0.7577 -1.3051
 8907TIP3   OH250915   0.170   4.887  13.158 -0.1747  0.0465 -0.1797
 8907TIP3    H150916   0.184   4.847  13.072 -0.9030  1.7927 -1.1579
 8907TIP3    H250917   0.248   4.863  13.208  0.4137 -0.7617 -1.4150
 8908TIP3   OH250918   1.320   5.247  11.629  0.1912  0.2424 -0.5835
 8908TIP3    H150919   1.351   5.317  11.572  2.1631  0.6807  0.9009
 8908TIP3    H250920   1.261   5.290  11.691  2.6205  1.0644  1.3366
 8909TIP3   OH250921   3.678   5.627  11.103  0.1310  0.2681  0.6117
 8909TIP3    H150922   3.660   5.557  11.165 -0.8852 -0.2971 -0.2668
 8909TIP3    H250923   3.623   5.605  11.027  2.7509 -0.1634 -1.3000
 8910TIP3   OH250924   4.086   1.077  12.688  0.0557  0.0312  0.0583
 8910TIP3    H150925   4.103   1.010  12.621 -0.0510  1.2830 -1.2707
 8910TIP3    H250926   4.081   1.028  12.770  0.1288 -1.5681 -0.8490
 8911TIP3   OH250927   7.626   2.216  12.462 -1.0357 -0.5054 -0.4184
 8911TIP3    H150928   7.575   2.197  12.383 -3.1111  0.5878  0.5711
 8911TIP3    H250929   7.600   2.305  12.486  2.5357  0.7708 -0.6312
 8912TIP3   OH250930   1.073   4.657  10.480  0.4749 -0.2636 -0.2582
 8912TIP3    H150931   1.160   4.621  10.461  0.4559  1.0548 -3.4624
 8912TIP3    H250932   1.012   4.596  10.439 -0.0479 -0.2795  0.5114
 8913TIP3   OH250933   0.363   1.122  11.081  0.5584  0.4635  0.0571
 8913TIP3    H150934   0.409   1.089  11.004  0.3225  0.1918  0.0325
 8913TIP3    H250935   0.335   1.210  11.056 -2.2324 -0.7062 -1.3406
 8914TIP3   OH250936   2.158   5.733  11.877 -0.3037 -0.1199  0.4624
 8914TIP3    H150937   2.077   5.771  11.843 -0.9484 -0.9687  1.0172
 8914TIP3    H250938   2.158   5.643  11.845 -0.3986 -0.6137  1.7993
 8915TIP3   OH250939   2.445   0.278  10.733  0.0442 -0.6697 -0.2794
 8915TIP3    H150940   2.499   0.334  10.677 -0.2330  0.5319  0.5890
 8915TIP3    H250941   2.370   0.333  10.756 -1.1652 -2.0468 -0.8354
 8916TIP3   OH250942   6.589   7.358  12.590  0.7527 -0.4063 -0.1461
 8916TIP3    H150943   6.544   7.437  12.559  1.2194 -0.0255  0.1389
 8916TIP3    H250944   6.669   7.391  12.630  1.0010 -1.0386 -0.1247
 8917TIP3   OH250945   4.694   1.233  12.655 -0.0803  0.2843  0.3211
 8917TIP3    H150946   4.723   1.142  12.656 -2.2948 -0.5048 -0.1191
 8917TIP3    H250947   4.598   1.227  12.663 -0.2411  2.6053  0.8719
 8918TIP3   OH250948   2.005   6.223  11.966 -0.4554 -0.1039  0.2985
 8918TIP3    H150949   2.017   6.281  12.042  0.9172 -0.0520  0.0616
 8918TIP3    H250950   2.093   6.191  11.946 -0.8575 -0.4385 -1.0226
 8919TIP3   OH250951   2.414   5.803  12.653 -0.2208 -0.7183 -0.2115
 8919TIP3    H150952   2.415   5.854  12.733  0.9964 -0.1201 -0.5860
 8919TIP3    H250953   2.352   5.849  12.596  0.5571  0.1260 -0.3983
 8920TIP3   OH250954   5.543   0.932  11.751 -0.1257 -0.1315  0.3745
 8920TIP3    H150955   5.617   0.983  11.719  0.8177 -1.5921  0.0996
 8920TIP3    H250956   5.558   0.924  11.845 -2.5113  3.5383  1.2900
 8921TIP3   OH250957   1.316   5.133  11.020  0.6919  0.1690  0.7698
 8921TIP3    H150958   1.288   5.045  11.045  0.2167  0.1480  0.1823
 8921TIP3    H250959   1.387   5.119  10.958  0.4109  0.2003  0.4434
 8922TIP3   OH250960   5.473   7.611  10.730  0.1398  0.6514 -0.1147
 8922TIP3    H150961   5.445   7.661  10.653 -0.7393  0.2067 -0.0897
 8922TIP3    H250962   5.514   7.532  10.693  2.0399  1.6100 -0.1707
 8923TIP3   OH250963   0.940   2.853  10.809 -0.2139 -0.0061 -0.0693
 8923TIP3    H150964   1.014   2.804  10.844  0.5494 -0.3836 -2.0863
 8923TIP3    H250965   0.879   2.786  10.778 -0.2598  0.2939 -0.6495
 8924TIP3   OH250966   5.963   0.496  11.526  0.1120 -0.4857  0.3984
 8924TIP3    H150967   5.871   0.521  11.535  0.4443  1.5190 -1.0077
 8924TIP3    H250968   5.975   0.481  11.432  1.6826  1.6422  0.1588
 8925TIP3   OH250969   6.863   5.001  10.631 -0.1212 -0.0640  0.0236
 8925TIP3    H150970   6.789   4.941  10.642 -2.1079  2.1144 -0.6247
 8925TIP3    H250971   6.825   5.078  10.590  2.1449  2.0139  1.5863
 8926TIP3   OH250972   6.039   5.378  12.156  0.0767 -0.1135  0.0567
 8926TIP3    H150973   6.043   5.426  12.073 -1.7698  0.7276  0.4046
 8926TIP3    H250974   6.057   5.287  12.132  2.9301  0.5523 -0.7189
 8927TIP3   OH250975   4.329   2.789  10.509  0.0960  0.4297  0.4724
 8927TIP3    H150976   4.323   2.827  10.597  0.2518 -0.6098  0.9435
 8927TIP3    H250977   4.390   2.847  10.462  1.5612 -0.0921  1.6560
 8928TIP3   OH250978   4.599   5.729  10.880 -0.6864  0.4778  0.0272
 8928TIP3    H150979   4.583   5.642  10.919 -0.6708  0.8118  0.7997
 8928TIP3    H250980   4.562   5.790  10.943 -0.0153  1.0750 -0.1452
 8929TIP3   OH250981   5.098   1.427  10.676 -0.2344  0.8891  0.2777
 8929TIP3    H150982   5.165   1.431  10.744 -0.5295  1.5764  0.5339
 8929TIP3    H250983   5.017   1.447  10.722 -0.6836 -0.3587  0.0493
 8930TIP3   OH250984   1.177   3.149  11.833 -0.1026  0.4150  0.3878
 8930TIP3    H150985   1.199   3.215  11.899  4.1911  0.1646 -0.4940
 8930TIP3    H250986   1.164   3.199  11.752 -4.0558  0.5928  0.9079
 8931TIP3   OH250987   5.976   5.223  10.974 -0.0715  0.4053 -0.1332
 8931TIP3    H150988   6.052   5.223  11.032 -0.0584 -0.5829 -0.1355
 8931TIP3    H250989   5.953   5.130  10.964 -2.3482  0.7185  1.2950
 8932TIP3   OH250990   1.540   2.372  12.510 -0.1755 -0.4670 -0.5366
 8932TIP3    H150991   1.490   2.452  12.521 -0.4131 -0.2682 -2.5600
 8932TIP3    H250992   1.610   2.377  12.575  1.0630  2.4298 -1.9011
 8933TIP3   OH250993   5.676   4.097  13.240  0.4173 -0.1378 -1.0045
 8933TIP3    H150994   5.589   4.120  13.207 -0.5595 -0.4230  1.1494
 8933TIP3    H250995   5.721   4.059  13.165 -2.5271 -3.1449 -1.4991
 8934TIP3   OH250996   5.007   5.001  12.416  0.0843 -0.0147  0.1447
 8934TIP3    H150997   5.094   5.014  12.454 -0.3018  0.0439  1.0420
 8934TIP3    H250998   5.022   4.941  12.342  0.6619 -1.4125  1.3337
 8935TIP3   OH250999   0.374   1.914  11.455 -0.2899  0.6334  0.2773
 8935TIP3    H151000   0.390   1.893  11.547 -0.3958  0.3309  0.2268
 8935TIP3    H251001   0.284   1.886  11.439  0.8572 -2.9039 -0.9138
 8936TIP3   OH251002   6.918   0.801  11.520 -0.3522  0.2362  0.7112
 8936TIP3    H151003   6.833   0.829  11.486 -0.3704 -0.7839 -0.1270
 8936TIP3    H251004   6.969   0.779  11.441  1.2040  2.1682  1.0865
 8937TIP3   OH251005   6.730   5.929  12.870 -0.2320  0.6137  0.4453
 8937TIP3    H151006   6.817   5.958  12.898 -0.3134  1.0917  0.2205
 8937TIP3    H251007   6.676   5.934  12.949  0.0291 -0.0390  0.6711
 8938TIP3   OH251008   4.377   7.270  10.916 -0.1104  0.1336 -0.7263
 8938TIP3    H151009   4.362   7.200  10.979  1.3470 -0.6162 -1.1673
 8938TIP3    H251010   4.290   7.293  10.884 -0.7311 -0.5438  0.4035
 8939TIP3   OH251011   7.556   6.979  11.475 -0.5423 -0.3451  0.2883
 8939TIP3    H151012   7.533   6.958  11.384  2.0488 -2.3715 -0.0438
 8939TIP3    H251013   7.523   7.067  11.489 -1.4229 -0.1476 -2.4817
 8940TIP3   OH251014   2.042   1.764  10.462 -0.0054  0.2034 -0.2162
 8940TIP3    H151015   1.951   1.778  10.438 -0.1461 -1.6583 -0.9635
 8940TIP3    H251016   2.049   1.669  10.472  1.4291  0.4494  1.6093
 8941TIP3   OH251017   1.050   7.291  11.414  0.1494  0.0975  0.2784
 8941TIP3    H151018   0.968   7.298  11.365 -0.1343  1.0053  0.8579
 8941TIP3    H251019   1.118   7.301  11.348 -0.2231  1.8510  0.0892
 8942TIP3   OH251020   1.877   4.688  11.074 -0.2031  0.4153 -0.5164
 8942TIP3    H151021   1.878   4.724  11.162  0.1421  1.1578 -0.8219
 8942TIP3    H251022   1.846   4.598  11.086 -2.7360  1.2756  0.0527
 8943TIP3   OH251023   6.928   1.836  10.370 -0.1644 -0.2353  0.1793
 8943TIP3    H151024   6.838   1.843  10.400 -0.9391 -0.8335 -1.8463
 8943TIP3    H251025   6.958   1.751  10.402 -1.5719 -1.6803 -2.0765
 8944TIP3   OH251026   0.863   3.443  12.516  0.0819 -0.3340  0.3701
 8944TIP3    H151027   0.915   3.425  12.594 -1.3273 -2.1361  0.9712
 8944TIP3    H251028   0.834   3.356  12.487 -0.8733  0.4537 -1.1451
 8945TIP3   OH251029   3.607   6.869  10.430 -0.4220  0.3405  0.2556
 8945TIP3    H151030   3.553   6.873  10.508 -1.4221  1.1220 -0.4533
 8945TIP3    H251031   3.595   6.954  10.388  2.0032  0.8719  0.4753
 8946TIP3   OH251032   7.148   2.674  12.415  0.7022  0.2630  0.0987
 8946TIP3    H151033   7.099   2.754  12.395  2.5585  1.2854 -0.6028
 8946TIP3    H251034   7.087   2.603  12.396 -1.4366  1.4854  1.9422
 8947TIP3   OH251035   5.547   4.508  12.408 -0.3972  0.1761  0.3856
 8947TIP3    H151036   5.506   4.424  12.426 -0.9523  0.4420  0.3684
 8947TIP3    H251037   5.615   4.516  12.475 -0.8253  0.0471  0.8352
 8948TIP3   OH251038   0.494   3.152  11.839  0.2147  0.2287 -0.0533
 8948TIP3    H151039   0.482   3.247  11.851 -0.4587 -0.1088  2.5023
 8948TIP3    H251040   0.414   3.124  11.795  0.1437  0.7544 -0.2757
 8949TIP3   OH251041   2.385   0.981  10.970  0.4801 -0.0829  0.4535
 8949TIP3    H151042   2.392   0.914  10.902  0.7589 -0.4938  0.8782
 8949TIP3    H251043   2.299   1.020  10.956  0.4992 -0.2214 -0.0815
 8950TIP3   OH251044   6.769   5.277  11.215 -0.0186 -0.2664 -0.5837
 8950TIP3    H151045   6.737   5.283  11.305  1.4772 -0.7344  0.0148
 8950TIP3    H251046   6.798   5.366  11.194  0.8193 -0.4194 -0.1186
 8951TIP3   OH251047   4.625   7.420  11.263  0.0860 -0.6614 -0.3590
 8951TIP3    H151048   4.541   7.439  11.222 -0.0096 -1.8387 -0.7319
 8951TIP3    H251049   4.620   7.462  11.349 -1.3915 -1.7806  0.1467
 8952TIP3   OH251050   3.164   5.936  10.706 -0.1544  0.0262  0.1341
 8952TIP3    H151051   3.161   6.029  10.684  0.1806  0.5408  2.1006
 8952TIP3    H251052   3.119   5.929  10.790  2.5319 -1.0603  1.6103
 8953TIP3   OH251053   4.065   3.961  10.758  0.1076 -0.1036 -0.2699
 8953TIP3    H151054   4.118   3.892  10.717 -1.0818 -0.1661 -1.7443
 8953TIP3    H251055   4.114   4.041  10.742  0.1272 -0.2540 -0.9939
 8954TIP3   OH251056   5.785   0.553  12.654  0.0829  0.4278  0.1627
 8954TIP3    H151057   5.875   0.569  12.625  1.4443  0.1915  3.7319
 8954TIP3    H251058   5.789   0.469  12.700 -1.9578  0.4642  0.5048
 8955TIP3   OH251059   4.115   4.550  12.486 -0.1185 -0.0047  0.2629
 8955TIP3    H151060   4.112   4.486  12.556  0.7903 -0.2173  0.1296
 8955TIP3    H251061   4.195   4.528  12.437 -0.9684 -0.1520 -1.1085
 8956TIP3   OH251062   7.456   3.846  12.399  0.3869 -0.4472 -0.2878
 8956TIP3    H151063   7.505   3.921  12.365 -0.8674 -0.3543 -1.9888
 8956TIP3    H251064   7.523   3.791  12.441  1.5199  0.9602 -0.1760
 8957TIP3   OH251065   5.932   2.708  11.885 -1.0563  0.3252  0.0370
 8957TIP3    H151066   6.002   2.774  11.883 -0.2376 -0.5288 -2.0524
 8957TIP3    H251067   5.971   2.630  11.844 -2.9946 -0.4144 -0.5127
 8958TIP3   OH251068   0.420   0.224  11.462  0.3960  0.2197 -0.6014
 8958TIP3    H151069   0.379   0.306  11.433 -1.8068 -0.0311  1.4852
 8958TIP3    H251070   0.501   0.219  11.412 -0.3485  2.6684 -2.2476
 8959TIP3   OH251071   3.787   2.195  10.159 -0.6408  0.4968  0.0493
 8959TIP3    H151072   3.873   2.236  10.146 -0.3018  0.0720  0.8605
 8959TIP3    H251073   3.781   2.130  10.089 -0.0015  0.0741  0.3694
 8960TIP3   OH251074   5.428   0.301  11.073  0.4666 -0.0722 -0.0911
 8960TIP3    H151075   5.439   0.385  11.027 -1.8871  1.7887  2.4160
 8960TIP3    H251076   5.440   0.235  11.005  2.4036  2.2271 -2.2121
 8961TIP3   OH251077   5.819   6.684  11.708 -0.0386  0.3956 -0.0445
 8961TIP3    H151078   5.882   6.632  11.759  0.3758  1.0286  0.0913
 8961TIP3    H251079   5.785   6.622  11.643  2.4624  0.5848 -1.6740
 8962TIP3   OH251080   6.236   6.730  10.833 -0.8622  0.5020  0.4050
 8962TIP3    H151081   6.282   6.767  10.757 -0.7646 -1.4419 -0.5483
 8962TIP3    H251082   6.156   6.783  10.840 -0.5420  1.1653 -0.6092
 8963TIP3   OH251083   0.606   4.259  11.214 -0.0135 -0.2534 -0.4721
 8963TIP3    H151084   0.627   4.222  11.300 -2.4384 -0.4023  0.1422
 8963TIP3    H251085   0.556   4.190  11.170  1.0633 -0.1135 -1.9811
 8964TIP3   OH251086   2.284   2.678  11.093 -0.4860 -0.1722 -0.4080
 8964TIP3    H151087   2.208   2.736  11.101  0.7406  1.5928 -1.0819
 8964TIP3    H251088   2.278   2.620  11.169 -0.4804  2.4111  1.7051
 8965TIP3   OH251089   4.676   4.251  13.073 -0.8804 -0.7417  0.0655
 8965TIP3    H151090   4.665   4.161  13.103 -0.4688 -0.4526  1.1477
 8965TIP3    H251091   4.729   4.293  13.142 -0.4576  0.1366 -0.7656
 8966TIP3   OH251092   2.136   7.501  11.440 -0.0508 -0.8225 -0.2610
 8966TIP3    H151093   2.149   7.409  11.463 -0.4644 -0.8663 -0.1900
 8966TIP3    H251094   2.056   7.526  11.486 -0.6251 -0.7775 -1.2722
 8967TIP3   OH251095   2.271   3.789  12.375 -0.0712  0.5167  0.0500
 8967TIP3    H151096   2.236   3.763  12.290  0.5797  1.2066 -0.4342
 8967TIP3    H251097   2.302   3.707  12.414 -1.3312  0.0332  0.0895
 8968TIP3   OH251098   6.609   2.751  12.247 -0.1811 -0.1840  0.2003
 8968TIP3    H151099   6.617   2.744  12.152 -0.5344  0.7342  0.0945
 8968TIP3    H251100   6.530   2.701  12.268 -0.5081  0.2074 -0.0779
 8969TIP3   OH251101   0.438   5.774  12.184 -0.1842 -0.2713 -0.0049
 8969TIP3    H151102   0.488   5.855  12.174  2.1035 -1.6413 -0.3454
 8969TIP3    H251103   0.409   5.776  12.276 -0.3009  0.9811 -0.0424
 8970TIP3   OH251104   6.487   2.334  12.262 -0.4390 -1.1159 -0.3375
 8970TIP3    H151105   6.483   2.247  12.302  0.1813 -0.0190  2.3409
 8970TIP3    H251106   6.437   2.390  12.321  0.2286  0.6047 -1.3245
 8971TIP3   OH251107   1.611   0.395  10.778 -0.5530  0.1221  0.2244
 8971TIP3    H151108   1.610   0.300  10.792 -1.0907  0.1952  0.7089
 8971TIP3    H251109   1.550   0.409  10.706 -2.1242  0.2910  1.5259
 8972TIP3   OH251110   6.436   2.560  11.130  0.2389 -0.1743  0.7558
 8972TIP3    H151111   6.469   2.471  11.142  0.5680 -0.4291 -1.6424
 8972TIP3    H251112   6.447   2.578  11.037 -2.5419  1.2923  0.6045
 8973TIP3   OH251113   6.744   6.072  10.802 -0.0611  0.1582  0.3703
 8973TIP3    H151114   6.784   5.988  10.780  0.7412  0.6137  0.0234
 8973TIP3    H251115   6.652   6.052  10.815 -0.5678 -0.3007 -2.8807
 8974TIP3   OH251116   0.398   1.285  11.408  0.5560  0.4380 -0.5643
 8974TIP3    H151117   0.419   1.368  11.365 -1.2189  1.4249  0.3431
 8974TIP3    H251118   0.305   1.292  11.430  0.6887 -1.2216  0.7901
 8975TIP3   OH251119   5.156   3.947  12.404  0.0434  0.0106  0.4835
 8975TIP3    H151120   5.120   4.015  12.461  0.5168  1.1194 -0.4962
 8975TIP3    H251121   5.250   3.962  12.405  0.1199 -0.3962 -0.0357
 8976TIP3   OH251122   1.423   0.982  11.830 -0.0119 -0.0383 -0.2390
 8976TIP3    H151123   1.372   0.951  11.905  0.7100 -1.1100 -0.1589
 8976TIP3    H251124   1.363   1.039  11.782 -0.2379  1.3431  1.5633
 8977TIP3   OH251125   7.184   4.607  11.423 -0.4026  0.1541  0.3038
 8977TIP3    H151126   7.163   4.528  11.472  0.3264 -0.7716 -0.8100
 8977TIP3    H251127   7.214   4.575  11.338  0.0364  1.6291 -0.1304
 8978TIP3   OH251128   1.484   5.288  12.454 -0.6336  0.7488  0.0553
 8978TIP3    H151129   1.512   5.374  12.421 -0.8426  0.7144 -0.2130
 8978TIP3    H251130   1.445   5.307  12.539 -3.1960  1.3049 -1.1594
 8979TIP3   OH251131   5.816   3.992  12.006  0.3419  0.2951 -0.0023
 8979TIP3    H151132   5.799   4.034  12.090  1.0479 -0.2257  0.4097
 8979TIP3    H251133   5.778   3.904  12.015  1.2124 -0.0779  0.1047
 8980TIP3   OH251134   3.144   3.343  10.866 -0.0359 -0.3877  1.0039
 8980TIP3    H151135   3.077   3.282  10.894 -0.3600 -1.5747 -1.9948
 8980TIP3    H251136   3.102   3.429  10.870 -0.7895 -0.7773  1.7600
 8981TIP3   OH251137   4.991   1.301  12.132 -0.3464 -0.1490 -0.2123
 8981TIP3    H151138   4.898   1.291  12.110 -0.0325  1.1895 -2.5859
 8981TIP3    H251139   5.036   1.243  12.070  0.4378 -0.6118  0.7692
 8982TIP3   OH251140   3.311   1.838  12.587 -0.1485  0.1598  0.6873
 8982TIP3    H151141   3.405   1.825  12.603 -0.1267  0.8647  1.1293
 8982TIP3    H251142   3.270   1.757  12.619  0.5243 -1.3407 -1.9072
 8983TIP3   OH251143   6.735   3.155  12.578 -0.0503  0.0925 -0.3643
 8983TIP3    H151144   6.681   3.115  12.646 -0.2845 -0.5918 -0.9425
 8983TIP3    H251145   6.699   3.122  12.495 -0.2411  1.4884 -0.8692
 8984TIP3   OH251146   7.592   5.445  10.664  0.5879 -0.3990  0.0883
 8984TIP3    H151147   7.622   5.366  10.619  1.6345  0.4526 -0.7577
 8984TIP3    H251148   7.496   5.440  10.660  0.5806  0.1481 -3.2281
 8985TIP3   OH251149   7.285   1.459  12.102  0.3075 -0.1220  0.3809
 8985TIP3    H151150   7.354   1.491  12.160 -0.5509  0.0166  1.3312
 8985TIP3    H251151   7.213   1.521  12.112 -0.0361 -0.3595 -0.4791
 8986TIP3   OH251152   6.788   3.409  12.166  0.4501  0.0115  0.1919
 8986TIP3    H151153   6.811   3.371  12.251  0.1047 -1.9428 -0.5392
 8986TIP3    H251154   6.693   3.420  12.170  0.2642 -1.2930 -0.3882
 8987TIP3   OH251155   4.686   0.900  11.302 -0.1196  0.2182  0.0503
 8987TIP3    H151156   4.719   0.984  11.333  0.5506  0.0209 -0.1109
 8987TIP3    H251157   4.683   0.909  11.207  3.8766 -1.2485 -0.3966
 8988TIP3   OH251158   2.267   4.879  11.972  0.1456  0.2218 -0.1164
 8988TIP3    H151159   2.354   4.855  12.002 -0.0148  2.2346  2.3099
 8988TIP3    H251160   2.224   4.915  12.050 -2.8723 -0.6987 -1.2201
 8989TIP3   OH251161   4.085   0.666  11.630  0.2733 -0.2520  0.3495
 8989TIP3    H151162   4.061   0.665  11.723 -0.3527  0.3902  0.2007
 8989TIP3    H251163   4.037   0.740  11.594  0.1098 -0.8098 -0.5937
 8990TIP3   OH251164   2.159   2.332  11.047  0.1075  0.3037 -0.0623
 8990TIP3    H151165   2.233   2.273  11.065  0.3719  0.5296 -0.3971
 8990TIP3    H251166   2.198   2.404  10.997 -0.3074  0.5134 -0.0831
 8991TIP3   OH251167   6.777   3.071  11.933 -0.3625  0.1389  0.0777
 8991TIP3    H151168   6.740   3.117  11.859 -0.5596 -0.9513 -0.5255
 8991TIP3    H251169   6.702   3.031  11.977 -0.0396 -1.2468 -0.5721
 8992TIP3   OH251170   0.441   1.759  12.057 -0.2635  0.2488 -0.1137
 8992TIP3    H151171   0.479   1.820  12.120  1.5642 -1.2879  0.3816
 8992TIP3    H251172   0.415   1.814  11.983  0.0645  1.7665  0.8497
 8993TIP3   OH251173   4.511   0.131  11.681  0.4336  0.4844  0.4456
 8993TIP3    H151174   4.538   0.043  11.709 -1.5628 -0.0380  0.8690
 8993TIP3    H251175   4.568   0.151  11.607  2.9314  0.0959  2.1279
 8994TIP3   OH251176   4.174   2.056  10.461  0.4035 -0.1422 -0.3265
 8994TIP3    H151177   4.166   2.055  10.556  0.9269 -1.4396 -0.2740
 8994TIP3    H251178   4.167   2.148  10.437 -2.5905  0.0075  0.6882
 8995TIP3   OH251179   6.544   6.407  12.427 -1.0500  0.2506 -0.3339
 8995TIP3    H151180   6.616   6.345  12.433 -1.6173 -0.4581 -0.6341
 8995TIP3    H251181   6.580   6.489  12.459  0.2975  0.2785 -1.8494
 8996TIP3   OH251182   5.776   5.447  11.993 -0.1499  0.2286 -0.3657
 8996TIP3    H151183   5.776   5.386  12.066  0.9176 -0.0705 -0.5965
 8996TIP3    H251184   5.823   5.401  11.923  0.4430  1.1999 -0.6260
 8997TIP3   OH251185   6.888   5.505  12.669 -0.2731  0.0865 -0.3384
 8997TIP3    H151186   6.822   5.538  12.730 -0.1882  0.6859 -0.5747
 8997TIP3    H251187   6.838   5.476  12.593 -0.4022 -0.8687  0.0846
 8998TIP3   OH251188   1.096   3.932  12.115 -0.7377 -0.2392 -0.2629
 8998TIP3    H151189   1.137   3.967  12.036  0.9674 -0.0044  0.6768
 8998TIP3    H251190   1.083   4.008  12.172 -0.3316 -0.6300  0.3655
 8999TIP3   OH251191   4.918   1.964  11.197 -0.1593 -0.3808  0.0292
 8999TIP3    H151192   4.964   2.031  11.247 -0.5270  0.3104 -0.5480
 8999TIP3    H251193   4.842   1.942  11.250  0.5043 -1.1183  0.7169
 9000TIP3   OH251194   4.260   0.472  11.849 -0.1613 -0.2147 -0.5921
 9000TIP3    H151195   4.249   0.540  11.782 -0.1845  1.6860  1.2307
 9000TIP3    H251196   4.345   0.491  11.888 -1.0328  0.0818  1.2942
 9001TIP3   OH251197   0.345   0.044  10.991 -0.0783  0.0983 -0.1438
 9001TIP3    H151198   0.367   0.028  10.899  0.1243 -0.4407 -0.0030
 9001TIP3    H251199   0.284  -0.026  11.014  1.3028 -0.9059  0.6549
 9002TIP3   OH251200   0.073   0.815  11.426 -0.0872  0.4948  0.0670
 9002TIP3    H151201  -0.004   0.817  11.369  0.1462 -0.1569 -0.2894
 9002TIP3    H251202   0.147   0.801  11.366  0.2720  0.7863  0.4334
 9003TIP3   OH251203   6.345   5.817  12.775  0.5664 -0.2425  0.2923
 9003TIP3    H151204   6.337   5.744  12.837 -0.0504 -0.3285  0.1255
 9003TIP3    H251205   6.384   5.777  12.697  0.1904 -0.4097  0.1852
 9004TIP3   OH251206   5.938   3.311  10.825 -0.0003 -0.1102  0.7149
 9004TIP3    H151207   5.929   3.216  10.817 -0.8912 -0.0594  0.9918
 9004TIP3    H251208   5.858   3.346  10.785 -0.2038  0.4722  1.5987
 9005TIP3   OH251209   3.580   0.792  10.781 -0.4328 -0.1752  0.1622
 9005TIP3    H151210   3.505   0.848  10.759  0.4186  0.5550 -1.0165
 9005TIP3    H251211   3.566   0.712  10.730  0.5191  0.7292 -1.6349
 9006TIP3   OH251212   1.589   5.942  10.661  0.0387  0.2546 -0.3410
 9006TIP3    H151213   1.661   6.000  10.685  0.1369 -0.6216  1.7116
 9006TIP3    H251214   1.630   5.860  10.635 -0.1765 -0.1310  0.4918
 9007TIP3   OH251215   0.991   1.043  13.205  0.4387 -0.0046 -0.4685
 9007TIP3    H151216   1.075   1.026  13.163  1.2084  3.0185 -0.3849
 9007TIP3    H251217   0.953   1.115  13.156 -1.4494 -0.3184  0.4197
 9008TIP3   OH251218   2.034   5.620  10.812 -0.3753  0.0092 -0.0499
 9008TIP3    H151219   2.032   5.714  10.832 -1.2383 -0.2070  0.9580
 9008TIP3    H251220   2.061   5.616  10.720 -1.7940  1.3291 -0.5716
 9009TIP3   OH251221   1.035   4.783  11.723  0.4642  0.4547 -0.0377
 9009TIP3    H151222   1.101   4.849  11.699 -0.6183  1.8152  0.6053
 9009TIP3    H251223   0.953   4.817  11.688  0.0484 -1.1946 -0.7782
 9010TIP3   OH251224   0.097   1.400  13.076 -0.1935  0.4723 -0.4660
 9010TIP3    H151225   0.010   1.377  13.109 -0.3756  0.2406 -1.0993
 9010TIP3    H251226   0.093   1.494  13.062  0.7697  1.1173  2.7879
 9011TIP3   OH251227   6.968   1.048  12.558 -0.6722 -0.5207 -0.4105
 9011TIP3    H151228   7.056   1.013  12.545  0.3450  1.2263  1.1935
 9011TIP3    H251229   6.927   0.990  12.622  1.0642  1.0888  2.3775
 9012TIP3   OH251230   3.995   2.757  13.509 -0.5409  0.0482 -0.5615
 9012TIP3    H151231   3.900   2.758  13.495 -0.5334  2.3238 -0.8380
 9012TIP3    H251232   4.025   2.678  13.464 -2.0547  0.4713 -2.4700
 9013TIP3   OH251233   0.140   5.491  11.174  0.2203  0.2927  0.5558
 9013TIP3    H151234   0.220   5.509  11.125  1.2706 -1.4239  1.5366
 9013TIP3    H251235   0.101   5.577  11.189  1.3512  1.0787 -0.7955
 9014TIP3   OH251236   2.090   2.366  12.637  0.0245  0.2640 -0.1422
 9014TIP3    H151237   2.174   2.323  12.654  0.0583  0.4987  0.2877
 9014TIP3    H251238   2.112   2.435  12.574  0.2536  0.6803  0.3892
 9015TIP3   OH251239   7.355   5.592  12.593  0.2986 -0.7737  0.1127
 9015TIP3    H151240   7.265   5.623  12.603  0.3417 -0.2104 -1.1074
 9015TIP3    H251241   7.391   5.597  12.682 -1.1189 -1.8594  0.7933
 9016TIP3   OH251242   1.138   5.208  10.439  0.3568  0.2968 -0.7087
 9016TIP3    H151243   1.225   5.213  10.480 -0.7301 -0.4189  1.8758
 9016TIP3    H251244   1.136   5.122  10.398  1.1995  0.7054 -1.6302
 9017TIP3   OH251245   4.006   2.210  10.043 -0.6332 -0.5997  0.4300
 9017TIP3    H151246   4.022   2.124  10.081 -0.7499 -0.4139  0.8971
 9017TIP3    H251247   4.049   2.206   9.957 -2.8314 -2.0463 -0.7065
 9018TIP3   OH251248   0.568   5.799  12.578 -0.1244  0.3981  1.3437
 9018TIP3    H151249   0.556   5.874  12.636  1.6033  0.8415  1.1820
 9018TIP3    H251250   0.662   5.800  12.557 -0.6534  0.2063 -1.3874
 9019TIP3   OH251251   2.590   3.233  12.504  0.7869  0.0687 -0.9497
 9019TIP3    H151252   2.546   3.167  12.451 -0.6162 -1.1976  1.5905
 9019TIP3    H251253   2.653   3.274  12.445  0.1152 -1.9806 -3.2367
 9020TIP3   OH251254   6.543   1.806  12.645  0.1132 -0.0817 -0.4057
 9020TIP3    H151255   6.537   1.734  12.583 -3.4668 -1.7890  1.5653
 9020TIP3    H251256   6.482   1.872  12.611  1.5948  1.0313 -0.9801
 9021TIP3   OH251257   2.350   3.762  11.235  0.1471 -0.4581 -0.2522
 9021TIP3    H151258   2.278   3.825  11.246  0.8266  0.4317 -0.6979
 9021TIP3    H251259   2.327   3.714  11.155 -0.8114 -1.4062  0.5679
 9022TIP3   OH251260   4.418   4.013  10.692  0.4816  0.5802  0.4428
 9022TIP3    H151261   4.393   3.923  10.714  0.1619  0.9388  1.5929
 9022TIP3    H251262   4.500   4.028  10.739  1.4080  0.3754 -1.0310
 9023TIP3   OH251263   1.522   0.026  11.500  0.1070  0.1876 -0.1583
 9023TIP3    H151264   1.460   0.055  11.568  0.5674 -0.1023  0.3959
 9023TIP3    H251265   1.480  -0.050  11.460  0.3758 -0.4023  0.6521
 9024TIP3   OH251266   1.285   4.629  10.742  0.7172  0.8454 -0.2081
 9024TIP3    H151267   1.357   4.680  10.779  0.3699  0.6432  0.7652
 9024TIP3    H251268   1.206   4.671  10.775  0.4236 -0.4017  0.7536
 9025TIP3   OH251269   2.375   1.888  10.167 -0.6548 -0.1893  0.4154
 9025TIP3    H151270   2.339   1.834  10.237 -0.7020  1.0744  1.4061
 9025TIP3    H251271   2.344   1.847  10.087  0.1480 -2.2023  1.0709
 9026TIP3   OH251272   5.837   5.778  10.433  0.0619 -0.7871  0.5814
 9026TIP3    H151273   5.872   5.688  10.427 -0.1314 -0.7793 -1.0279
 9026TIP3    H251274   5.915   5.833  10.429  0.0567 -0.8397 -0.6652
 9027TIP3   OH251275   6.010   6.268  10.914 -0.8515  0.1233  0.0988
 9027TIP3    H151276   6.089   6.317  10.937 -1.6770  1.9973 -0.8245
 9027TIP3    H251277   6.041   6.198  10.857  0.2926 -0.0758  0.9157
 9028TIP3   OH251278   2.979   3.740  11.827 -0.4142  0.3927 -0.3266
 9028TIP3    H151279   3.024   3.812  11.871  1.1788 -1.4086  1.1224
 9028TIP3    H251280   2.887   3.751  11.853 -0.1102  1.5298  0.3643
 9029TIP3   OH251281   1.612   3.937  10.239 -0.3677  0.4632 -0.3641
 9029TIP3    H151282   1.611   3.975  10.151 -1.4831 -3.3293 -2.2152
 9029TIP3    H251283   1.528   3.964  10.277 -0.0175  1.8740 -0.5327
 9030TIP3   OH251284   0.867   1.569  11.449  0.2117  0.3382  0.2290
 9030TIP3    H151285   0.946   1.521  11.473 -0.1635 -1.2842 -1.5876
 9030TIP3    H251286   0.890   1.661  11.464  2.5711 -0.0503 -0.5536
 9031TIP3   OH251287   4.473   0.972  10.645  0.3798 -0.1358 -0.3795
 9031TIP3    H151288   4.392   0.946  10.601  1.0960 -3.3080 -0.0567
 9031TIP3    H251289   4.530   1.003  10.574 -0.2790 -0.1240 -0.9186
 9032TIP3   OH251290   6.643   0.228  11.334  0.0777 -0.2334 -0.9779
 9032TIP3    H151291   6.624   0.263  11.421  0.3583  1.4738 -1.5675
 9032TIP3    H251292   6.721   0.275  11.306  0.5480 -1.4487 -1.7858
 9033TIP3   OH251293   6.240   1.889  11.965  0.1971  0.0489  0.1986
 9033TIP3    H151294   6.307   1.921  11.905  0.2994 -0.5470 -0.0113
 9033TIP3    H251295   6.170   1.954  11.960  0.5118  0.3729 -0.0178
 9034TIP3   OH251296   4.467   0.756  12.414  0.1517 -0.0816  0.2455
 9034TIP3    H151297   4.440   0.846  12.429  1.3306  0.3669 -0.2475
 9034TIP3    H251298   4.386   0.705  12.422 -0.6611  1.0985 -0.2043
 9035TIP3   OH251299   5.000   1.954  12.925 -0.0427 -0.0623 -0.0701
 9035TIP3    H151300   4.981   1.868  12.888  0.5679  0.7741 -2.4832
 9035TIP3    H251301   5.000   1.940  13.020  0.6755 -2.8402 -0.4169
 9036TIP3   OH251302   3.964   3.998  11.025  0.2623 -0.3371 -0.1740
 9036TIP3    H151303   3.872   3.995  10.998  0.2953 -0.8543 -0.2550
 9036TIP3    H251304   4.013   4.008  10.944  0.2285  1.2731 -0.0186
 9037TIP3   OH251305   0.612   6.645  12.531 -0.2632 -0.2278  0.1117
 9037TIP3    H151306   0.652   6.732  12.543 -1.5649  0.5650 -0.9776
 9037TIP3    H251307   0.664   6.587  12.587  0.4723  1.3019  1.1037
 9038TIP3   OH251308   1.792   4.629  11.763 -0.2638  0.1752 -0.2278
 9038TIP3    H151309   1.768   4.679  11.685 -0.0283  0.8997  0.1524
 9038TIP3    H251310   1.793   4.694  11.833 -2.1277 -0.7260  0.7200
 9039TIP3   OH251311   3.969   4.545  12.065  0.6501 -0.0135 -0.0625
 9039TIP3    H151312   3.971   4.503  12.151 -3.2908 -0.7250 -0.1197
 9039TIP3    H251313   4.002   4.633  12.081  2.7793 -0.9951  1.4825
 9040TIP3   OH251314   3.259   0.893  12.621  0.2779 -0.4630  0.1792
 9040TIP3    H151315   3.353   0.883  12.606  0.4209  0.9019 -0.0133
 9040TIP3    H251316   3.245   0.988  12.621 -1.4861 -0.6375 -2.2066
 9041TIP3   OH251317   4.322   5.031  10.339  0.3170  0.6882 -0.4106
 9041TIP3    H151318   4.316   5.113  10.389  1.8556 -0.7681  2.4380
 9041TIP3    H251319   4.274   4.968  10.392  2.4672 -1.0699 -0.4139
 9042TIP3   OH251320   1.492   5.055  10.468 -0.3229  0.9171  0.0599
 9042TIP3    H151321   1.436   4.989  10.427 -1.7192  1.0632  1.6156
 9042TIP3    H251322   1.564   5.006  10.506 -1.5257  0.1779  1.5047
 9043TIP3   OH251323   5.343   2.323  13.167  0.6286  0.0674  0.4935
 9043TIP3    H151324   5.433   2.330  13.198  0.5400  0.7932  0.6133
 9043TIP3    H251325   5.315   2.414  13.155  0.2260 -0.1797 -0.4594
 9044TIP3   OH251326   1.323   5.732  11.980 -0.4864  0.0049 -0.2782
 9044TIP3    H151327   1.240   5.740  12.028 -1.0491  0.5278 -1.3164
 9044TIP3    H251328   1.390   5.749  12.046 -1.2484  0.7394  0.3257
 9045TIP3   OH251329   3.755   7.161  11.328  0.2351 -0.0527 -0.3994
 9045TIP3    H151330   3.751   7.100  11.402  2.2636 -0.1602 -0.3103
 9045TIP3    H251331   3.772   7.106  11.252  0.3475  0.2475 -0.5932
 9046TIP3   OH251332   5.366   2.526  12.919 -0.1651  0.2259 -0.0924
 9046TIP3    H151333   5.438   2.465  12.936  0.2583  1.0980  1.3349
 9046TIP3    H251334   5.299   2.472  12.875  0.9803 -0.7910 -0.6460
 9047TIP3   OH251335   0.130   0.781  11.861 -0.0226  0.0712  0.6567
 9047TIP3    H151336   0.161   0.785  11.951  0.9931 -0.7650  0.3660
 9047TIP3    H251337   0.169   0.701  11.825  0.3165  0.8520 -0.7959
 9048TIP3   OH251338   4.238   5.562  11.454  0.1450  0.3872 -0.4201
 9048TIP3    H151339   4.159   5.510  11.440  0.6709 -0.4000 -0.5080
 9048TIP3    H251340   4.311   5.502  11.435  0.7816  0.8575  0.4582
 9049TIP3   OH251341   0.585   2.087  11.823  0.4590 -0.2952  0.1314
 9049TIP3    H151342   0.615   2.035  11.748 -0.0765 -0.2714 -0.1096
 9049TIP3    H251343   0.492   2.102  11.805  0.5122  0.3891  0.4066
 9050TIP3   OH251344   2.618   5.339  11.923 -0.2171  0.6458  0.0544
 9050TIP3    H151345   2.559   5.269  11.898 -0.9052  0.9769  0.7186
 9050TIP3    H251346   2.660   5.365  11.841 -1.2574  0.6515 -0.4958
 9051TIP3   OH251347   7.051   3.931  12.178  0.1614 -0.2844  0.4511
 9051TIP3    H151348   7.002   3.932  12.095 -0.1120  2.5185  0.5454
 9051TIP3    H251349   7.138   3.899  12.154  1.2855  3.7201 -1.8488
 9052TIP3   OH251350   4.855   3.559  12.407 -0.6711 -0.1338 -0.1816
 9052TIP3    H151351   4.775   3.563  12.355 -0.1292 -0.5793 -1.0711
 9052TIP3    H251352   4.904   3.637  12.382  0.6227 -1.4648 -2.1202
 9053TIP3   OH251353   2.846   4.257  12.425  0.4397  0.1444  0.6810
 9053TIP3    H151354   2.752   4.271  12.429  0.0846 -0.2607 -3.1451
 9053TIP3    H251355   2.857   4.162  12.435  0.3260  0.0640  0.0648
 9054TIP3   OH251356   5.960   3.849  10.600  0.0790 -0.3474 -0.1906
 9054TIP3    H151357   5.906   3.771  10.588  0.0539 -0.6251  1.4163
 9054TIP3    H251358   5.899   3.922  10.590 -0.5215 -0.6415  1.0936
 9055TIP3   OH251359   1.410   6.156  11.313 -0.2252  0.1739  0.0587
 9055TIP3    H151360   1.375   6.229  11.365  1.7820  0.9945  0.3595
 9055TIP3    H251361   1.466   6.108  11.374  0.4765 -0.1270 -0.8054
 9056TIP3   OH251362   1.656   1.174  11.015 -0.1740 -0.0242  0.9577
 9056TIP3    H151363   1.656   1.270  11.013  0.9087  0.0054 -1.1301
 9056TIP3    H251364   1.749   1.151  11.010 -0.4836 -1.0988 -1.7443
 9057TIP3   OH251365   6.094   5.513  11.732  0.0940  0.1744  0.6154
 9057TIP3    H151366   6.103   5.568  11.655 -0.3626 -1.9604 -1.0503
 9057TIP3    H251367   6.171   5.533  11.785  1.4014  0.3620 -1.2784
 9058TIP3   OH251368   0.868   7.245  10.953 -0.4301 -0.3296 -0.0979
 9058TIP3    H151369   0.824   7.186  11.014 -1.2098 -0.3531 -0.6678
 9058TIP3    H251370   0.937   7.192  10.913 -0.7437 -0.6805 -0.1719
 9059TIP3   OH251371   5.029   5.145  11.378 -0.5814 -0.0872  0.3501
 9059TIP3    H151372   5.109   5.151  11.430 -0.8332  1.9217  0.6052
 9059TIP3    H251373   4.962   5.115  11.439 -0.9375  2.5046  1.3664
 9060TIP3   OH251374   1.568   4.982  12.190 -0.2134  0.1068 -0.2213
 9060TIP3    H151375   1.511   4.942  12.124  0.5023 -0.1573 -0.6878
 9060TIP3    H251376   1.579   5.072  12.160 -0.5081  0.2044 -0.0445
 9061TIP3   OH251377   7.533   4.448  12.035  0.5053  0.5586 -0.0442
 9061TIP3    H151378   7.595   4.512  12.071  1.5137 -0.7116  0.5509
 9061TIP3    H251379   7.453   4.498  12.019  1.3704  2.0363  0.0922
 9062TIP3   OH251380   1.939   5.007  12.124 -0.2290  0.0851  0.0272
 9062TIP3    H151381   1.929   5.056  12.206 -3.6382  0.0449 -0.2249
 9062TIP3    H251382   1.969   4.920  12.152  2.6828  1.1843  0.7458
 9063TIP3   OH251383   0.370   6.588  10.506 -0.4702  0.1975  0.0755
 9063TIP3    H151384   0.300   6.559  10.449 -0.9044  1.4032 -0.0382
 9063TIP3    H251385   0.360   6.684  10.511  1.0346  0.3835  0.2142
 9064TIP3   OH251386   6.900   7.411  12.449 -0.6796  0.0377 -0.1644
 9064TIP3    H151387   6.844   7.337  12.426 -0.0612 -0.3095 -0.5803
 9064TIP3    H251388   6.859   7.449  12.526 -0.3217 -1.4744  0.8044
 9065TIP3   OH251389   6.569   4.798  11.422 -0.3791 -0.0953  0.3454
 9065TIP3    H151390   6.628   4.737  11.377  1.2596 -1.2613  3.7790
 9065TIP3    H251391   6.559   4.871  11.360  3.4318 -0.5368 -1.0623
 9066TIP3   OH251392   4.431   6.817  11.131  0.4576 -0.2352  0.2179
 9066TIP3    H151393   4.377   6.775  11.198 -1.0643  0.3018 -0.6245
 9066TIP3    H251394   4.431   6.756  11.058 -0.7912  0.6614 -0.5699
 9067TIP3   OH251395   0.982   0.492  10.494 -0.3638 -0.3363  0.1674
 9067TIP3    H151396   0.890   0.519  10.488 -0.1287  0.1526 -1.8427
 9067TIP3    H251397   1.031   0.574  10.490  0.2187 -0.7319 -1.1773
 9068TIP3   OH251398   2.060   6.377  12.180  0.4779 -0.0787 -0.2840
 9068TIP3    H151399   1.997   6.371  12.252  0.7783 -0.1479 -0.0211
 9068TIP3    H251400   2.111   6.455  12.199  0.2806  0.1414 -0.6541
 9069TIP3   OH251401   0.129   1.791  11.486  0.1547  0.5211  0.9126
 9069TIP3    H151402   0.075   1.798  11.407 -0.7649  0.3422  1.5165
 9069TIP3    H251403   0.073   1.823  11.556  0.6481 -0.1783  1.6363
 9070TIP3   OH251404   2.967   7.546  11.221  0.4668 -0.3657 -0.2791
 9070TIP3    H151405   3.013   7.553  11.137  2.1190 -0.6391  0.5541
 9070TIP3    H251406   2.982   7.455  11.248  1.3728  0.1466  1.0531
 9071TIP3   OH251407   0.725   6.843  13.235  0.4326  0.4074  0.3436
 9071TIP3    H151408   0.715   6.748  13.244  0.2070  0.4921  0.9987
 9071TIP3    H251409   0.648   6.879  13.278  0.6748  0.8978  0.3658
 9072TIP3   OH251410   0.222   1.687  12.513  0.2901 -0.6570  0.5024
 9072TIP3    H151411   0.244   1.620  12.577  0.7933 -1.7650 -0.7877
 9072TIP3    H251412   0.191   1.638  12.437  0.2110  0.5956 -0.2949
 9073TIP3   OH251413   1.961   0.979  11.574 -0.0184 -0.0153 -0.8060
 9073TIP3    H151414   1.869   1.001  11.589 -0.3335 -2.0710  0.6510
 9073TIP3    H251415   2.003   0.988  11.660  0.7758 -0.6657 -1.1053
 9074TIP3   OH251416   0.057   6.199  13.124 -0.0267 -0.4283  0.2562
 9074TIP3    H151417  -0.024   6.153  13.101 -0.7287  0.6048  0.5869
 9074TIP3    H251418   0.027   6.282  13.161  1.1760 -0.4649  1.3450
 9075TIP3   OH251419   1.168   4.515  11.559  0.1205  0.5321 -0.0454
 9075TIP3    H151420   1.127   4.452  11.499 -0.5375  2.0385 -1.2462
 9075TIP3    H251421   1.151   4.480  11.646  0.5655 -1.4125 -0.6782
 9076TIP3   OH251422   1.231   2.784  11.865 -0.4777  0.2380  0.1686
 9076TIP3    H151423   1.184   2.818  11.942  0.9519 -0.7600  1.5615
 9076TIP3    H251424   1.271   2.861  11.825 -1.9826  0.8910 -0.1177
 9077TIP3   OH251425   0.594   5.309  10.667 -0.0616  0.6136  0.3548
 9077TIP3    H151426   0.673   5.302  10.614 -1.9942  0.9061 -2.8006
 9077TIP3    H251427   0.545   5.229  10.648 -0.6744  0.5326  2.0878
 9078TIP3   OH251428   0.578   0.669  12.507  0.7439  0.1617 -0.0204
 9078TIP3    H151429   0.486   0.643  12.509  0.3425  1.3584 -1.4162
 9078TIP3    H251430   0.608   0.656  12.597 -0.9630  0.3798  0.6160
 9079TIP3   OH251431   4.487   2.346  10.081 -0.0647  0.3226 -0.7188
 9079TIP3    H151432   4.505   2.257  10.110  1.0723 -0.2047 -2.8303
 9079TIP3    H251433   4.535   2.402  10.142  2.2634 -0.7218 -1.4907
 9080TIP3   OH251434   1.031   1.986  12.645 -0.2892  0.7391  1.0622
 9080TIP3    H151435   0.971   1.921  12.608  1.6840 -0.3339 -0.4863
 9080TIP3    H251436   1.041   2.051  12.576  2.0920 -0.3714  0.2395
 9081TIP3   OH251437   5.350   6.659  12.393 -0.3432  0.4385 -0.2464
 9081TIP3    H151438   5.429   6.689  12.347 -0.4287  2.5043  0.8555
 9081TIP3    H251439   5.383   6.614  12.470 -0.2392  0.2057 -0.4246
 9082TIP3   OH251440   4.705   6.027  11.841 -0.3985 -0.3073  0.9141
 9082TIP3    H151441   4.638   6.005  11.776  0.4332  0.9354 -0.4297
 9082TIP3    H251442   4.656   6.047  11.920 -1.6321  0.5554 -0.0287
 9083TIP3   OH251443   2.849   4.899  11.986 -0.4469  0.4656 -0.6641
 9083TIP3    H151444   2.847   4.815  11.940 -0.2177 -0.3188  0.7078
 9083TIP3    H251445   2.760   4.933  11.980 -0.8762 -0.5205 -0.1106
 9084TIP3   OH251446   6.716   4.527  11.657 -0.1366  0.3716 -0.3633
 9084TIP3    H151447   6.656   4.463  11.620 -0.0947 -0.3062  0.7035
 9084TIP3    H251448   6.664   4.574  11.723  0.2496  0.3634 -0.0439
 9085TIP3   OH251449   1.770   3.629  11.802 -0.1551  0.1477  0.3438
 9085TIP3    H151450   1.780   3.536  11.781  1.1020  0.1671  0.7323
 9085TIP3    H251451   1.772   3.673  11.717 -1.1060 -0.2003  0.1362
 9086TIP3   OH251452   1.092   5.695  12.758 -0.5292 -0.5673 -0.6715
 9086TIP3    H151453   1.164   5.753  12.735 -0.5691 -1.1558 -2.5364
 9086TIP3    H251454   1.094   5.689  12.853  1.4132  0.0114 -0.6381
 9087TIP3   OH251455   7.387   4.589  11.778 -0.4533 -0.1483  0.1929
 9087TIP3    H151456   7.438   4.514  11.747 -0.5225 -0.2239  0.2627
 9087TIP3    H251457   7.415   4.601  11.869 -1.3628 -0.8743  0.5807
 9088TIP3   OH251458   2.696   7.433  10.550  0.0878 -0.0667  0.5519
 9088TIP3    H151459   2.658   7.411  10.465 -0.0561  0.2972  0.5196
 9088TIP3    H251460   2.769   7.372  10.560  1.8941  1.6789 -1.0945
 9089TIP3   OH251461   6.619   2.129  12.697  0.5641 -0.5046  0.1659
 9089TIP3    H151462   6.529   2.112  12.670  0.3671 -0.1241  0.5806
 9089TIP3    H251463   6.613   2.198  12.763  1.0753 -1.0884  0.8562
 9090TIP3   OH251464   5.122   4.430  11.388 -0.4499 -0.0565 -0.0554
 9090TIP3    H151465   5.162   4.514  11.365  0.4702 -0.4669 -0.0102
 9090TIP3    H251466   5.056   4.415  11.320 -1.1651  1.0551  0.3663
 9091TIP3   OH251467   4.731   2.064  12.056  0.0023 -0.3586  0.4349
 9091TIP3    H151468   4.718   2.158  12.070  1.5720 -0.1357  0.6492
 9091TIP3    H251469   4.736   2.027  12.144  0.7438 -0.4160  0.3743
 9092TIP3   OH251470   3.863   0.931  10.735  0.4724  0.1679 -0.6347
 9092TIP3    H151471   3.818   0.855  10.773  1.5690  0.0493  0.4787
 9092TIP3    H251472   3.842   0.927  10.642 -1.6270 -0.0092 -0.2060
 9093TIP3   OH251473   7.311   5.313  10.873  0.0388 -0.3619 -0.4312
 9093TIP3    H151474   7.265   5.266  10.942 -0.7540  0.5351 -0.3248
 9093TIP3    H251475   7.248   5.316  10.801 -0.1174  0.9293 -0.2624
 9094TIP3   OH251476   1.247   6.230  10.861  0.1948 -0.4803 -0.2983
 9094TIP3    H151477   1.168   6.268  10.899  0.9125  1.6515 -0.8251
 9094TIP3    H251478   1.290   6.186  10.935 -0.6304 -0.1869  0.3652
 9095TIP3   OH251479   2.294   1.423  12.004 -0.2024 -0.5606 -0.7114
 9095TIP3    H151480   2.226   1.385  11.948 -2.8703  2.0574  0.5066
 9095TIP3    H251481   2.248   1.450  12.084  2.4324  0.6277  0.5334
 9096TIP3   OH251482   6.389   4.766  13.917  0.5374 -0.5709 -0.4675
 9096TIP3    H151483   6.410   4.703  13.986 -0.0759 -0.5181 -0.2307
 9096TIP3    H251484   6.474   4.803  13.893  0.7645 -0.5877  0.2613
 9097TIP3   OH251485   3.065   3.732  11.508 -0.3124  0.2982 -0.0989
 9097TIP3    H151486   3.047   3.799  11.573 -0.9938 -0.1172  0.1501
 9097TIP3    H251487   3.112   3.778  11.438  1.1611  0.5948  1.0276
 9098TIP3   OH251488   6.400   0.090  11.991 -0.4984  0.6688  0.2728
 9098TIP3    H151489   6.402   0.139  11.909 -0.7951 -0.8290 -0.6737
 9098TIP3    H251490   6.450   0.144  12.052  0.2704  1.5322 -1.0600
 9099TIP3   OH251491   1.861   6.688  12.391  0.4157  0.0384 -0.4176
 9099TIP3    H151492   1.901   6.693  12.305  2.9121  0.4112  0.6799
 9099TIP3    H251493   1.877   6.598  12.420 -1.8418 -0.6025 -0.9005
 9100TIP3   OH251494   3.782   3.952  11.889 -0.4311  0.2317  0.0453
 9100TIP3    H151495   3.800   4.005  11.811 -0.0727  0.6713  0.4177
 9100TIP3    H251496   3.864   3.905  11.905 -0.7513 -0.4569 -0.2891
 9101TIP3   OH251497   6.729   3.411  10.919  0.0454 -0.1683 -0.3496
 9101TIP3    H151498   6.634   3.417  10.906  0.2607  0.2096 -1.9950
 9101TIP3    H251499   6.746   3.465  10.996 -1.2065 -1.3069  0.7850
 9102TIP3   OH251500   2.216   4.476  10.681 -0.0835  0.0016  0.3452
 9102TIP3    H151501   2.293   4.442  10.726 -1.0733  0.1527  2.2536
 9102TIP3    H251502   2.169   4.526  10.748 -0.6124  1.9745 -1.3758
 9103TIP3   OH251503   6.355   7.213  12.020 -0.0370  0.1313  0.1918
 9103TIP3    H151504   6.435   7.254  11.987  0.6992 -2.4103 -1.5354
 9103TIP3    H251505   6.331   7.265  12.096  1.8152  2.5077 -0.7200
 9104TIP3   OH251506   0.766   2.731  12.080  0.1588  0.1241 -0.0475
 9104TIP3    H151507   0.746   2.782  12.001 -0.8436  0.0554  0.1425
 9104TIP3    H251508   0.723   2.647  12.065  0.9326 -0.2974  0.0825
 9105TIP3   OH251509   0.841   6.943  12.352 -0.1521 -0.0548  0.5818
 9105TIP3    H151510   0.819   6.928  12.444 -0.8929  1.2972  0.6522
 9105TIP3    H251511   0.759   6.926  12.305  0.7507 -2.8957 -0.1285
 9106TIP3   OH251512   4.232   3.017  12.899  0.1854  0.4002  0.1055
 9106TIP3    H151513   4.159   3.027  12.961 -0.4404  2.0544 -0.8459
 9106TIP3    H251514   4.195   3.041  12.814  1.6928  0.7215 -0.4922
 9107TIP3   OH251515   7.434   3.981  12.002 -0.5574 -0.9148  0.0583
 9107TIP3    H151516   7.497   4.047  11.974 -0.1512 -0.8296  1.1110
 9107TIP3    H251517   7.349   4.018  11.981 -0.3858  0.4417  1.5838
 9108TIP3   OH251518   5.143   1.322  12.522  0.4328 -0.3226 -0.3338
 9108TIP3    H151519   5.098   1.288  12.600  0.2612  0.1996 -0.2058
 9108TIP3    H251520   5.235   1.298  12.536  0.3856 -0.3372 -0.0303
 9109TIP3   OH251521   5.596   5.215  11.901  0.2221 -0.0606 -0.4129
 9109TIP3    H151522   5.617   5.141  11.844 -0.7590  0.3793 -1.3878
 9109TIP3    H251523   5.634   5.192  11.986 -0.7258 -2.0202 -0.4785
 9110TIP3   OH251524   3.279   4.385  10.506 -0.1298 -0.4719 -0.4261
 9110TIP3    H151525   3.258   4.331  10.430  0.3319  2.8307 -3.1260
 9110TIP3    H251526   3.207   4.447  10.513  1.5307  1.5912 -0.5422
 9111TIP3   OH251527   1.916   6.697  12.121  0.0120 -0.5760 -0.1532
 9111TIP3    H151528   1.897   6.784  12.086 -1.6810 -0.3651  1.1706
 9111TIP3    H251529   2.008   6.683  12.101  0.0172  1.0225 -1.4379
 9112TIP3   OH251530   2.938   1.647  12.121 -0.4024 -0.1858  0.0215
 9112TIP3    H151531   2.973   1.682  12.203 -1.5721 -0.9509  0.8875
 9112TIP3    H251532   2.889   1.569  12.148 -3.4086  1.2242 -0.9563
 9113TIP3   OH251533   6.993   3.082  12.947  0.2529 -0.1564  0.6053
 9113TIP3    H151534   7.051   3.105  13.019  2.3696 -0.8117 -0.8116
 9113TIP3    H251535   7.049   3.081  12.870 -1.6043 -1.0487 -0.8154
 9114TIP3   OH251536   0.843   7.125  11.297  0.5216  0.1539 -0.0763
 9114TIP3    H151537   0.760   7.168  11.274  1.0366  1.0188 -0.3622
 9114TIP3    H251538   0.881   7.101  11.213  0.3085 -0.7690  0.0754
 9115TIP3   OH251539   4.954   1.141  10.703  0.4169  0.0887  0.8433
 9115TIP3    H151540   4.864   1.148  10.671  0.3238  0.2778  1.1471
 9115TIP3    H251541   5.007   1.185  10.636  0.4090 -0.9230  0.1341
 9116TIP3   OH251542   3.270   6.141  12.466  0.2066  0.2387 -0.3798
 9116TIP3    H151543   3.254   6.050  12.489  0.3210  0.4791  0.7353
 9116TIP3    H251544   3.328   6.173  12.535 -0.0937  1.2436 -0.5696
 9117TIP3   OH251545   3.395   3.475  10.898 -0.1190  0.2185 -0.2422
 9117TIP3    H151546   3.317   3.421  10.887 -0.1571 -0.2905  2.0178
 9117TIP3    H251547   3.361   3.563  10.909 -0.2764  0.2129 -0.6597
 9118TIP3   OH251548   6.970   1.603  11.053 -0.1510 -0.5721  0.2565
 9118TIP3    H151549   6.890   1.561  11.020  0.5400 -0.7643 -1.2657
 9118TIP3    H251550   6.957   1.696  11.037  0.0540 -0.6352 -0.3023
 9119TIP3   OH251551   4.267   7.057  12.254  0.3545 -0.2481 -0.5317
 9119TIP3    H151552   4.334   7.005  12.208 -0.3911 -1.5427 -0.2155
 9119TIP3    H251553   4.186   7.008  12.239 -0.2486  0.4451  0.4237
 9120TIP3   OH251554   3.483   7.163  11.717  0.1994 -0.0015  0.3306
 9120TIP3    H151555   3.447   7.077  11.739  1.3099 -0.5932 -0.0893
 9120TIP3    H251556   3.414   7.225  11.741  0.0044 -0.8776  2.1736
 9121TIP3   OH251557   0.611   5.866  11.150 -0.1984  0.6070  0.1558
 9121TIP3    H151558   0.593   5.889  11.059 -0.0847 -1.3745 -0.4169
 9121TIP3    H251559   0.524   5.858  11.190 -0.2567  1.2620  0.1571
 9122TIP3   OH251560   1.872   4.731  10.688  0.0031 -0.3564 -0.1220
 9122TIP3    H151561   1.874   4.669  10.761  0.2976 -1.7102 -1.2535
 9122TIP3    H251562   1.937   4.797  10.711  1.2458 -1.6227  0.1305
 9123TIP3   OH251563   6.937   6.214  11.301 -0.4641 -0.7490  0.1108
 9123TIP3    H151564   6.956   6.264  11.222  0.3490 -1.1280  0.0474
 9123TIP3    H251565   7.007   6.239  11.362 -1.0748 -0.4677  0.7152
 9124TIP3   OH251566   6.631   0.509  12.242 -0.1174  0.5625  0.2967
 9124TIP3    H151567   6.606   0.487  12.332  0.9300 -0.6139  0.3359
 9124TIP3    H251568   6.689   0.585  12.251 -0.8872  1.1420  0.4964
 9125TIP3   OH251569   4.859   2.262  10.327  0.4103 -0.1344  0.2636
 9125TIP3    H151570   4.941   2.272  10.375  1.0210  0.6063 -0.8904
 9125TIP3    H251571   4.848   2.344  10.280 -0.0170 -0.9257 -1.0686
 9126TIP3   OH251572   3.337   1.612  11.180 -0.6652  0.6221 -1.1287
 9126TIP3    H151573   3.269   1.635  11.117 -0.1149  0.5073 -1.7916
 9126TIP3    H251574   3.375   1.531  11.145 -0.2726  0.6213 -0.7142
 9127TIP3   OH251575   6.291   4.280  11.114  0.5429 -0.1757  0.2746
 9127TIP3    H151576   6.208   4.234  11.111  0.8430 -0.6945 -1.6473
 9127TIP3    H251577   6.271   4.368  11.082  0.6388 -0.1061  0.4034
 9128TIP3   OH251578   3.073   0.661  10.877  0.0810  0.2713 -0.2478
 9128TIP3    H151579   3.117   0.578  10.894 -0.6824  0.1486  1.2534
 9128TIP3    H251580   3.139   0.715  10.833  0.8903 -0.7783 -0.3493
 9129TIP3   OH251581   1.344   0.802  12.685  0.3181 -0.4077 -0.4920
 9129TIP3    H151582   1.254   0.806  12.651  0.5989  1.9755 -1.1323
 9129TIP3    H251583   1.397   0.839  12.615  1.4198  0.9076  0.9811
 9130TIP3   OH251584   0.072   3.219  11.969  0.4905  0.5404 -0.0473
 9130TIP3    H151585   0.095   3.265  11.888 -0.6294  0.3347 -0.5053
 9130TIP3    H251586   0.009   3.152  11.941 -2.6280  2.6139  1.3926
 9131TIP3   OH251587   4.766   3.356  12.566 -0.9455 -0.2905 -0.0048
 9131TIP3    H151588   4.800   3.370  12.655  1.4892 -0.9240 -0.7354
 9131TIP3    H251589   4.809   3.423  12.513  0.6826 -2.2273 -1.2910
 9132TIP3   OH251590   0.107   6.641  12.015 -0.3611  0.1171 -0.1975
 9132TIP3    H151591   0.148   6.680  11.938  1.0532 -1.3080 -0.2483
 9132TIP3    H251592   0.169   6.659  12.087 -1.0176  0.3040  0.3301
 9133TIP3   OH251593   3.085   1.327  11.661  0.2607  0.1641 -0.0342
 9133TIP3    H151594   3.139   1.283  11.596  0.3257  0.8096 -0.4189
 9133TIP3    H251595   3.148   1.374  11.716  0.3728 -1.7218  1.5735
 9134TIP3   OH251596   0.453   1.338  11.992 -0.3135  0.2035  0.2342
 9134TIP3    H151597   0.484   1.247  11.993 -1.7336 -0.3123  1.3565
 9134TIP3    H251598   0.453   1.362  11.899 -1.3470 -1.4883 -0.2588
 9135TIP3   OH251599   4.001   6.586  11.918 -0.3548  0.2437  0.0023
 9135TIP3    H151600   4.038   6.510  11.875 -1.6722  0.5125 -1.7230
 9135TIP3    H251601   3.966   6.640  11.846 -0.0705  2.1406  1.2107
 9136TIP3   OH251602   6.895   5.853  10.755  0.4522  0.3807  0.4578
 9136TIP3    H151603   6.979   5.840  10.712  0.8792 -0.7312  1.5557
 9136TIP3    H251604   6.851   5.768  10.747 -0.7412  1.0569 -0.4322
 9137TIP3   OH251605   4.378   1.230  12.186  0.3287 -0.1797 -0.3270
 9137TIP3    H151606   4.415   1.263  12.268  1.9169  0.6906 -1.3336
 9137TIP3    H251607   4.425   1.148  12.170  0.6722  0.0995 -0.7882
 9138TIP3   OH251608   7.186   1.923  12.474 -0.4983  0.0159  0.3855
 9138TIP3    H151609   7.140   1.865  12.535 -0.6997  0.8894  1.0789
 9138TIP3    H251610   7.270   1.941  12.516 -1.7565  2.9782  1.9110
 9139TIP3   OH251611   6.833   3.681  11.407  0.1642 -0.2571 -0.0737
 9139TIP3    H151612   6.761   3.737  11.381 -0.0332 -1.1292 -1.5652
 9139TIP3    H251613   6.799   3.592  11.397  1.4179 -0.6859 -0.8549
 9140TIP3   OH251614   6.520   2.755  12.803 -0.4508  0.5464  0.0221
 9140TIP3    H151615   6.576   2.696  12.853  0.4502  1.0114 -0.4107
 9140TIP3    H251616   6.537   2.841  12.841 -1.2096  0.6374  0.1683
 9141TIP3   OH251617   2.610   4.050  12.103 -0.0714 -0.0375 -0.7752
 9141TIP3    H151618   2.688   4.028  12.053  1.5193 -2.2031  2.3448
 9141TIP3    H251619   2.637   4.123  12.159 -1.0813  0.7530 -1.2635
 9142TIP3   OH251620   0.912   5.481  11.091 -0.0824  0.5526  0.0822
 9142TIP3    H151621   0.892   5.543  11.021  2.1634  2.3616  0.8924
 9142TIP3    H251622   0.998   5.508  11.123 -0.4691 -0.9629  2.7253
 9143TIP3   OH251623   2.667   2.358  11.767 -0.0816  0.3102 -0.1661
 9143TIP3    H151624   2.757   2.368  11.735  0.5120 -1.4405  0.8430
 9143TIP3    H251625   2.633   2.448  11.769  1.5292  0.9784 -0.8622
 9144TIP3   OH251626   5.818   1.535  10.498  0.1798 -0.5059  0.2025
 9144TIP3    H151627   5.855   1.579  10.575  0.9871  0.5009 -0.7212
 9144TIP3    H251628   5.894   1.512  10.445 -0.4385  1.1308 -1.4993
 9145TIP3   OH251629   7.181   0.898  12.866  0.5463 -0.3642 -0.2208
 9145TIP3    H151630   7.122   0.840  12.914  0.7759  0.3979  1.0188
 9145TIP3    H251631   7.251   0.919  12.928  0.0302  1.9008 -0.3227
 9146TIP3   OH251632   1.034   0.347  12.379 -0.0939  0.4448  0.1788
 9146TIP3    H151633   1.057   0.337  12.287 -1.1070 -2.7615  0.1732
 9146TIP3    H251634   0.940   0.333  12.383 -0.0127  0.1118  1.7435
 9147TIP3   OH251635   2.365   3.791  12.679 -0.1820  0.3178 -0.0993
 9147TIP3    H151636   2.441   3.756  12.631  0.8580  0.0271  1.6581
 9147TIP3    H251637   2.386   3.774  12.771 -1.7746  1.4844  0.5130
 9148TIP3   OH251638   5.979   4.804  11.154  0.2329  0.0192  0.0492
 9148TIP3    H151639   5.951   4.869  11.089  0.9775  0.5077  0.2016
 9148TIP3    H251640   6.022   4.735  11.102 -1.3670 -0.8318 -0.2050
 9149TIP3   OH251641   4.662   2.854  12.947  0.0824 -0.8728  0.1424
 9149TIP3    H151642   4.568   2.859  12.931  0.0015  1.9102  0.9706
 9149TIP3    H251643   4.691   2.778  12.896 -2.5393 -1.6422 -0.3463
 9150TIP3   OH251644   7.065   0.981  10.763  0.3041 -0.3499 -0.4335
 9150TIP3    H151645   6.970   0.988  10.754  0.2900 -1.0157 -0.8991
 9150TIP3    H251646   7.098   1.065  10.731 -0.2687  1.3082  2.9154
 9151TIP3   OH251647   5.260   6.794  11.087  0.2419 -0.8347  0.3362
 9151TIP3    H151648   5.185   6.735  11.092 -0.5925  0.2888  1.6881
 9151TIP3    H251649   5.327   6.752  11.140  0.2739 -1.3897 -0.1264
 9152TIP3   OH251650   1.082   6.562  11.910 -0.3417 -0.5727 -0.4104
 9152TIP3    H151651   1.030   6.504  11.966  0.3613  1.1144  2.1577
 9152TIP3    H251652   1.064   6.650  11.943  0.2615  0.5319 -2.7888
 9153TIP3   OH251653   6.118   0.337  11.899  0.2385 -0.0422  0.2565
 9153TIP3    H151654   6.062   0.260  11.892 -0.5709  0.5707 -0.1796
 9153TIP3    H251655   6.135   0.346  11.993  0.3568 -0.7519  0.3110
 9154TIP3   OH251656   3.288   5.614  10.302  0.2099  0.1565 -0.4459
 9154TIP3    H151657   3.339   5.633  10.224 -0.3509  0.8905 -0.6466
 9154TIP3    H251658   3.318   5.678  10.367  0.9403 -0.6947  0.0626
 9155TIP3   OH251659   4.629   2.275  12.338 -0.2027  0.1505  0.0958
 9155TIP3    H151660   4.542   2.258  12.375 -0.1662  1.6351  0.9531
 9155TIP3    H251661   4.633   2.370  12.329  1.0592  0.0510 -0.6618
 9156TIP3   OH251662   6.150   0.501  12.354  0.3690  0.0874 -0.3356
 9156TIP3    H151663   6.184   0.469  12.270  2.0801  0.4262  0.1998
 9156TIP3    H251664   6.196   0.450  12.420 -0.1722  0.5748  0.4345
 9157TIP3   OH251665   0.384   1.932  10.901 -0.2147 -0.4272 -0.1209
 9157TIP3    H151666   0.315   1.978  10.854 -0.4056  0.1762  0.7195
 9157TIP3    H251667   0.458   1.931  10.840 -0.2259  0.9672 -0.1824
 9158TIP3   OH251668   2.428   5.199  13.155 -0.0238 -0.5414  0.1112
 9158TIP3    H151669   2.516   5.166  13.171 -0.3985 -1.7655 -0.2362
 9158TIP3    H251670   2.386   5.129  13.104 -1.4338 -0.3076  0.9270
 9159TIP3   OH251671   3.373   7.507  12.423  0.6174  0.3389  0.8853
 9159TIP3    H151672   3.320   7.530  12.499  0.8523  0.1139  1.1197
 9159TIP3    H251673   3.442   7.450  12.458 -0.1272 -0.9708  0.2805
 9160TIP3   OH251674   4.487   2.065  11.249 -0.2834  0.0286 -0.0699
 9160TIP3    H151675   4.403   2.109  11.260 -0.4777 -0.0727 -1.1099
 9160TIP3    H251676   4.502   2.022  11.334 -1.5288 -0.3800 -0.0383
 9161TIP3   OH251677   3.060   0.387  12.628 -0.1451  0.5453 -0.1620
 9161TIP3    H151678   2.987   0.362  12.685 -0.0902 -0.0611 -0.3537
 9161TIP3    H251679   3.138   0.355  12.674 -0.0164  0.9786 -0.0752
 9162TIP3   OH251680   4.731   6.586  11.263  0.4098 -0.8338  0.1229
 9162TIP3    H151681   4.767   6.652  11.203  0.7213  0.1775  1.3855
 9162TIP3    H251682   4.766   6.503  11.230  1.2310 -0.2175 -0.6294
 9163TIP3   OH251683   1.161   3.197  13.135 -0.4517  0.4411  0.0356
 9163TIP3    H151684   1.140   3.106  13.114 -0.2696  0.4302 -0.0914
 9163TIP3    H251685   1.235   3.192  13.195  0.7546  0.5756 -1.4088
 9164TIP3   OH251686   3.521   0.735  12.101  0.5324  0.2841 -0.1674
 9164TIP3    H151687   3.493   0.736  12.193  0.7345  0.5359 -0.1076
 9164TIP3    H251688   3.463   0.671  12.060 -0.2694  0.9360 -0.0841
 9165TIP3   OH251689   3.969   0.242  12.501  0.0447 -0.1801 -0.1019
 9165TIP3    H151690   3.966   0.291  12.583 -2.4765  2.0257 -1.3555
 9165TIP3    H251691   3.961   0.150  12.527  1.3310  0.2901  2.1657
 9166TIP3   OH251692   5.788   2.198  10.840 -0.2462  0.0549 -0.3816
 9166TIP3    H151693   5.747   2.206  10.753 -1.8465 -0.5322  0.2898
 9166TIP3    H251694   5.715   2.191  10.901  0.8636 -0.6110  0.9314
 9167TIP3   OH251695   3.274   5.329  10.681  0.3505 -0.4392  0.0545
 9167TIP3    H151696   3.217   5.305  10.754 -0.8801  2.7244  0.3066
 9167TIP3    H251697   3.214   5.336  10.606  0.6622  1.1652 -0.0833
 9168TIP3   OH251698   6.469   7.394  10.947  0.0997 -0.8216  0.4579
 9168TIP3    H151699   6.446   7.403  10.855 -1.1940  0.6902  0.8735
 9168TIP3    H251700   6.424   7.314  10.976 -2.3858  0.4902  0.5238
 9169TIP3   OH251701   5.865   6.368  10.558  0.5720  0.3424  0.0859
 9169TIP3    H151702   5.811   6.446  10.549  1.0047  0.4135 -2.5943
 9169TIP3    H251703   5.949   6.400  10.591  0.0185  0.6516  1.2433
 9170TIP3   OH251704   5.836   5.465  13.169 -0.0191  0.1573  0.0241
 9170TIP3    H151705   5.893   5.394  13.199 -1.5702 -1.0419  0.2589
 9170TIP3    H251706   5.802   5.434  13.085 -1.2377  0.2796  0.4505
 9171TIP3   OH251707   7.228   1.277  12.617  0.1058  0.0605  0.0245
 9171TIP3    H151708   7.204   1.291  12.526  0.0616  1.2750  0.2028
 9171TIP3    H251709   7.232   1.365  12.654  0.2846 -0.4077  1.1523
 9172TIP3   OH251710   7.407   6.142  11.272 -0.5495 -0.2324  1.1930
 9172TIP3    H151711   7.337   6.094  11.229  0.9403 -0.3514 -1.2817
 9172TIP3    H251712   7.397   6.232  11.241  0.4243 -0.2705  0.7277
 9173TIP3   OH251713   3.752   1.833  11.587 -0.7337 -0.0761 -0.1265
 9173TIP3    H151714   3.661   1.836  11.618 -0.5218  1.4758  0.3885
 9173TIP3    H251715   3.791   1.760  11.635 -1.1054  0.6962  1.3901
 9174TIP3   OH251716   3.545   1.391  11.933  0.4703  0.2487 -0.0104
 9174TIP3    H151717   3.533   1.400  11.838 -0.7070 -0.5464  0.0396
 9174TIP3    H251718   3.491   1.460  11.970 -0.0167 -0.1992  0.1113
 9175TIP3   OH251719   3.053   5.745  12.257 -0.3291 -0.3328  0.2463
 9175TIP3    H151720   3.115   5.681  12.291  0.3314  0.0242 -0.2532
 9175TIP3    H251721   3.104   5.826  12.249 -0.4809 -0.3673 -1.4256
 9176TIP3   OH251722   6.372   0.325  11.766  0.0217 -0.0403  0.1318
 9176TIP3    H151723   6.363   0.406  11.714  0.6426  0.6484  1.0567
 9176TIP3    H251724   6.287   0.313  11.807 -0.0170  0.2737  0.1502
 9177TIP3   OH251725   0.142   4.981  12.069 -0.2112  0.0268  0.3110
 9177TIP3    H151726   0.056   4.998  12.108 -1.0619 -0.6923 -1.1905
 9177TIP3    H251727   0.172   5.066  12.038 -0.2456  0.3249  1.0684
 9178TIP3   OH251728   6.158   5.673  11.518 -0.4046 -0.4557 -0.9480
 9178TIP3    H151729   6.137   5.717  11.435  0.6234  1.0488 -0.4605
 9178TIP3    H251730   6.251   5.652  11.510  0.3581  1.8792  0.6869
 9179TIP3   OH251731   3.321   2.266  11.350  0.0368 -0.1646 -0.1056
 9179TIP3    H151732   3.235   2.227  11.366 -0.7783  0.3227 -2.7637
 9179TIP3    H251733   3.370   2.199  11.302  0.0938  0.5569 -1.0871
 9180TIP3   OH251734   7.578   5.181  11.531  0.5188  0.2723  0.3509
 9180TIP3    H151735   7.539   5.183  11.443  1.2428 -1.6828 -0.0640
 9180TIP3    H251736   7.645   5.250  11.528  0.6179  0.1587 -0.6701
 9181TIP3   OH251737   5.111   3.472  13.062 -0.2020 -0.3525 -0.2849
 9181TIP3    H151738   5.033   3.431  13.100 -2.6192  1.8682 -2.3752
 9181TIP3    H251739   5.120   3.554  13.110 -0.7455  0.5417 -1.6479
 9182TIP3   OH251740   4.995   4.954  12.792  0.2575 -0.5047  0.1314
 9182TIP3    H151741   5.027   5.013  12.860 -0.1143 -0.8562  0.6131
 9182TIP3    H251742   5.062   4.959  12.723  0.4362  0.1541  0.3429
 9183TIP3   OH251743   5.650   4.902  11.212 -0.5703 -0.1190 -0.0957
 9183TIP3    H151744   5.645   4.811  11.241  1.0953 -1.5962 -3.7472
 9183TIP3    H251745   5.730   4.936  11.251 -0.4433 -0.7167  0.1700
 9184TIP3   OH251746   5.282   4.343  13.233 -0.2043  0.7898  0.0086
 9184TIP3    H151747   5.223   4.377  13.166 -2.6939  0.6799  1.9740
 9184TIP3    H251748   5.268   4.249  13.232  0.8509  0.6206 -0.2609
 9185TIP3   OH251749   4.935   6.396  10.855  0.4763  0.1601  0.8240
 9185TIP3    H151750   5.017   6.440  10.877  0.3820  0.7815 -0.0389
 9185TIP3    H251751   4.897   6.449  10.785 -0.1506 -0.7098  0.4928
 9186TIP3   OH251752   2.184   0.803  10.338  0.8613 -0.4993  0.0865
 9186TIP3    H151753   2.253   0.869  10.334  0.2893  0.0513 -1.5632
 9186TIP3    H251754   2.188   0.759  10.253  0.1710 -1.4912  0.5464
 9187TIP3   OH251755   1.138   4.060  11.845 -0.0832 -0.2398 -0.4157
 9187TIP3    H151756   1.070   4.036  11.782  0.5543 -2.3216 -0.3980
 9187TIP3    H251757   1.218   4.068  11.792 -0.1704  1.4298 -0.3291
 9188TIP3   OH251758   3.382   1.433  11.450  0.0460 -0.1139 -0.2691
 9188TIP3    H151759   3.322   1.507  11.459  1.9999  1.4272  1.1625
 9188TIP3    H251760   3.329   1.356  11.469 -1.4308  1.1726  1.1108
 9189TIP3   OH251761   5.278   5.859  12.376 -0.5003 -0.1568  0.3132
 9189TIP3    H151762   5.351   5.866  12.438 -0.7342 -0.4656  0.6233
 9189TIP3    H251763   5.243   5.948  12.371 -1.5895 -0.4408  1.9852
 9190TIP3   OH251764   0.676   7.195  11.823 -0.4093  0.1248  0.1962
 9190TIP3    H151765   0.626   7.250  11.883 -2.8782  0.2672 -1.8432
 9190TIP3    H251766   0.663   7.235  11.737  0.6732 -1.6579 -0.8594
 9191TIP3   OH251767   3.490   4.869  10.478 -0.3363 -0.4042  0.4061
 9191TIP3    H151768   3.410   4.816  10.475 -1.1728  0.8419 -0.5501
 9191TIP3    H251769   3.459   4.959  10.465  1.1700  0.1775  0.6443
 9192TIP3   OH251770   0.474   7.046  12.508  0.0838 -0.1173 -0.5659
 9192TIP3    H151771   0.415   7.067  12.581 -1.0860  1.8291 -1.9818
 9192TIP3    H251772   0.418   7.049  12.431  1.6815 -0.2045 -1.7608
 9193TIP3   OH251773   3.065   4.652  11.292  0.4409 -0.5268  0.0808
 9193TIP3    H151774   2.987   4.648  11.237  0.3847  0.2351  0.0957
 9193TIP3    H251775   3.058   4.735  11.338  1.1664 -0.5390  0.2294
 9194TIP3   OH251776   4.491   4.814  12.026 -0.1786 -0.1860 -0.2003
 9194TIP3    H151777   4.415   4.871  12.039  0.2034  0.2898 -0.0142
 9194TIP3    H251778   4.471   4.736  12.077 -1.4781 -0.9709 -1.8407
 9195TIP3   OH251779   7.565   7.154  10.600 -0.4475  0.6364 -0.4145
 9195TIP3    H151780   7.480   7.168  10.643 -0.6424 -1.5409  0.0156
 9195TIP3    H251781   7.581   7.236  10.553 -3.1550  0.8895 -1.1261
 9196TIP3   OH251782   4.889   2.076  10.916  0.1666  0.2169 -0.7192
 9196TIP3    H151783   4.878   2.050  11.007  0.8020  0.4747 -0.5568
 9196TIP3    H251784   4.830   2.020  10.867 -0.3303  0.2160 -0.1268
 9197TIP3   OH251785   3.791   5.401  11.586  0.0141  0.3112  0.8393
 9197TIP3    H151786   3.830   5.314  11.576 -0.9723 -0.1244  0.6620
 9197TIP3    H251787   3.770   5.408  11.679 -1.9345 -0.5574  0.5025
 9198TIP3   OH251788   3.164   6.738  12.618 -0.5980 -0.7610 -0.5709
 9198TIP3    H151789   3.204   6.651  12.608  0.6864 -0.0364 -2.3756
 9198TIP3    H251790   3.237   6.799  12.604 -1.5079  0.6332  0.5026
 9199TIP3   OH251791   7.238   2.202  12.128 -0.2607  0.8891  0.0912
 9199TIP3    H151792   7.171   2.192  12.196 -0.9755  2.5830 -0.3196
 9199TIP3    H251793   7.220   2.131  12.067  0.3814 -0.6552  1.6155
 9200TIP3   OH251794   6.923   3.018  13.264 -0.1030 -0.5665  0.2508
 9200TIP3    H151795   7.008   2.977  13.248 -0.3318 -1.2471  0.7052
 9200TIP3    H251796   6.859   2.953  13.234 -0.5050  1.0819 -2.8429
 9201TIP3   OH251797   5.444   2.496  13.439 -0.1134 -0.3383 -0.1044
 9201TIP3    H151798   5.424   2.509  13.531 -0.0902  0.7206 -0.2354
 9201TIP3    H251799   5.535   2.465  13.437 -0.0805 -0.2579  0.2155
 9202TIP3   OH251800   6.133   6.808  11.997  0.0530  0.2037  0.5855
 9202TIP3    H151801   6.218   6.845  12.020  0.5508 -2.2031  3.1674
 9202TIP3    H251802   6.153   6.743  11.930 -0.3154  1.8511 -1.2241
 9203TIP3   OH251803   1.179   3.076  12.421  0.0869 -0.6742 -0.3015
 9203TIP3    H151804   1.107   3.042  12.474  1.2645 -0.0508  1.8180
 9203TIP3    H251805   1.145   3.157  12.382 -0.8296 -1.1936 -0.6258
 9204TIP3   OH251806   0.457   3.845  12.693 -0.3454  0.4555  0.7543
 9204TIP3    H151807   0.532   3.797  12.728 -0.1614  0.7415  0.7531
 9204TIP3    H251808   0.416   3.783  12.632 -1.1014 -0.3321  2.0082
 9205TIP3   OH251809   5.215   7.277  12.171 -0.4038  0.3281  0.2084
 9205TIP3    H151810   5.156   7.297  12.243  0.5344 -0.7942  1.3455
 9205TIP3    H251811   5.250   7.190  12.191  3.6595  1.9302  1.0916
 9206TIP3   OH251812   0.536   1.207  11.640 -0.1907 -0.1273 -0.1043
 9206TIP3    H151813   0.537   1.213  11.544  0.6985 -1.7782 -0.2222
 9206TIP3    H251814   0.458   1.155  11.660 -0.4142  0.2725  0.0973
 9207TIP3   OH251815   7.407   2.892  11.687  0.6885  0.2397  0.1093
 9207TIP3    H151816   7.414   2.858  11.598  2.2988 -0.1788  0.3662
 9207TIP3    H251817   7.376   2.818  11.738  0.4518  0.2739  0.0151
 9208TIP3   OH251818   1.964   3.543  10.754  0.4615  0.2692 -0.3046
 9208TIP3    H151819   1.993   3.466  10.801  1.8592  0.5269 -0.7107
 9208TIP3    H251820   2.023   3.551  10.679  0.8528  2.1529  0.1363
 9209TIP3   OH251821   5.994   3.190  11.500  0.4867 -0.5675 -0.0953
 9209TIP3    H151822   6.046   3.149  11.570  0.2015 -1.0478 -0.1587
 9209TIP3    H251823   6.047   3.264  11.471  0.5230 -0.2600  0.7527
 9210TIP3   OH251824   4.401   5.861  11.797 -0.2472  0.3103  0.1385
 9210TIP3    H151825   4.451   5.901  11.726  0.2650  2.2494  1.4900
 9210TIP3    H251826   4.313   5.897  11.787 -0.2181  0.4485  0.3566
 9211TIP3   OH251827   5.052   1.986  12.029 -0.2203  0.8370  0.0835
 9211TIP3    H151828   5.048   1.898  11.992  1.3365  1.0961 -0.7752
 9211TIP3    H251829   4.961   2.016  12.027 -0.5530 -0.1636 -1.1012
 9212TIP3   OH251830   2.815   6.612  12.030 -0.3539  0.1177 -0.3451
 9212TIP3    H151831   2.878   6.595  12.100 -0.5108 -0.8243 -0.4258
 9212TIP3    H251832   2.840   6.699  11.997  2.0903 -0.9592 -1.6034
 9213TIP3   OH251833   4.266   2.197  11.865 -0.5130  0.3980 -0.1473
 9213TIP3    H151834   4.215   2.197  11.946 -1.2467  1.4225 -0.5920
 9213TIP3    H251835   4.325   2.271  11.874  0.5966 -0.4880  0.1498
 9214TIP3   OH251836   1.629   0.211  11.075 -0.3922 -0.1948 -0.0458
 9214TIP3    H151837   1.609   0.299  11.042 -0.9807 -0.6780 -1.0448
 9214TIP3    H251838   1.549   0.161  11.059  0.3354 -1.2176 -0.6312
 9215TIP3   OH251839   2.894   3.699   9.909 -0.4589 -0.3274  0.3638
 9215TIP3    H151840   2.899   3.738   9.996  1.0629  0.8842 -0.2097
 9215TIP3    H251841   2.817   3.642   9.912  0.7306 -1.9614  3.1220
 9216TIP3   OH251842   0.317   5.913  11.101 -0.3099 -0.7102 -0.6927
 9216TIP3    H151843   0.326   5.937  11.009 -2.1369 -0.9487 -0.9772
 9216TIP3    H251844   0.314   5.817  11.100  1.5370 -0.8010 -0.1564
 9217TIP3   OH251845   4.539   4.084  12.471  0.1819 -0.3749 -0.1933
 9217TIP3    H151846   4.604   4.152  12.488 -1.3579  0.8408  1.1031
 9217TIP3    H251847   4.550   4.022  12.544  0.4771 -0.6538 -0.4713
 9218TIP3   OH251848   0.206   5.862  11.945 -0.0067  0.3138 -0.0309
 9218TIP3    H151849   0.240   5.867  11.856  0.0965 -2.2006 -0.2018
 9218TIP3    H251850   0.281   5.882  12.001  1.3254 -2.9144 -0.4622
 9219TIP3   OH251851   2.323   0.540  10.765  0.0434 -0.1851  0.1497
 9219TIP3    H151852   2.342   0.629  10.734 -1.1055 -0.0481 -0.2293
 9219TIP3    H251853   2.256   0.553  10.833  3.1933 -0.3586  3.6404
 9220TIP3   OH251854   0.951   3.452  12.116 -0.0651 -0.1594  0.1240
 9220TIP3    H151855   0.956   3.386  12.185  0.1457  0.1481  0.4059
 9220TIP3    H251856   1.008   3.522  12.146  1.4159 -0.7499 -1.1610
 9221TIP3   OH251857   2.413   5.184  11.860  0.3336  0.0160 -0.1350
 9221TIP3    H151858   2.352   5.183  11.933 -0.6365  2.7874 -0.7866
 9221TIP3    H251859   2.359   5.164  11.783  0.7543  0.0147 -0.4342
 9222TIP3   OH251860   1.110   1.265  12.297  0.7251  0.1075 -0.2314
 9222TIP3    H151861   1.027   1.313  12.296  0.2645 -0.6841 -0.3467
 9222TIP3    H251862   1.095   1.191  12.355  0.6102 -1.3260 -1.9947
 9223TIP3   OH251863   4.094   5.418  10.614  0.1226  0.1687  0.0507
 9223TIP3    H151864   4.014   5.371  10.636 -0.2003  0.6112 -0.1664
 9223TIP3    H251865   4.069   5.477  10.543  0.8576 -0.3258 -0.6393
 9224TIP3   OH251866   7.240   3.173  12.041  0.2766  0.2331 -0.1580
 9224TIP3    H151867   7.160   3.217  12.069  0.2659  0.6673 -0.8530
 9224TIP3    H251868   7.212   3.084  12.019 -0.2317  0.6941 -1.4610
 9225TIP3   OH251869   0.815   3.549  11.266 -0.0661  0.3282 -0.2603
 9225TIP3    H151870   0.739   3.606  11.253  0.0157  0.6087  0.4723
 9225TIP3    H251871   0.838   3.520  11.178 -1.4691 -0.3438 -0.4257
 9226TIP3   OH251872   2.934   1.917  10.404 -0.0278 -0.4301 -0.1514
 9226TIP3    H151873   2.981   1.995  10.435  0.6205 -0.8999  0.0697
 9226TIP3    H251874   2.975   1.845  10.451 -1.1332 -0.8332  0.2087
 9227TIP3   OH251875   0.466   3.077  11.391  0.2251  0.3733 -0.5187
 9227TIP3    H151876   0.487   3.107  11.480  0.7081  1.2423 -0.9130
 9227TIP3    H251877   0.500   2.988  11.388  0.0424  0.2673  0.2250
 9228TIP3   OH251878   0.726   4.282  12.559 -0.1863  0.3662  0.1002
 9228TIP3    H151879   0.799   4.279  12.621  0.3648  3.1005 -0.3105
 9228TIP3    H251880   0.669   4.210  12.586  0.3746  0.9934  3.3818
 9229TIP3   OH251881   1.663   5.661  10.688 -0.1591 -0.0369  0.7599
 9229TIP3    H151882   1.740   5.609  10.668  0.0900 -0.6274  2.9579
 9229TIP3    H251883   1.603   5.600  10.731 -1.9439  0.3757 -1.0050
 9230TIP3   OH251884   6.091   4.387  11.692  0.1223  0.7013 -0.5818
 9230TIP3    H151885   6.125   4.460  11.641 -0.2159  2.2630  1.3178
 9230TIP3    H251886   6.161   4.321  11.689  0.9232  1.5622 -1.3736
 9231TIP3   OH251887   4.142   1.586  10.730  0.0879  0.5094  0.4678
 9231TIP3    H151888   4.130   1.503  10.776 -1.5595  1.3058  1.5561
 9231TIP3    H251889   4.128   1.565  10.638 -0.2880 -0.4286  0.7334
 9232TIP3   OH251890   6.055   5.526  11.063 -0.5854 -0.1367 -0.2941
 9232TIP3    H151891   5.970   5.560  11.089 -0.1974  2.6526 -2.2670
 9232TIP3    H251892   6.111   5.539  11.140 -1.1152  1.3153 -0.1274
 9233TIP3   OH251893   0.423   4.124  12.124 -0.0811 -0.3954  0.3327
 9233TIP3    H151894   0.428   4.081  12.039 -2.4896 -2.0688  0.9282
 9233TIP3    H251895   0.442   4.054  12.187  0.6756  0.5872  1.2293
 9234TIP3   OH251896   5.106   2.525  10.370 -0.1199  0.3590  0.3255
 9234TIP3    H151897   5.075   2.461  10.435 -0.3271 -0.4180 -0.5094
 9234TIP3    H251898   5.142   2.471  10.299 -0.1240  1.1826 -0.3202
 9235TIP3   OH251899   2.835   1.972  11.741  0.4001 -0.1188  0.0801
 9235TIP3    H151900   2.750   2.015  11.731  0.2487 -0.3811  0.2550
 9235TIP3    H251901   2.816   1.890  11.787  0.5587 -0.8462 -1.1180
 9236TIP3   OH251902   4.950   4.355  12.726 -0.2268 -0.2367  0.1593
 9236TIP3    H151903   4.909   4.396  12.802  0.9335  1.0545  0.1390
 9236TIP3    H251904   4.913   4.401  12.651  0.2278 -0.0050  0.0713
 9237TIP3   OH251905   4.894   6.145  11.392 -0.0381  0.1225  0.1166
 9237TIP3    H151906   4.969   6.086  11.381  0.7084  1.3817 -2.1334
 9237TIP3    H251907   4.820   6.096  11.358  0.6986  0.6264 -2.4241
 9238TIP3   OH251908   0.921   5.434  12.662  0.2250 -0.0508  0.0922
 9238TIP3    H151909   0.827   5.426  12.645  0.0344  2.2420 -0.2657
 9238TIP3    H251910   0.928   5.507  12.724  1.8113  0.1890 -0.3275
 9239TIP3   OH251911   3.749   1.949  12.770  0.3222  0.3566  0.0875
 9239TIP3    H151912   3.749   2.044  12.755  1.1904  0.6660  1.7266
 9239TIP3    H251913   3.696   1.913  12.700 -0.8709  2.1674  0.0068
 9240TIP3   OH251914   0.474   1.540  12.927  0.0392  1.1226  0.6037
 9240TIP3    H151915   0.558   1.498  12.945 -0.0528  1.3114  1.5777
 9240TIP3    H251916   0.480   1.625  12.972 -0.2470  1.6241 -0.2711
 9241TIP3   OH251917   2.580   1.178  10.946 -0.2022 -0.1733  0.1915
 9241TIP3    H151918   2.568   1.236  11.022 -1.5681 -0.0339 -0.1015
 9241TIP3    H251919   2.510   1.113  10.955  0.2324 -0.7295 -0.4293
 9242TIP3   OH251920   3.224   6.689  11.542  0.2942  0.3616 -0.0871
 9242TIP3    H151921   3.167   6.679  11.465 -0.2461 -2.9167  0.5756
 9242TIP3    H251922   3.191   6.767  11.586 -2.5560 -0.3512 -0.7249
 9243TIP3   OH251923   3.618   0.236  12.827 -0.4195  0.1843 -0.0109
 9243TIP3    H151924   3.693   0.177  12.836 -0.2842  0.4277  0.4903
 9243TIP3    H251925   3.648   0.319  12.863 -0.9353  0.2825  0.2089
 9244TIP3   OH251926   1.400   1.077  10.953  0.1519 -0.2090 -0.1543
 9244TIP3    H151927   1.357   1.163  10.949  1.1519  0.3542  0.7916
 9244TIP3    H251928   1.493   1.097  10.962  0.2703 -1.3585  1.6520
 9245TIP3   OH251929   0.229   7.272  11.970 -0.1206  0.0670  0.0233
 9245TIP3    H151930   0.202   7.185  11.939  1.5880  0.2163 -2.1421
 9245TIP3    H251931   0.168   7.332  11.927 -0.0598  0.0550 -0.0804
 9246TIP3   OH251932   1.419   3.161  12.225 -0.2489  0.0184 -0.0751
 9246TIP3    H151933   1.487   3.206  12.274 -3.0513  1.9813  2.3388
 9246TIP3    H251934   1.370   3.231  12.182 -3.2904 -0.7154  1.8415
 9247TIP3   OH251935   5.593   1.799  10.469 -0.0775  0.2850 -0.0390
 9247TIP3    H151936   5.597   1.820  10.562  1.4939 -0.6147  0.1423
 9247TIP3    H251937   5.508   1.757  10.457 -0.9278  1.7776  0.6636
 9248TIP3   OH251938   0.412   1.765  11.686 -0.0539  0.1568  0.2242
 9248TIP3    H151939   0.344   1.809  11.738  0.3221 -0.5708  1.3907
 9248TIP3    H251940   0.380   1.675  11.677 -1.3300  0.8190 -3.0433
 9249TIP3   OH251941   0.955   7.125  11.621  0.0259 -0.6772  0.1240
 9249TIP3    H151942   0.999   7.179  11.556 -0.4461 -1.1080 -0.5731
 9249TIP3    H251943   1.023   7.067  11.655  0.3253 -0.2898  0.1911
 9250TIP3   OH251944   5.438   2.262  10.548  0.1055  0.0279  0.4110
 9250TIP3    H151945   5.523   2.251  10.590  0.1975 -1.2468 -0.0656
 9250TIP3    H251946   5.404   2.173  10.539 -0.2710  0.3161 -1.4547
 9251TIP3   OH251947   1.946   5.014  11.458 -0.2082  0.1014 -0.2258
 9251TIP3    H151948   1.921   4.922  11.447 -1.2379  0.4928 -1.4747
 9251TIP3    H251949   1.867   5.057  11.490  0.6000  0.3864  1.5200
 9252TIP3   OH251950   4.907   2.978  10.616  0.3835 -0.2446  0.3870
 9252TIP3    H151951   4.936   2.981  10.707 -0.4534  3.0489  0.6627
 9252TIP3    H251952   4.921   3.066  10.583  0.4844 -1.2873 -2.6788
 9253TIP3   OH251953   7.122   1.604  11.504  0.9069  0.2700 -0.6102
 9253TIP3    H151954   7.074   1.539  11.554  1.2053  0.6989  0.2500
 9253TIP3    H251955   7.130   1.566  11.416 -0.4552 -0.0717 -0.6041
 9254TIP3   OH251956   0.179   4.229  12.872  0.3090 -0.2114 -0.1119
 9254TIP3    H151957   0.176   4.241  12.777  1.0852  2.0104  0.0708
 9254TIP3    H251958   0.240   4.157  12.885 -0.8459 -1.4560 -1.3127
 9255TIP3   OH251959   6.985   4.579  12.076 -0.1887  0.0541 -0.1673
 9255TIP3    H151960   6.973   4.672  12.092 -0.0973  0.4552 -2.2381
 9255TIP3    H251961   7.020   4.573  11.987  0.3153 -1.9315  0.1024
 9256TIP3   OH251962   7.592   4.861  13.683  0.3921  0.0145  0.5890
 9256TIP3    H151963   7.499   4.843  13.668  0.0776  1.9522  0.0052
 9256TIP3    H251964   7.635   4.777  13.665 -0.8329  0.0229 -3.2558
 9257TIP3   OH251965   2.812   5.673  11.523  0.4159 -0.2504 -0.4438
 9257TIP3    H151966   2.725   5.692  11.487  1.3019  0.5804 -2.2845
 9257TIP3    H251967   2.794   5.631  11.607 -1.8034  2.9074  0.8913
 9258TIP3   OH251968   5.998   2.069  10.255  0.0658 -0.3097  0.1650
 9258TIP3    H151969   6.053   2.069  10.177 -1.7945 -1.1351 -1.2291
 9258TIP3    H251970   5.994   2.161  10.282  1.9339 -0.2128  0.2154
 9259TIP3   OH251971   0.801   4.920  11.623 -0.2783 -0.8426 -0.3587
 9259TIP3    H151972   0.757   4.839  11.601 -0.4434 -0.7010 -0.5513
 9259TIP3    H251973   0.797   4.973  11.543  0.2512 -0.8349 -0.3836
 9260TIP3   OH251974   3.737   3.567  10.512  0.3770  0.7560  0.5390
 9260TIP3    H151975   3.830   3.550  10.527  0.6118  0.4319 -1.0552
 9260TIP3    H251976   3.692   3.522  10.584  1.2699 -2.4633 -0.7088
 9261TIP3   OH251977   6.660   5.000  11.709 -0.2344 -0.1471 -0.6637
 9261TIP3    H151978   6.742   5.048  11.698 -0.1875  0.0205  0.2597
 9261TIP3    H251979   6.597   5.046  11.654  0.6526 -1.2869 -2.7208
 9262TIP3   OH251980   6.214   3.774  10.668 -0.2600 -0.0610  0.0812
 9262TIP3    H151981   6.123   3.803  10.663 -0.7642 -1.5051  0.5235
 9262TIP3    H251982   6.216   3.690  10.623  0.5200 -0.7549  1.3382
 9263TIP3   OH251983   5.734   5.710  12.646 -0.0539 -0.5716  0.1175
 9263TIP3    H151984   5.729   5.614  12.650 -0.1183 -0.5696  0.0840
 9263TIP3    H251985   5.825   5.730  12.671  0.0145 -0.6519 -0.0599
 9264TIP3   OH251986   5.876   1.854  10.420 -0.4491  0.0765  0.2882
 9264TIP3    H151987   5.869   1.900  10.336 -0.3461 -0.5580 -0.0740
 9264TIP3    H251988   5.787   1.826  10.440 -0.4731  0.2238  0.3915
 9265TIP3   OH251989   0.104   4.282  10.692 -0.8119 -0.0269 -0.3942
 9265TIP3    H151990   0.172   4.311  10.631 -0.1294 -0.0982  0.3070
 9265TIP3    H251991   0.075   4.197  10.657 -0.7850  0.1601 -0.8830
 9266TIP3   OH251992   1.561   2.966  10.307 -0.3129 -0.2638  0.4200
 9266TIP3    H151993   1.621   2.955  10.233 -1.7061  2.3428 -1.2742
 9266TIP3    H251994   1.614   3.008  10.375  0.2572  0.2573 -0.3231
 9267TIP3   OH251995   5.296   3.511  11.027  0.5627  0.0506  0.3864
 9267TIP3    H151996   5.288   3.544  10.938  1.3925 -1.8517 -0.4468
 9267TIP3    H251997   5.390   3.507  11.043  0.4302  0.0073  1.1907
 9268TIP3   OH251998   0.551   1.331  11.034 -0.1636  0.0119 -0.1257
 9268TIP3    H151999   0.602   1.355  11.111 -1.9860 -1.0463  1.4926
 9268TIP3    H252000   0.479   1.394  11.031 -0.4488 -0.3237 -0.6112
 9269TIP3   OH252001   7.479   1.346  10.782  0.2011 -0.0911  0.2779
 9269TIP3    H152002   7.394   1.318  10.815  0.4725 -1.8838 -0.4383
 9269TIP3    H252003   7.489   1.436  10.814 -1.6514 -0.0801  0.9294
 9270TIP3   OH252004   0.239   4.286  12.590 -0.6454 -0.8058  0.0768
 9270TIP3    H152005   0.173   4.314  12.526 -0.8061 -0.3653  0.4286
 9270TIP3    H252006   0.311   4.347  12.578 -0.9232 -0.3507  0.7269
 9271TIP3   OH252007   3.097   4.919  10.472 -0.1490 -0.5390 -0.3894
 9271TIP3    H152008   3.191   4.937  10.468 -0.0542 -0.9113 -0.0401
 9271TIP3    H252009   3.064   4.980  10.537  0.3361 -2.1655  1.5005
 9272TIP3   OH252010   5.839   4.137  12.252 -0.4334  0.0188 -0.1650
 9272TIP3    H152011   5.888   4.201  12.304 -0.1962  1.0571 -1.5829
 9272TIP3    H252012   5.828   4.062  12.310  2.8036 -0.2704  0.2327
 9273TIP3   OH252013   7.439   7.631  12.922 -0.6844  0.1197 -0.0822
 9273TIP3    H152014   7.363   7.579  12.948 -0.6911  1.1806  2.2834
 9273TIP3    H252015   7.413   7.722  12.939 -0.6708  1.0600 -4.0800
 9274TIP3   OH252016   4.937   4.775  11.232 -0.2135  0.1611  0.1834
 9274TIP3    H152017   5.025   4.739  11.238 -0.2357  0.1820  0.7334
 9274TIP3    H252018   4.941   4.838  11.160  0.0075 -0.4244 -0.3186
 9275TIP3   OH252019   6.038   7.113  12.247 -0.7814 -0.3803  0.0457
 9275TIP3    H152020   6.029   7.207  12.259  0.6436 -0.2019 -0.1899
 9275TIP3    H252021   6.120   7.090  12.291 -1.7266 -1.7396  1.2051
 9276TIP3   OH252022   5.299   3.869  10.475  0.0348 -0.5680  0.6340
 9276TIP3    H152023   5.336   3.942  10.525  1.3948 -0.2092 -0.8356
 9276TIP3    H252024   5.216   3.904  10.441 -0.3940 -0.4706  1.7380
 9277TIP3   OH252025   7.228   0.530  11.667 -0.2159 -0.5824 -0.0902
 9277TIP3    H152026   7.301   0.526  11.728 -1.8681  0.6887  2.0861
 9277TIP3    H252027   7.168   0.461  11.696 -0.8314 -0.2507 -0.5484
 9278TIP3   OH252028   4.372   4.299  11.631  0.3931 -0.0584 -0.1569
 9278TIP3    H152029   4.333   4.384  11.650 -0.2937 -0.2693 -0.6045
 9278TIP3    H252030   4.429   4.281  11.706  0.2419  0.6097  0.1232
 9279TIP3   OH252031   1.852   1.927  11.813 -0.7004  0.1301  0.4049
 9279TIP3    H152032   1.947   1.926  11.811 -0.7066 -0.9251 -0.1639
 9279TIP3    H252033   1.830   1.990  11.881  0.3989  0.4292  0.5020
 9280TIP3   OH252034   1.468   1.169  12.966 -0.6176 -0.2352  0.6450
 9280TIP3    H152035   1.437   1.214  12.887  0.2744 -0.0968  0.3591
 9280TIP3    H252036   1.557   1.142  12.945 -0.0760  0.4969  1.8756
 9281TIP3   OH252037   5.757   5.197  12.144 -0.5164  0.0188 -0.2043
 9281TIP3    H152038   5.841   5.160  12.117 -1.5942 -1.2303 -2.1520
 9281TIP3    H252039   5.729   5.143  12.217  0.5438  0.7473  0.7818
 9282TIP3   OH252040   0.257   1.577  12.777  0.4346 -0.7894  0.1905
 9282TIP3    H152041   0.196   1.648  12.797 -0.7216 -1.4780 -0.7112
 9282TIP3    H252042   0.327   1.586  12.842 -0.4935  0.1954  1.0996
 9283TIP3   OH252043   5.646   6.595  12.490 -0.0229 -0.3932  0.6047
 9283TIP3    H152044   5.626   6.687  12.473  2.1222  0.7808  3.5210
 9283TIP3    H252045   5.578   6.566  12.550  1.1150  0.4596  2.4114
 9284TIP3   OH252046   3.872   2.726  12.315  0.3414 -0.3829  0.1198
 9284TIP3    H152047   3.828   2.809  12.295  1.1940  0.7252  2.4294
 9284TIP3    H252048   3.929   2.710  12.240  1.1419  1.8685  0.1755
 9285TIP3   OH252049   7.412   5.634  12.860 -0.6092  0.0749 -0.1829
 9285TIP3    H152050   7.435   5.542  12.872 -2.9101 -0.3719  1.6960
 9285TIP3    H252051   7.458   5.680  12.930  0.9592  0.4761 -1.4418
 9286TIP3   OH252052   7.106   5.712  12.632  0.0341 -0.2602 -0.2399
 9286TIP3    H152053   7.073   5.790  12.677 -0.1396 -0.8116  0.6000
 9286TIP3    H252054   7.036   5.648  12.639  1.8875 -2.2067  3.4594
 9287TIP3   OH252055   3.252   5.609  12.514  0.0502 -0.3880 -0.0313
 9287TIP3    H152056   3.321   5.565  12.464 -1.4825 -2.3247 -0.6252
 9287TIP3    H252057   3.227   5.545  12.580  1.0319  1.5779  2.3822
 9288TIP3   OH252058   5.655   5.005  11.730  0.4225 -0.1880  0.0514
 9288TIP3    H152059   5.593   4.966  11.668 -0.5088 -0.7606  1.3134
 9288TIP3    H252060   5.739   5.004  11.683  0.0190 -1.8802 -0.7086
 9289TIP3   OH252061   5.718   0.949  11.976  0.1113  0.1655 -0.0058
 9289TIP3    H152062   5.707   0.912  12.064 -0.1486  0.6112  0.1504
 9289TIP3    H252063   5.793   1.008  11.984 -0.2423  0.6077  0.0462
 9290TIP3   OH252064   2.337   0.967  12.953  0.2847  0.1414  0.3684
 9290TIP3    H152065   2.427   0.944  12.975  0.8968  0.5404 -1.4615
 9290TIP3    H252066   2.345   1.053  12.911 -1.0062  0.3468  0.5033
 9291TIP3   OH252067   6.045   2.485  11.685  0.3921  0.1880  0.8168
 9291TIP3    H152068   6.136   2.503  11.662  0.5839 -0.7250  0.8273
 9291TIP3    H252069   5.995   2.518  11.610  0.8037 -0.2140  0.3585
 9292TIP3   OH252070   3.846   0.437  10.897  0.9251 -0.4755  0.7486
 9292TIP3    H152071   3.777   0.430  10.963 -0.0065  0.0615 -0.1377
 9292TIP3    H252072   3.848   0.351  10.856 -1.6976  0.3819 -1.5582
 9293TIP3   OH252073   3.843   5.603  12.472 -0.0402  0.7047 -0.0444
 9293TIP3    H152074   3.827   5.527  12.415 -0.8104  0.9457 -0.1685
 9293TIP3    H252075   3.929   5.587  12.511 -1.3028 -1.6267  2.1013
 9294TIP3   OH252076   0.747   5.136  12.662 -0.9183 -0.1521  0.2610
 9294TIP3    H152077   0.721   5.164  12.750  0.6508  0.2417  0.6294
 9294TIP3    H252078   0.762   5.042  12.670 -1.7258 -0.3006  0.1524
 9295TIP3   OH252079   0.244   1.550  12.003  0.2178  0.8717 -0.2602
 9295TIP3    H152080   0.323   1.498  12.018  0.8569  1.9111  0.0666
 9295TIP3    H252081   0.248   1.575  11.911  0.0831  0.6161 -0.3353
 9296TIP3   OH252082   5.941   4.198  11.811 -0.2274  0.2223  0.1397
 9296TIP3    H152083   5.982   4.267  11.759 -0.9220  0.6594  0.1710
 9296TIP3    H252084   5.967   4.218  11.901  0.3617 -0.1153  0.0567
 9297TIP3   OH252085   1.924   1.654  13.339  0.7331 -0.0364  0.4242
 9297TIP3    H152086   2.005   1.608  13.318  0.0406 -0.7653 -0.7659
 9297TIP3    H252087   1.865   1.632  13.267 -0.8633 -0.3699  1.7874
 9298TIP3   OH252088   0.646   2.855  10.460 -0.4998 -0.0222 -0.2440
 9298TIP3    H152089   0.685   2.939  10.434  0.3281 -0.5839 -0.8781
 9298TIP3    H252090   0.571   2.879  10.514  0.8530  1.1063  1.2291
 9299TIP3   OH252091   1.341   6.895  12.398 -0.4397 -0.4131  0.0908
 9299TIP3    H152092   1.262   6.942  12.425  0.0978 -0.4559  1.9140
 9299TIP3    H252093   1.376   6.945  12.325 -2.2369 -0.4994 -0.8945
 9300TIP3   OH252094   2.011   5.898  10.843  0.3529 -0.0231 -0.2029
 9300TIP3    H152095   1.930   5.902  10.792  0.7441  0.4059 -0.8092
 9300TIP3    H252096   1.983   5.910  10.934 -0.1843  1.0698 -0.4967
 9301TIP3   OH252097   7.566   3.301  11.174 -0.1660  0.3755  0.0921
 9301TIP3    H152098   7.485   3.329  11.130  0.1196 -0.1103 -0.7851
 9301TIP3    H252099   7.583   3.214  11.138 -0.3930 -0.4473  1.8650
 9302TIP3   OH252100   0.313   3.760  10.496  0.3208  0.7208 -0.0575
 9302TIP3    H152101   0.270   3.833  10.451  0.4651  1.9420  1.6870
 9302TIP3    H252102   0.394   3.747  10.447  0.0289  1.3641 -0.7395
 9303TIP3   OH252103   7.051   0.744  11.958 -0.8927 -0.1289 -0.0231
 9303TIP3    H152104   7.136   0.714  11.991  0.1645  1.5465 -1.0731
 9303TIP3    H252105   7.048   0.713  11.867 -0.4557  1.5454 -0.6372
 9304TIP3   OH252106   5.817   3.416  11.611 -0.1400 -0.3730 -0.2494
 9304TIP3    H152107   5.767   3.477  11.666 -0.9412  0.2561 -1.5906
 9304TIP3    H252108   5.894   3.466  11.584  0.1163 -0.5851  0.0929
 9305TIP3   OH252109   4.915   6.961  10.682 -0.1350  0.6276 -0.1473
 9305TIP3    H152110   4.886   7.049  10.704 -1.3029  1.1857 -3.2652
 9305TIP3    H252111   5.006   6.972  10.654 -0.5153  1.0500 -1.2883
 9306TIP3   OH252112   6.099   3.846  11.315 -0.2217  0.3084 -0.0892
 9306TIP3    H152113   6.121   3.856  11.223 -0.9634  3.4239 -0.0417
 9306TIP3    H252114   6.004   3.836  11.316 -0.1363 -0.6039  0.3301
 9307TIP3   OH252115   2.073   1.904  11.524  0.4248 -0.3230  0.5974
 9307TIP3    H152116   2.122   1.927  11.445  1.4169  0.3984  1.3938
 9307TIP3    H252117   2.048   1.988  11.562  1.2095 -0.6017  1.8008
 9308TIP3   OH252118   5.741   2.274  11.259  0.0585  0.2082 -0.9013
 9308TIP3    H152119   5.790   2.205  11.215  0.1245  0.3020 -0.9752
 9308TIP3    H252120   5.655   2.235  11.274  0.2273 -0.0399 -0.5574
 9309TIP3   OH252121   5.189   6.098  12.326 -0.2509 -0.1141  0.3867
 9309TIP3    H152122   5.097   6.099  12.299 -0.2264  1.5685  0.2569
 9309TIP3    H252123   5.204   6.185  12.364  1.4087 -0.1682 -0.0643
 9310TIP3   OH252124   5.069   3.394  11.450  0.2395  0.3352  0.0530
 9310TIP3    H152125   4.986   3.441  11.451  0.9719  1.6705 -0.0439
 9310TIP3    H252126   5.065   3.336  11.526 -0.8975  0.1549 -0.1263
 9311TIP3   OH252127   1.669   4.918  10.638  0.0337 -0.2432 -0.1924
 9311TIP3    H152128   1.628   4.917  10.725 -0.5741  0.0269 -0.4728
 9311TIP3    H252129   1.745   4.860  10.647  0.8605  0.9541  0.9464
 9312TIP3   OH252130   3.780   6.574  12.075 -0.4607 -0.1447 -0.0761
 9312TIP3    H152131   3.812   6.581  12.165  0.2881  0.7865 -0.3912
 9312TIP3    H252132   3.858   6.590  12.021 -1.4042  2.1606 -0.8846
 9313TIP3   OH252133   3.535   4.288  11.527  0.1700  0.1293  0.1635
 9313TIP3    H152134   3.542   4.349  11.453 -0.6981  0.9176  0.7194
 9313TIP3    H252135   3.590   4.327  11.595  2.2964 -1.4267 -0.5727
 9314TIP3   OH252136   2.377   7.445  11.354  0.2554  0.4071  0.6041
 9314TIP3    H152137   2.292   7.488  11.361 -1.1057 -2.2122  2.0959
 9314TIP3    H252138   2.378   7.408  11.266 -0.5113 -0.1144  0.7985
 9315TIP3   OH252139   5.889   6.919  12.412  0.1093  0.1427 -0.5556
 9315TIP3    H152140   5.971   6.939  12.457  0.4807  0.7063 -1.4464
 9315TIP3    H252141   5.838   7.000  12.417 -0.1768 -0.0403 -0.4653
 9316TIP3   OH252142   3.443   1.207  12.181  0.1976 -0.4037  0.0577
 9316TIP3    H152143   3.501   1.269  12.136  1.7725 -2.8432 -1.5084
 9316TIP3    H252144   3.361   1.255  12.192  1.1660  1.7887 -1.4802
 9317TIP3   OH252145   2.156   3.991  11.988  0.0234 -0.2190 -0.0045
 9317TIP3    H152146   2.184   3.928  12.053  1.8732 -0.7134 -1.2105
 9317TIP3    H252147   2.082   3.949  11.943  0.5903 -1.1019 -0.1207
 9318TIP3   OH252148   7.592   7.407  12.654  0.0273  0.0428 -0.5461
 9318TIP3    H152149   7.630   7.480  12.703  1.2401  0.2475 -1.7302
 9318TIP3    H252150   7.518   7.445  12.607 -0.6213  0.0246  0.4123
 9319TIP3   OH252151   5.278   5.712  11.003  0.2161 -0.5754 -0.0727
 9319TIP3    H152152   5.331   5.696  10.925 -1.0820  1.0607 -1.3871
 9319TIP3    H252153   5.222   5.787  10.979 -0.3586 -0.1222  2.3804
 9320TIP3   OH252154   7.347   2.636  11.030  0.2310 -0.5077  0.9189
 9320TIP3    H152155   7.436   2.661  11.055 -0.5332 -0.2228  3.5858
 9320TIP3    H252156   7.323   2.566  11.091 -1.4486 -0.4933  0.3421
 9321TIP3   OH252157   6.033   3.476  11.155  0.3076  0.1761 -0.5152
 9321TIP3    H152158   5.985   3.425  11.090 -0.4048 -1.9618  1.5586
 9321TIP3    H252159   6.093   3.529  11.103 -2.1277  0.7040 -3.0589
 9322TIP3   OH252160   3.215   4.462  12.495 -0.1872 -0.0452 -0.0694
 9322TIP3    H152161   3.289   4.522  12.485  0.7169 -1.4801 -3.1572
 9322TIP3    H252162   3.251   4.386  12.540  0.0387 -0.3620 -0.7618
 9323TIP3   OH252163   4.646   2.648  12.764 -0.3501  0.5786 -0.1202
 9323TIP3    H152164   4.568   2.636  12.709  0.6388  0.7299 -1.5853
 9323TIP3    H252165   4.625   2.601  12.845 -1.5405 -0.2956 -0.9050
 9324TIP3   OH252166   1.268   6.521  10.898  0.3616 -0.0741  0.4670
 9324TIP3    H152167   1.182   6.531  10.939 -0.0752 -0.5923 -0.3004
 9324TIP3    H252168   1.260   6.440  10.847  0.7521  0.7657 -0.9557
 9325TIP3   OH252169   1.353   2.068  10.531  0.4131 -0.2052  0.4784
 9325TIP3    H152170   1.309   2.141  10.487  2.0095 -0.2372 -1.3262
 9325TIP3    H252171   1.443   2.099  10.544  0.2434 -0.5854  2.9295
 9326TIP3   OH252172   1.305   3.333  12.010 -0.0368 -0.3261 -0.0564
 9326TIP3    H152173   1.265   3.416  12.034 -1.3961 -0.4471 -1.7057
 9326TIP3    H252174   1.374   3.357  11.948 -0.5428 -0.4101 -0.6664
 9327TIP3   OH252175   2.689   7.663  11.758  0.5587 -0.1606 -0.2839
 9327TIP3    H152176   2.693   7.735  11.694 -0.3784  0.3882  0.2602
 9327TIP3    H252177   2.693   7.706  11.843  0.9632 -0.8290  0.0407
 9328TIP3   OH252178   0.124   6.905  12.500 -0.2023 -0.3831 -0.8007
 9328TIP3    H152179   0.205   6.855  12.500 -1.7097 -3.0407 -0.0071
 9328TIP3    H252180   0.148   6.991  12.465  3.0078 -0.8643 -0.0721
 9329TIP3   OH252181   2.117   6.063  12.251  0.3896 -0.9104  0.3049
 9329TIP3    H152182   2.103   6.094  12.162 -1.8582 -0.0851  0.8801
 9329TIP3    H252183   2.106   6.141  12.306 -0.7276 -1.8372  1.4566
 9330TIP3   OH252184   0.410   5.814  13.293 -0.7422 -0.4277 -0.5323
 9330TIP3    H152185   0.483   5.860  13.252  0.3296 -0.7849  0.8822
 9330TIP3    H252186   0.332   5.862  13.265  0.2752  2.0017  0.5164
 9331TIP3   OH252187   5.542   3.730  10.954 -0.1073 -0.3571  0.3014
 9331TIP3    H152188   5.518   3.663  11.018 -0.2036  0.0800  0.7287
 9331TIP3    H252189   5.533   3.813  11.001 -0.5600 -0.0013 -0.3844
 9332TIP3   OH252190   6.196   7.506  11.096  0.1479 -0.5756  0.0313
 9332TIP3    H152191   6.167   7.573  11.159 -0.1954  0.5563 -1.2806
 9332TIP3    H252192   6.290   7.496  11.114 -0.1178 -0.9877  1.3429
 9333TIP3   OH252193   4.194   7.554  12.582 -0.6895  0.1084  0.3534
 9333TIP3    H152194   4.263   7.564  12.517 -0.5351  0.3585  0.5508
 9333TIP3    H252195   4.190   7.460  12.599 -0.1310  0.1284  0.6210
 9334TIP3   OH252196   5.452   6.644  11.226 -0.3148  0.5089  0.2271
 9334TIP3    H152197   5.485   6.684  11.306  0.1596  0.5124  0.0355
 9334TIP3    H252198   5.523   6.586  11.197 -1.2642 -1.0346  0.8846
 9335TIP3   OH252199   1.402   0.811  11.105  0.8358  0.1231 -0.0897
 9335TIP3    H152200   1.375   0.774  11.189  0.7393 -0.1171 -0.2230
 9335TIP3    H252201   1.459   0.884  11.127  0.0142  0.6964  0.2007
 9336TIP3   OH252202   4.752   5.712  11.154 -0.0958  0.0413 -0.2009
 9336TIP3    H152203   4.788   5.626  11.131  0.6565  0.2331  0.2206
 9336TIP3    H252204   4.780   5.726  11.245  0.5461  1.1170 -0.5516
 9337TIP3   OH252205   5.777   2.863  11.701  0.2423  0.0097 -0.2186
 9337TIP3    H152206   5.820   2.809  11.635  2.5787  2.0352 -0.5171
 9337TIP3    H252207   5.820   2.839  11.783  2.7603  2.5142 -0.6103
 9338TIP3   OH252208   6.091   6.583  11.268 -0.3108 -0.9850  0.3718
 9338TIP3    H152209   6.004   6.554  11.297 -0.4765 -0.5191  0.3446
 9338TIP3    H252210   6.105   6.666  11.313 -0.1068 -0.7939 -0.0415
 9339TIP3   OH252211   0.169   7.143  11.111 -0.1263  0.6371 -0.2716
 9339TIP3    H152212   0.103   7.163  11.045 -1.7263 -1.1441  0.6944
 9339TIP3    H252213   0.231   7.086  11.067  0.4739  1.8274 -1.0157
 9340TIP3   OH252214   2.692   5.690  10.542  0.2393  0.2903 -0.2587
 9340TIP3    H152215   2.781   5.723  10.555  0.4864 -0.9196  1.4806
 9340TIP3    H252216   2.670   5.648  10.625 -2.3486  1.4145 -0.2769
 9341TIP3   OH252217   4.965   2.010  12.626 -0.1110 -0.0678 -0.6171
 9341TIP3    H152218   4.900   2.065  12.671 -1.0120 -0.2018 -1.6975
 9341TIP3    H252219   4.913   1.957  12.565  0.7850 -1.7688  0.0358
 9342TIP3   OH252220   6.716   6.814  10.460  0.3213  0.3928  0.3002
 9342TIP3    H152221   6.728   6.719  10.463  0.9365  0.4230 -0.6425
 9342TIP3    H252222   6.803   6.848  10.438 -0.5958  0.9111 -3.0667
 9343TIP3   OH252223   0.315   7.472  12.587 -0.2038  0.2562  0.1078
 9343TIP3    H152224   0.305   7.474  12.682  0.6294  1.3210  0.1946
 9343TIP3    H252225   0.233   7.509  12.554 -0.6219 -0.3971  0.3848
 9344TIP3   OH252226   7.052   5.856  13.547  0.0005  0.1962  0.3263
 9344TIP3    H152227   6.964   5.830  13.518  0.2094 -3.2151  2.2718
 9344TIP3    H252228   7.038   5.895  13.633  0.4208 -1.0847  0.9895
 9345TIP3   OH252229   5.640   5.740  12.221 -0.4962  0.0266 -0.1805
 9345TIP3    H152230   5.677   5.720  12.135  0.2662 -0.1239  0.1708
 9345TIP3    H252231   5.713   5.727  12.282 -1.2724 -0.7986  0.6016
 9346TIP3   OH252232   1.892   4.745  11.981  0.0589 -0.0120  0.4431
 9346TIP3    H152233   1.970   4.800  11.974  1.5364 -2.0990 -0.3721
 9346TIP3    H252234   1.875   4.740  12.075 -0.5594  2.3114  0.5364
 9347TIP3   OH252235   1.129   3.933  11.557  0.5381  0.0459 -0.4975
 9347TIP3    H152236   1.190   3.938  11.483  0.8599  1.7264 -0.1683
 9347TIP3    H252237   1.062   3.998  11.537 -0.8460 -1.3414 -0.5505
 9348TIP3   OH252238   0.148   1.038  10.854 -0.6508 -0.0330  0.4350
 9348TIP3    H152239   0.080   1.092  10.813 -0.3684  0.0411  0.0628
 9348TIP3    H252240   0.124   0.948  10.831  0.0063  0.0578 -0.6705
 9349TIP3   OH252241   2.392   2.212  11.084 -0.7145  0.1442  0.5523
 9349TIP3    H152242   2.469   2.270  11.077 -1.2269  0.6905 -0.7228
 9349TIP3    H252243   2.429   2.125  11.097  0.1057  0.4885  0.6036
 9350TIP3   OH252244   3.556   4.837  10.855 -0.3134 -0.1535  0.3951
 9350TIP3    H152245   3.632   4.872  10.901 -0.1421  0.1525 -0.1111
 9350TIP3    H252246   3.590   4.810  10.769 -0.8661  0.4898 -0.0396
 9351TIP3   OH252247   5.514   5.827  11.131  0.2832 -0.2664 -0.0051
 9351TIP3    H152248   5.541   5.876  11.054  1.1935  0.6901  0.8960
 9351TIP3    H252249   5.435   5.781  11.103  0.4347  0.2758 -1.4165
 9352TIP3   OH252250   7.259   2.034  11.304  0.2307 -0.3273 -0.0677
 9352TIP3    H152251   7.336   2.084  11.329  0.6715 -0.2692 -1.4674
 9352TIP3    H252252   7.210   2.092  11.247 -1.2851 -0.0706  1.4209
 9353TIP3   OH252253   5.374   3.086  12.543 -0.1200 -0.4364 -0.3011
 9353TIP3    H152254   5.409   2.997  12.536 -1.1504 -0.8413 -0.3779
 9353TIP3    H252255   5.298   3.087  12.485 -0.1528  0.4844 -0.2572
 9354TIP3   OH252256   2.318   0.486  11.383  0.4347 -0.6775  0.1135
 9354TIP3    H152257   2.307   0.421  11.314 -0.9824 -1.0944  0.6879
 9354TIP3    H252258   2.257   0.459  11.452 -0.4070  1.3892  0.2721
 9355TIP3   OH252259   4.630   1.794  10.572 -0.1321  0.2771 -0.3960
 9355TIP3    H152260   4.577   1.862  10.531  0.9456  1.5902  0.3383
 9355TIP3    H252261   4.574   1.716  10.569 -0.6413  0.6280 -3.0868
 9356TIP3   OH252262   1.861   4.051  12.663 -0.3120  0.2389 -0.5433
 9356TIP3    H152263   1.867   4.069  12.757 -0.7467  2.0317 -0.8123
 9356TIP3    H252264   1.941   4.088  12.627 -1.4494  2.2581 -1.1871
 9357TIP3   OH252265   5.437   6.916  10.578  1.0351  0.7488  0.2560
 9357TIP3    H152266   5.477   6.860  10.512  1.1748  0.1499  0.8480
 9357TIP3    H252267   5.463   6.878  10.662  1.1505  1.7058  0.6671
 9358TIP3   OH252268   1.786   5.973  13.054 -0.2136 -0.1460 -0.0258
 9358TIP3    H152269   1.836   6.010  12.981  1.2597 -0.6878  0.6719
 9358TIP3    H252270   1.740   6.048  13.092  0.7479  0.5294 -0.1675
 9359TIP3   OH252271   0.943   2.895  12.247 -0.1586 -0.4996  0.0953
 9359TIP3    H152272   0.889   2.854  12.179  0.3046 -0.7975 -0.0999
 9359TIP3    H252273   0.920   2.987  12.244 -0.7461 -0.6444  0.0975
 9360TIP3   OH252274   5.179   2.810  13.261  0.1204  0.5752 -0.1140
 9360TIP3    H152275   5.215   2.849  13.341  0.2797  1.1677 -0.4705
 9360TIP3    H252276   5.202   2.717  13.268 -0.4253  0.4945  0.8289
 9361TIP3   OH252277   6.913   4.898  13.938  0.6479 -0.2172  0.5545
 9361TIP3    H152278   6.934   4.805  13.943 -1.7593 -0.7887  1.6466
 9361TIP3    H252279   6.974   4.934  13.874  0.6033 -2.8498 -1.0970
 9362TIP3   OH252280   4.768   1.690  11.315  0.2455 -0.1231 -0.1164
 9362TIP3    H152281   4.791   1.696  11.408  1.8757  0.2606 -0.5095
 9362TIP3    H252282   4.672   1.695  11.314  0.2057  0.2306  1.5120
 9363TIP3   OH252283   1.362   2.726  13.230 -0.2975  0.1890  0.1787
 9363TIP3    H152284   1.457   2.720  13.221 -0.1214  0.3409  1.6635
 9363TIP3    H252285   1.341   2.670  13.305 -1.1507  1.5266  0.9856
 9364TIP3   OH252286   2.163   1.378  11.180 -0.5764 -0.1759 -0.0405
 9364TIP3    H152287   2.216   1.346  11.253 -0.3286 -2.5383 -1.1950
 9364TIP3    H252288   2.093   1.428  11.223 -0.8158 -2.0331  1.9076
 9365TIP3   OH252289   4.732   3.082  11.328  0.2990  0.8439 -0.1178
 9365TIP3    H152290   4.809   3.126  11.293  1.2455 -0.3850  0.3397
 9365TIP3    H252291   4.729   3.106  11.420  1.0224 -0.2851  0.2169
 9366TIP3   OH252292   2.889   1.666  10.282  0.1467 -0.8001  0.7657
 9366TIP3    H152293   2.854   1.596  10.226  0.9478 -0.7563  0.1830
 9366TIP3    H252294   2.848   1.746  10.249  1.8836 -0.5346 -0.9497
 9367TIP3   OH252295   5.695   0.811  12.739 -0.4318 -0.3001  0.5323
 9367TIP3    H152296   5.734   0.730  12.706  0.0901 -0.4540  1.4861
 9367TIP3    H252297   5.612   0.783  12.778 -0.3698 -0.3361  0.6375
 9368TIP3   OH252298   3.945   4.643  11.581  0.3130  0.0748 -0.5435
 9368TIP3    H152299   3.964   4.597  11.663 -2.3308 -1.5238 -0.7330
 9368TIP3    H252300   3.954   4.736  11.603  0.5576 -0.3527  1.2975
 9369TIP3   OH252301   4.686   3.773  11.121  0.0651  0.2298  0.2579
 9369TIP3    H152302   4.777   3.768  11.150 -0.0410  0.9505  0.7241
 9369TIP3    H252303   4.682   3.851  11.067 -0.4499  0.6344  0.8692
 9370TIP3   OH252304   3.589   0.055  12.605  0.2007  0.2921  0.4826
 9370TIP3    H152305   3.645  -0.019  12.630 -1.2168 -0.7591  0.6991
 9370TIP3    H252306   3.588   0.111  12.682  1.6378  0.7701  0.1639
 9371TIP3   OH252307   1.024   2.644  12.047  0.0403  0.2840  0.2729
 9371TIP3    H152308   0.930   2.659  12.050  0.2120  1.5861 -0.1842
 9371TIP3    H252309   1.037   2.580  11.978 -0.5923 -0.7502  1.0898
 9372TIP3   OH252310   2.014   1.494  10.461 -0.1765 -0.3617  0.4680
 9372TIP3    H152311   1.947   1.427  10.480 -1.0095  0.1937 -0.3912
 9372TIP3    H252312   2.063   1.503  10.542 -0.3101 -1.7261  0.7235
 9373TIP3   OH252313   0.878   7.520  11.885  0.1305 -0.0413  0.5336
 9373TIP3    H152314   0.965   7.507  11.846  1.0453  0.3451  2.3159
 9373TIP3    H252315   0.869   7.447  11.947 -0.7322  0.0611  0.5411
 9374TIP3   OH252316   5.543   2.152  12.312 -0.2700 -0.5549 -1.4117
 9374TIP3    H152317   5.518   2.122  12.400 -0.3316  2.4196 -0.3000
 9374TIP3    H252318   5.461   2.151  12.263 -1.2127  1.9053 -0.0498
 9375TIP3   OH252319   4.835   4.808  12.193 -0.0164  0.2702 -0.2874
 9375TIP3    H152320   4.756   4.789  12.142  0.0367  1.9162 -1.0493
 9375TIP3    H252321   4.881   4.724  12.197 -0.0857  0.0305 -2.8807
 9376TIP3   OH252322   2.277   4.224  10.306  0.2841  0.0761 -0.6614
 9376TIP3    H152323   2.211   4.223  10.375  0.5667 -0.8562 -0.3807
 9376TIP3    H252324   2.296   4.316  10.291 -0.7564  0.3363 -0.4340
 9377TIP3   OH252325   4.141   3.116  11.569 -0.0571  0.5764  0.1631
 9377TIP3    H152326   4.085   3.191  11.555 -1.7065 -0.3845  1.2823
 9377TIP3    H252327   4.135   3.066  11.488 -0.2080  0.8616 -0.0034
 9378TIP3   OH252328   0.442   0.232  12.519 -0.0866 -0.2729  0.4203
 9378TIP3    H152329   0.347   0.234  12.523 -0.0996  2.0907  0.6716
 9378TIP3    H252330   0.471   0.239  12.610  0.2337  1.7585  0.2207
 9379TIP3   OH252331   7.471   0.515  13.022  0.5361  0.3689 -0.3287
 9379TIP3    H152332   7.532   0.589  13.017 -0.5181  1.2926  0.1928
 9379TIP3    H252333   7.403   0.534  12.958  1.6882 -1.5714 -2.2614
 9380TIP3   OH252334   6.149   5.850  11.949  0.5082  0.7510 -0.4659
 9380TIP3    H152335   6.134   5.884  12.037  0.9277 -1.3156  0.4600
 9380TIP3    H252336   6.062   5.844  11.910  0.0796 -0.2588  0.5931
 9381TIP3   OH252337   3.537   3.784  11.831 -0.0859  0.4071 -0.8349
 9381TIP3    H152338   3.513   3.691  11.833 -1.8297  0.8377  0.4675
 9381TIP3    H252339   3.469   3.824  11.776  0.7437  0.9215 -1.5114
 9382TIP3   OH252340   3.303   0.274  11.827  0.6618  0.5644  0.3564
 9382TIP3    H152341   3.349   0.321  11.757  1.0224 -1.1154 -0.5779
 9382TIP3    H252342   3.365   0.207  11.855  0.0889  0.5076  1.5462
 9383TIP3   OH252343   2.361   1.760  12.142 -0.0751  0.1759 -0.2745
 9383TIP3    H152344   2.295   1.704  12.183 -1.2070  1.6219 -0.0118
 9383TIP3    H252345   2.429   1.770  12.208 -0.0924 -0.4777 -0.1487
 9384TIP3   OH252346   5.259   7.068  10.895  0.2055  0.2414  0.0196
 9384TIP3    H152347   5.273   6.974  10.904  1.6628  0.2487 -1.6416
 9384TIP3    H252348   5.234   7.097  10.983 -0.7571 -1.7396  0.4601
 9385TIP3   OH252349   6.586   4.591  10.673 -0.3837 -0.6238  0.5629
 9385TIP3    H152350   6.679   4.580  10.691 -0.4010 -2.0625 -0.1312
 9385TIP3    H252351   6.572   4.546  10.590 -2.0333 -1.9382  1.4908
 9386TIP3   OH252352   7.158   4.766  13.804 -0.0190  0.0364 -0.1150
 9386TIP3    H152353   7.219   4.782  13.733 -1.1241  1.2240 -0.8412
 9386TIP3    H252354   7.180   4.678  13.836  1.8114  0.2984 -0.5604
 9387TIP3   OH252355   6.457   5.101  12.765 -0.5424 -0.2713  0.1173
 9387TIP3    H152356   6.517   5.133  12.833 -0.7265 -0.0148  0.1613
 9387TIP3    H252357   6.419   5.021  12.802  1.1676 -1.5158 -0.6537
 9388TIP3   OH252358   4.234   4.291  11.019  0.5247  0.1258  0.3462
 9388TIP3    H152359   4.269   4.370  11.061  2.1566 -0.4475  0.1307
 9388TIP3    H252360   4.248   4.305  10.925 -2.4001  1.0640 -0.0668
 9389TIP3   OH252361   4.371   7.571  10.774 -0.5116  0.3555 -0.0815
 9389TIP3    H152362   4.285   7.530  10.789 -0.2140 -0.4748 -0.5929
 9389TIP3    H252363   4.406   7.527  10.697  0.8905 -0.1618  0.8053
 9390TIP3   OH252364   4.134   4.873  11.381  0.2515  0.3251 -0.2929
 9390TIP3    H152365   4.131   4.872  11.285 -3.2558 -0.3274 -0.3167
 9390TIP3    H252366   4.104   4.960  11.405  2.1068  0.8402  0.2812
 9391TIP3   OH252367   2.607   4.278  12.309  0.0951  0.4859  0.1537
 9391TIP3    H152368   2.522   4.320  12.297  0.8649  1.4836 -2.4519
 9391TIP3    H252369   2.588   4.198  12.357 -2.4774  0.1232 -1.3203
 9392TIP3   OH252370   6.587   4.839  13.011 -0.5901 -0.1650  0.2143
 9392TIP3    H152371   6.598   4.823  12.918  0.6972 -0.7144  0.4469
 9392TIP3    H252372   6.492   4.848  13.023 -0.8361 -0.9926 -0.9909
 9393TIP3   OH252373   4.006   3.017  13.370 -0.2505  0.2879 -0.1446
 9393TIP3    H152374   4.039   2.936  13.410  1.1195 -0.1680 -2.0425
 9393TIP3    H252375   3.917   3.025  13.403 -0.5103 -2.1195 -0.0592
 9394TIP3   OH252376   2.101   1.129  10.376  0.0899  1.2409 -0.3685
 9394TIP3    H152377   2.188   1.096  10.354 -0.1328  1.4236 -1.6111
 9394TIP3    H252378   2.043   1.086  10.313 -0.6895  1.2926  0.3051
 9395TIP3   OH252379   3.459   3.953  10.761  0.5161  0.2638 -0.1500
 9395TIP3    H152380   3.486   3.977  10.672 -0.3798  0.3620 -0.4111
 9395TIP3    H252381   3.494   4.022  10.817 -1.9109  2.2382 -0.8760
 9396TIP3   OH252382   5.731   6.815  11.250  0.3292 -0.5961 -0.2814
 9396TIP3    H152383   5.730   6.736  11.304  0.8046 -0.8809 -0.6814
 9396TIP3    H252384   5.746   6.886  11.312  2.4894 -1.0697 -0.1913
 9397TIP3   OH252385   5.466   2.055  12.543 -0.2488  0.1254  0.0183
 9397TIP3    H152386   5.388   2.088  12.589 -1.6083 -0.0879 -2.0275
 9397TIP3    H252387   5.507   1.995  12.607 -1.4632  0.6215  1.3246
 9398TIP3   OH252388   1.563   2.748  10.626 -0.1305  0.2606  0.0573
 9398TIP3    H152389   1.468   2.736  10.632 -0.0112 -0.5324  0.4626
 9398TIP3    H252390   1.574   2.813  10.557 -0.8954 -1.3992 -1.7556
 9399TIP3   OH252391   4.338   2.505  10.460  0.5527  0.0163 -0.1088
 9399TIP3    H152392   4.309   2.595  10.474  0.1034 -0.4139  1.9736
 9399TIP3    H252393   4.421   2.514  10.413  0.5648  1.5231  0.1502
 9400TIP3   OH252394   3.203   3.896  11.338  0.2053  0.1619 -0.4503
 9400TIP3    H152395   3.147   3.969  11.312 -1.5352 -0.3119  1.6344
 9400TIP3    H252396   3.290   3.919  11.307 -0.1881  3.3385  0.4651
 9401TIP3   OH252397   3.062   2.189  11.426  0.1871 -0.0009  0.0604
 9401TIP3    H152398   3.006   2.250  11.475  0.6500 -0.3281  1.0207
 9401TIP3    H252399   3.012   2.170  11.347 -1.8152 -1.4698  1.5702
 9402TIP3   OH252400   1.167   3.434  10.475 -0.3879 -0.3144 -0.4303
 9402TIP3    H152401   1.193   3.349  10.440 -1.2976 -0.3704 -1.0169
 9402TIP3    H252402   1.219   3.445  10.555 -0.2402 -1.4029 -0.3691
 9403TIP3   OH252403   7.635   6.322  12.493 -0.0239 -0.0817  0.0430
 9403TIP3    H152404   7.679   6.259  12.550  0.2535  0.9385  0.9906
 9403TIP3    H252405   7.657   6.408  12.530 -3.4635  0.5111  1.1251
 9404TIP3   OH252406   0.053   5.647  12.055  0.4251  0.1975 -0.6746
 9404TIP3    H152407  -0.033   5.645  12.012  1.3965  0.2378 -2.7575
 9404TIP3    H252408   0.095   5.726  12.020  2.0882 -0.9433 -1.3757
 9405TIP3   OH252409   2.377   2.024  11.392 -0.4841 -0.2567 -0.5122
 9405TIP3    H152410   2.415   1.979  11.468  0.7134 -0.4354 -1.1969
 9405TIP3    H252411   2.407   1.973  11.317 -1.9264 -0.2749 -1.1013
 9406TIP3   OH252412   4.051   2.301  13.169  0.1122  0.0003 -0.4202
 9406TIP3    H152413   4.002   2.271  13.246  1.2341 -0.4195  0.1468
 9406TIP3    H252414   4.142   2.301  13.197  0.7618 -1.8628 -2.2767
 9407TIP3   OH252415   2.693   5.324  10.510 -0.3765 -0.2639  0.4379
 9407TIP3    H152416   2.654   5.373  10.437 -1.4380 -0.2991  0.9657
 9407TIP3    H252417   2.689   5.384  10.584  0.2283 -0.4103  0.5899
 9408TIP3   OH252418   1.791   4.081  11.598  0.3324 -0.6453 -0.4506
 9408TIP3    H152419   1.749   4.090  11.684  3.5786  0.7081  1.1723
 9408TIP3    H252420   1.777   3.989  11.574 -0.8261 -1.0181  1.4232
 9409TIP3   OH252421   5.823   3.095  11.838  0.0650  0.6118  0.0569
 9409TIP3    H152422   5.808   3.168  11.777 -0.1743  0.0174 -0.5995
 9409TIP3    H252423   5.806   3.017  11.786  1.2622  0.0473  0.4893
 9410TIP3   OH252424   0.707   5.562  10.896 -0.2184 -0.1050  0.3529
 9410TIP3    H152425   0.641   5.493  10.894 -1.6202  1.1766 -0.0640
 9410TIP3    H252426   0.675   5.627  10.834  0.2538  1.6025  1.8070
 9411TIP3   OH252427   5.514   2.697  11.743 -0.0364  0.3074 -0.1765
 9411TIP3    H152428   5.444   2.719  11.805  0.7775  0.2609  0.7881
 9411TIP3    H252429   5.523   2.775  11.689 -1.4850 -0.0374 -0.9746
 9412TIP3   OH252430   4.274   2.713  12.193  0.0642  0.1209  0.1140
 9412TIP3    H152431   4.337   2.734  12.125 -0.8205  0.3393 -0.6557
 9412TIP3    H252432   4.268   2.618  12.192  0.6448  0.0770  0.4418
 9413TIP3   OH252433   5.446   2.545  11.023  0.3707 -0.1562 -0.0410
 9413TIP3    H152434   5.353   2.536  11.046  0.4234 -1.1362 -0.1482
 9413TIP3    H252435   5.489   2.573  11.103  0.0302 -0.0352  0.1004
 9414TIP3   OH252436   4.695   3.238  13.179  0.2114 -0.1283 -1.1012
 9414TIP3    H152437   4.671   3.176  13.248  0.4475 -0.5577 -1.4065
 9414TIP3    H252438   4.615   3.248  13.127 -0.2448  0.8837 -0.2568
 9415TIP3   OH252439   2.575   2.381  12.297 -0.5148 -0.0703 -0.2902
 9415TIP3    H152440   2.610   2.470  12.295 -1.5994  0.3665 -0.1281
 9415TIP3    H252441   2.571   2.355  12.205  0.4843 -0.2320 -0.2957
 9416TIP3   OH252442   6.390   5.921  11.820 -0.4002  0.1396 -0.5618
 9416TIP3    H152443   6.303   5.926  11.860  0.0095 -0.2783  0.4183
 9416TIP3    H252444   6.446   5.976  11.875  0.2500 -0.7360 -0.3175
 9417TIP3   OH252445   6.805   2.372  12.497  0.3875 -0.5170 -0.3109
 9417TIP3    H152446   6.766   2.290  12.468 -2.2120  0.8226 -0.8826
 9417TIP3    H252447   6.880   2.385  12.439  1.3483 -2.8077  0.3050
 9418TIP3   OH252448   6.510   7.129  12.465 -0.4233  0.6971  0.2303
 9418TIP3    H152449   6.545   7.091  12.546 -0.1474 -0.2130 -0.3068
 9418TIP3    H252450   6.537   7.221  12.469  0.9515  0.3073  0.4403
 9419TIP3   OH252451   3.095   5.707  11.830  0.2029 -0.8184  0.1344
 9419TIP3    H152452   3.181   5.666  11.819  0.3216 -0.2926 -1.0287
 9419TIP3    H252453   3.072   5.739  11.743 -1.6049 -1.7704  0.1991
 9420TIP3   OH252454   6.455   1.724  10.714  0.4002  0.5646  0.1290
 9420TIP3    H152455   6.433   1.760  10.628 -1.3903  0.7978  0.6245
 9420TIP3    H252456   6.383   1.663  10.733  2.3377 -1.8792  0.1514
 9421TIP3   OH252457   3.074   1.512  10.750 -0.3544 -0.4372 -0.1351
 9421TIP3    H152458   3.007   1.447  10.771 -0.7147 -1.0329 -2.8453
 9421TIP3    H252459   3.148   1.461  10.716  1.1413  0.2979  1.7941
 9422TIP3   OH252460   4.621   4.914  12.380 -0.3413  0.6340  0.3574
 9422TIP3    H152461   4.674   4.876  12.310 -2.0676 -1.1954 -0.0341
 9422TIP3    H252462   4.557   4.969  12.335 -0.8152  0.2700  0.5845
 9423TIP3   OH252463   6.002   2.522  10.229 -0.1819 -0.3842  0.0854
 9423TIP3    H152464   5.981   2.578  10.304 -0.9912 -0.3374 -0.1583
 9423TIP3    H252465   5.925   2.465  10.221  0.0562 -0.6260 -0.4904
 9424TIP3   OH252466   3.095   7.054  11.212  0.0312  0.1973  0.8838
 9424TIP3    H152467   3.065   7.128  11.160  0.8464  0.3313  0.5913
 9424TIP3    H252468   3.022   6.992  11.209 -0.0608  0.3305 -0.1592
 9425TIP3   OH252469   1.183   5.480  12.521 -0.3425  0.5364  0.4126
 9425TIP3    H152470   1.256   5.458  12.578  0.1325 -0.0211 -0.3965
 9425TIP3    H252471   1.107   5.480  12.579  0.2747  1.0741  1.2558
 9426TIP3   OH252472   6.636   4.730  11.824  0.9241  0.2174  0.4768
 9426TIP3    H152473   6.657   4.811  11.779  1.0489  1.8010  3.1799
 9426TIP3    H252474   6.705   4.721  11.890 -0.3213 -0.8652  1.6986
 9427TIP3   OH252475   0.464   5.028  11.669 -0.0484 -0.0991  0.4890
 9427TIP3    H152476   0.516   5.106  11.651 -0.0109 -0.4258 -0.8993
 9427TIP3    H252477   0.380   5.061  11.700  0.0132  0.4964  0.0334
 9428TIP3   OH252478   4.346   3.256  12.094 -0.4222  0.0507  0.3699
 9428TIP3    H152479   4.262   3.251  12.140 -0.2627 -0.1880  0.6430
 9428TIP3    H252480   4.367   3.165  12.072 -0.2670  0.1158  0.2453
 9429TIP3   OH252481   0.856   7.323  12.064 -0.7841  0.3637  0.0532
 9429TIP3    H152482   0.895   7.252  12.115 -2.8767 -0.6124  0.3956
 9429TIP3    H252483   0.783   7.354  12.117 -1.9464  0.5083 -1.5387
 9430TIP3   OH252484   6.161   0.826  12.775  0.0276 -0.0575  0.3273
 9430TIP3    H152485   6.197   0.914  12.784  0.5259 -0.2597  0.3686
 9430TIP3    H252486   6.069   0.835  12.800 -0.0103  0.5124  0.0056
 9431TIP3   OH252487   4.254   3.687  11.885  0.4895  0.3029  0.0219
 9431TIP3    H152488   4.309   3.618  11.846  0.9741  0.6223  0.1298
 9431TIP3    H252489   4.296   3.769  11.858 -0.8118  0.6091 -1.1876
 9432TIP3   OH252490   6.998   3.509  12.736  0.2901 -0.2690  0.2442
 9432TIP3    H152491   6.914   3.521  12.780 -1.1387  0.6950 -2.4922
 9432TIP3    H252492   7.027   3.598  12.715  0.8460 -0.6830 -0.8088
 9433TIP3   OH252493   2.183   6.645  12.063 -0.3690 -0.2954 -0.2256
 9433TIP3    H152494   2.256   6.674  12.119  0.0895  2.2479 -1.9603
 9433TIP3    H252495   2.224   6.597  11.992 -0.2550  1.5231 -1.4457
 9434TIP3   OH252496   2.401   5.392  12.371  0.7050 -0.1250 -0.9598
 9434TIP3    H152497   2.413   5.305  12.409 -1.2338  0.4396  1.1894
 9434TIP3    H252498   2.422   5.381  12.278  0.7992 -2.7869 -0.7070
 9435TIP3   OH252499   4.485   6.961  10.736  0.2208 -0.0065  0.3144
 9435TIP3    H152500   4.508   7.053  10.753  1.0958  0.0688 -1.0521
 9435TIP3    H252501   4.397   6.965  10.699  0.2776  0.2964  0.2046
 9436TIP3   OH252502   3.151   2.375  11.159  0.4618  0.3047 -0.2036
 9436TIP3    H152503   3.204   2.381  11.238  0.6760  0.4865 -0.3559
 9436TIP3    H252504   3.061   2.388  11.188  0.4766 -0.2467  0.0913
 9437TIP3   OH252505   2.770   4.112  11.369  0.2879 -0.7201  1.1260
 9437TIP3    H152506   2.764   4.146  11.458 -0.7124  1.0329  0.4425
 9437TIP3    H252507   2.679   4.098  11.343  0.3402  1.5741 -0.5884
 9438TIP3   OH252508   6.933   1.250  12.374 -0.4664  0.6971 -0.2209
 9438TIP3    H152509   6.861   1.311  12.391 -1.0983  0.0292 -0.4085
 9438TIP3    H252510   6.933   1.193  12.451 -0.1366  0.6939 -0.2255
 9439TIP3   OH252511   3.533   3.537  12.134  0.4792 -0.1579 -0.0888
 9439TIP3    H152512   3.576   3.622  12.147  0.6012 -0.1157 -0.7386
 9439TIP3    H252513   3.497   3.542  12.045  0.0108 -0.5814  0.0736
 9440TIP3   OH252514   5.359   0.940  12.867 -0.0822  0.4072  0.5652
 9440TIP3    H152515   5.419   0.865  12.874 -0.9785 -0.2930  1.0491
 9440TIP3    H252516   5.320   0.947  12.954 -1.0711  0.5184  0.1271
 9441TIP3   OH252517   2.914   4.413  13.184  0.2794 -0.1862 -0.2114
 9441TIP3    H152518   2.971   4.489  13.170  0.2089 -0.5576 -3.1158
 9441TIP3    H252519   2.826   4.451  13.192  0.5717  0.1986  1.4608
 9442TIP3   OH252520   3.875   6.950  12.108 -0.4851 -0.3513 -0.4417
 9442TIP3    H152521   3.788   6.974  12.139  0.6981  2.2105  1.1979
 9442TIP3    H252522   3.926   6.933  12.187  1.2496  1.2022 -1.1256
 9443TIP3   OH252523   5.513   2.854  12.570  0.2204 -0.5443 -0.0234
 9443TIP3    H152524   5.571   2.833  12.497  1.0257  0.1900  0.3752
 9443TIP3    H252525   5.539   2.794  12.640  0.8429  0.1010  0.3117
 9444TIP3   OH252526   6.991   6.396  11.081 -0.4361  0.1037 -0.1609
 9444TIP3    H152527   6.939   6.476  11.097  0.0546  0.0509  2.1472
 9444TIP3    H252528   6.961   6.365  10.996 -1.2903  2.2637 -0.7366
 9445TIP3   OH252529   0.434   0.289  12.221 -0.1989 -0.1096 -0.0470
 9445TIP3    H152530   0.499   0.311  12.155  0.2261 -1.6524 -0.1998
 9445TIP3    H252531   0.486   0.261  12.297 -0.6695 -0.8886 -0.0015
 9446TIP3   OH252532   3.043   2.617  10.783 -0.9478  0.4033 -0.3033
 9446TIP3    H152533   3.062   2.538  10.834  0.3160  0.3640 -0.8044
 9446TIP3    H252534   3.007   2.585  10.701 -0.2225  0.3254 -0.5973
 9447TIP3   OH252535   1.433   2.623  12.576  0.1625  0.4547  0.0978
 9447TIP3    H152536   1.408   2.694  12.517  1.3806 -0.0366 -1.0579
 9447TIP3    H252537   1.353   2.602  12.623 -0.6842  1.3154 -0.9077
 9448TIP3   OH252538   1.493   2.754  11.179 -0.1858 -0.0642  0.1022
 9448TIP3    H152539   1.577   2.797  11.163 -0.2650 -0.0386 -0.2647
 9448TIP3    H252540   1.511   2.660  11.167 -0.0656 -0.1132  0.6675
 9449TIP3   OH252541   6.258   2.372  10.941 -0.4389 -0.0453  0.3305
 9449TIP3    H152542   6.209   2.345  10.864 -0.2963  0.3140  0.1129
 9449TIP3    H252543   6.292   2.459  10.919 -0.6259  0.1819  0.8943
 9450TIP3   OH252544   7.506   4.922  10.902  0.3579  0.5029  0.2518
 9450TIP3    H152545   7.599   4.917  10.879  0.4244  0.1522  0.5778
 9450TIP3    H252546   7.463   4.953  10.823  0.3923 -1.9238 -0.8082
 9451TIP3   OH252547   6.418   6.014  12.595  0.3830 -0.3005  0.6478
 9451TIP3    H152548   6.394   5.944  12.656  0.5419  0.8005  2.0127
 9451TIP3    H252549   6.491   6.058  12.637  0.5236  0.4720 -0.3755
 9452TIP3   OH252550   3.006   3.508  12.987 -0.1898  0.2932  0.0541
 9452TIP3    H152551   3.098   3.482  12.984 -0.1827  0.4291 -1.5225
 9452TIP3    H252552   3.007   3.592  13.033  0.4178  0.1074  0.3993
 9453TIP3   OH252553   7.492   3.902  13.339  0.3554  0.0487  0.2871
 9453TIP3    H152554   7.569   3.927  13.288  0.0606  0.6608  0.1391
 9453TIP3    H252555   7.508   3.810  13.362 -0.1725 -0.6847 -2.0982
 9454TIP3   OH252556   0.993   4.123  12.321 -0.8134 -0.2243  0.2479
 9454TIP3    H152557   0.987   4.072  12.401 -0.9867 -0.4105  0.1162
 9454TIP3    H252558   1.052   4.195  12.343 -0.8414 -0.2876  0.5339
 9455TIP3   OH252559   5.559   6.635  10.527  0.4174  0.1277 -0.1997
 9455TIP3    H152560   5.519   6.595  10.604 -0.5437 -1.0629 -1.2911
 9455TIP3    H252561   5.645   6.665  10.558  0.0416 -0.2806  1.3286
 9456TIP3   OH252562   6.070   5.417  11.430  0.5740 -0.3145  0.3634
 9456TIP3    H152563   6.041   5.349  11.370  3.4227 -0.2711 -1.2417
 9456TIP3    H252564   5.990   5.460  11.459 -1.0669 -2.0474 -1.3377
 9457TIP3   OH252565   6.411   4.780  11.996  0.3527 -0.1490  0.1236
 9457TIP3    H152566   6.402   4.693  12.036  0.6542  0.0712  0.6802
 9457TIP3    H252567   6.490   4.775  11.942 -0.5256 -0.7099 -1.1561
 9458TIP3   OH252568   1.397   3.208  13.296 -0.3517 -0.0730  0.0220
 9458TIP3    H152569   1.461   3.138  13.300 -0.7859 -0.5520 -0.9823
 9458TIP3    H252570   1.448   3.286  13.274  0.0444 -0.1850  0.5134
 9459TIP3   OH252571   7.361   7.621  10.763 -0.4179 -0.4948 -0.5815
 9459TIP3    H152572   7.447   7.653  10.734 -1.2417  0.1486 -2.5130
 9459TIP3    H252573   7.380   7.542  10.814  1.3377 -0.0916 -0.5512
 9460TIP3   OH252574   4.932   4.105  11.997  0.5317 -1.2614 -0.0232
 9460TIP3    H152575   4.928   4.192  11.959 -1.0876 -0.2752  2.1507
 9460TIP3    H252576   5.015   4.103  12.044  0.2073 -0.5480  0.6029
 9461TIP3   OH252577   1.095   7.522  10.990 -0.1397 -0.1711 -0.0256
 9461TIP3    H152578   1.005   7.491  10.999 -0.0327 -0.2151  1.0620
 9461TIP3    H252579   1.097   7.565  10.904 -1.0973 -0.4798 -0.2199
 9462TIP3   OH252580   0.423   7.615  10.752 -0.5496  0.5573 -0.1435
 9462TIP3    H152581   0.458   7.529  10.774 -0.4054  0.7872  0.5532
 9462TIP3    H252582   0.496   7.662  10.713 -0.9387 -0.0225 -1.6375
 9463TIP3   OH252583   5.250   6.441  11.480 -0.4701 -0.1182  0.2918
 9463TIP3    H152584   5.176   6.478  11.528 -0.3338 -0.7583  1.0007
 9463TIP3    H252585   5.326   6.489  11.513 -0.2358 -1.2841  1.5298
 9464TIP3   OH252586   1.873   2.047  11.056 -0.0492  0.3253 -0.2164
 9464TIP3    H152587   1.874   2.097  11.138  0.1976  0.1492 -0.1101
 9464TIP3    H252588   1.907   2.106  10.990 -0.2545  0.4710 -0.1914
 9465TIP3   OH252589   2.978   4.152  11.040 -0.0500  0.0653 -0.0817
 9465TIP3    H152590   3.022   4.069  11.060  1.8957  1.1641  0.4962
 9465TIP3    H252591   3.012   4.176  10.953 -0.8431  0.1239 -0.3818
 9466TIP3   OH252592   1.851   1.309  10.634 -0.3214  0.6626 -0.8585
 9466TIP3    H152593   1.933   1.280  10.672 -1.0564  2.7129  2.7359
 9466TIP3    H252594   1.785   1.251  10.672 -0.8719  1.3391 -0.7662
 9467TIP3   OH252595   3.931   0.069  12.276 -0.6505 -0.2246  0.1617
 9467TIP3    H152596   3.923   0.127  12.352  2.9738  1.2772 -0.4027
 9467TIP3    H252597   3.931  -0.019  12.313 -1.9784  0.2961  1.5128
 9468TIP3   OH252598   1.876   2.506  12.205 -0.1720 -0.2517  0.4496
 9468TIP3    H152599   1.821   2.477  12.133  0.1879  1.5332 -0.5886
 9468TIP3    H252600   1.817   2.558  12.261 -0.0081 -0.0363  0.4215
 9469TIP3   OH252601   1.891   7.440  11.679  0.4528 -0.1401 -0.4899
 9469TIP3    H152602   1.965   7.468  11.732  0.3525  0.4752 -0.6567
 9469TIP3    H252603   1.903   7.346  11.667 -0.3050 -0.6038  1.8763
 9470TIP3   OH252604   7.517   2.544  11.888 -0.0467 -0.2596 -0.4254
 9470TIP3    H152605   7.473   2.528  11.972  0.2313 -0.0504 -0.2371
 9470TIP3    H252606   7.535   2.638  11.888  0.2646 -0.3175 -0.5649
 9471TIP3   OH252607   6.637   0.582  11.505 -0.1178 -0.1234  0.0008
 9471TIP3    H152608   6.652   0.507  11.562 -1.8188 -1.0418 -0.6579
 9471TIP3    H252609   6.603   0.650  11.563  0.4090 -0.2249  0.4351
 9472TIP3   OH252610   6.838   4.283  13.504  0.0215  0.3856 -0.5766
 9472TIP3    H152611   6.771   4.220  13.478 -0.9328  1.2183 -0.1756
 9472TIP3    H252612   6.913   4.263  13.448 -0.3228 -0.9834 -0.5838
 9473TIP3   OH252613   2.787   5.992  10.771  0.1060 -0.3499  1.2071
 9473TIP3    H152614   2.830   6.078  10.767 -0.3716 -0.1289  0.7457
 9473TIP3    H252615   2.717   6.003  10.835 -0.0622 -0.3485  1.0213
 9474TIP3   OH252616   6.694   1.961  12.935  0.2401 -0.2345 -0.0096
 9474TIP3    H152617   6.646   1.880  12.952 -0.1083  0.0162  0.2065
 9474TIP3    H252618   6.667   1.988  12.847  0.9256 -0.7472 -0.3902
 9475TIP3   OH252619   4.082   3.457  10.884  0.2227  0.6312 -0.2904
 9475TIP3    H152620   4.168   3.438  10.922  0.5893  0.3830 -1.2255
 9475TIP3    H252621   4.051   3.535  10.931 -0.0034 -0.5246  1.5526
 9476TIP3   OH252622   1.297   4.200  12.485 -0.7022  0.0355  0.4800
 9476TIP3    H152623   1.219   4.254  12.478 -0.2424  0.7815  0.9786
 9476TIP3    H252624   1.333   4.197  12.396 -1.8187 -1.1380  0.0403
 9477TIP3   OH252625   3.491   5.588  12.331 -0.3529  0.0319  0.0740
 9477TIP3    H152626   3.554   5.658  12.348  0.0458 -0.5356  1.0263
 9477TIP3    H252627   3.543   5.508  12.331 -0.9690 -0.3776  0.1112
 9478TIP3   OH252628   0.383   4.263  10.769 -0.8314  0.1195 -0.4183
 9478TIP3    H152629   0.335   4.296  10.693 -0.8034 -1.4370 -1.1510
 9478TIP3    H252630   0.339   4.181  10.791 -0.9608  0.6419  1.3879
 9479TIP3   OH252631   5.448   3.445  11.429 -0.2464  0.6121  0.0320
 9479TIP3    H152632   5.397   3.422  11.506 -0.0397 -3.4785 -0.8232
 9479TIP3    H252633   5.527   3.391  11.436 -0.1682  0.1760 -2.8874
 9480TIP3   OH252634   4.159   0.991  12.939 -0.4120 -0.4772 -0.0167
 9480TIP3    H152635   4.192   0.911  12.897 -1.4436 -0.8207 -0.1952
 9480TIP3    H252636   4.129   0.962  13.025 -0.4727 -0.2111  0.0521
 9481TIP3   OH252637   0.369   6.866  10.517 -0.3471 -0.4245 -0.1944
 9481TIP3    H152638   0.331   6.954  10.519 -0.5893 -0.5381  0.5161
 9481TIP3    H252639   0.438   6.869  10.582 -0.0308 -0.6201 -0.5213
 9482TIP3   OH252640   1.778   1.630  10.859  0.2235 -0.6567  0.1936
 9482TIP3    H152641   1.832   1.699  10.898  0.4175 -0.1274 -0.9554
 9482TIP3    H252642   1.831   1.551  10.865  0.4067 -0.4994  0.6449
 9483TIP3   OH252643   6.212   4.861  12.196 -0.0933 -0.6014 -0.3757
 9483TIP3    H152644   6.258   4.891  12.117  0.6659  0.5209  0.4500
 9483TIP3    H252645   6.190   4.770  12.179 -2.9909  0.4457 -3.2823
 9484TIP3   OH252646   0.470   5.012  12.859 -0.4768 -0.2810 -0.3521
 9484TIP3    H152647   0.449   5.105  12.871  0.8836 -0.1489  1.3263
 9484TIP3    H252648   0.528   4.990  12.932 -1.5531 -2.7228 -0.1208
 9485TIP3   OH252649   3.990   7.180  10.504 -0.0582  0.1163  0.5775
 9485TIP3    H152650   3.923   7.190  10.572 -0.1473  2.3864  0.2266
 9485TIP3    H252651   4.047   7.257  10.515 -0.0133  0.4988 -1.8274
 9486TIP3   OH252652   6.633   6.423  10.936  0.2623  0.0497  1.1614
 9486TIP3    H152653   6.634   6.494  10.871 -0.5563  0.3284  1.4343
 9486TIP3    H252654   6.614   6.468  11.018  1.1250 -0.3247  1.5726
 9487TIP3   OH252655   2.938   3.543  13.312 -0.1223 -0.0572  0.6407
 9487TIP3    H152656   2.861   3.546  13.368 -1.5896 -1.2159 -1.1983
 9487TIP3    H252657   2.930   3.460  13.264  1.5680  0.4124 -0.5490
 9488TIP3   OH252658   0.876   6.273  10.639 -0.8986  0.1434 -0.0023
 9488TIP3    H152659   0.961   6.258  10.680 -1.0100 -1.3980 -0.2825
 9488TIP3    H252660   0.872   6.368  10.626  1.7249  0.0941 -1.9958
 9489TIP3   OH252661   5.666   3.020  10.191 -0.1235 -0.5141  0.2985
 9489TIP3    H152662   5.593   2.959  10.184  0.3930 -1.1068 -0.1254
 9489TIP3    H252663   5.663   3.052  10.281 -1.8550  0.7167 -0.1383
 9490TIP3   OH252664   6.746   5.326  10.845 -0.1420 -0.0403  0.2886
 9490TIP3    H152665   6.758   5.317  10.750  0.9900 -0.7802  0.4850
 9490TIP3    H252666   6.831   5.305  10.882 -0.9041 -1.0335  1.5527
 9491TIP3   OH252667   4.754   7.161  11.956 -0.6558  0.2834  0.1762
 9491TIP3    H152668   4.845   7.189  11.974  0.2573  0.0444 -3.3555
 9491TIP3    H252669   4.752   7.068  11.979  0.1938  0.1500 -0.2484
 9492TIP3   OH252670   3.635   1.538  11.035 -0.3516 -0.4018  0.1309
 9492TIP3    H152671   3.654   1.624  11.073 -1.1866 -1.0186  2.1035
 9492TIP3    H252672   3.602   1.557  10.947 -1.7857  1.4036  0.9900
 9493TIP3   OH252673   1.656   4.930  11.176  0.6367  0.1275  0.2761
 9493TIP3    H152674   1.588   4.945  11.241  1.5712 -0.3941  1.4092
 9493TIP3    H252675   1.696   5.016  11.162  1.4241 -0.0189  1.5452
 9494TIP3   OH252676   4.059   3.985  11.376  0.6683 -0.3620  0.1501
 9494TIP3    H152677   3.980   3.942  11.410  0.5405 -1.0405 -0.9263
 9494TIP3    H252678   4.036   4.007  11.285  1.1703  0.8976  0.3055
 9495TIP3   OH252679   4.288   5.572  12.821  0.4177  0.6930 -0.4605
 9495TIP3    H152680   4.321   5.620  12.745 -0.1661 -0.7028 -1.6414
 9495TIP3    H252681   4.217   5.627  12.856  1.6474  2.0427  0.0023
 9496TIP3   OH252682   3.559   5.082  11.485  0.1144 -0.3055  0.0905
 9496TIP3    H152683   3.569   5.173  11.514  2.7182 -0.7980  0.9634
 9496TIP3    H252684   3.627   5.069  11.419 -0.9649 -1.3432 -0.8876
 9497TIP3   OH252685   7.615   5.684  12.569 -0.2608 -0.1799 -0.5387
 9497TIP3    H152686   7.524   5.670  12.542 -0.6139  1.6106 -0.4450
 9497TIP3    H252687   7.659   5.716  12.491 -0.5841  2.2184  0.1741
 9498TIP3   OH252688   2.339   7.216  12.477  0.1713  0.2115 -0.3443
 9498TIP3    H152689   2.366   7.141  12.424 -1.1514 -0.8653  0.4351
 9498TIP3    H252690   2.248   7.197  12.501 -0.1403  1.9772  0.0526
 9499TIP3   OH252691   2.979   2.704  11.057  0.8452 -0.6171 -0.0915
 9499TIP3    H152692   2.899   2.663  11.087  0.4588  0.0636 -0.1739
 9499TIP3    H252693   2.986   2.679  10.965 -0.1155  0.6069 -0.5170
 9500TIP3   OH252694   5.422   6.281  11.666  0.1062 -0.0612  0.4188
 9500TIP3    H152695   5.331   6.251  11.661  0.0886  0.0406  0.0805
 9500TIP3    H252696   5.472   6.202  11.688 -0.0762 -0.0934  0.7282
 9501TIP3   OH252697   5.432   2.593  12.419 -0.0217  0.1046  0.2237
 9501TIP3    H152698   5.451   2.663  12.357  1.1951 -0.1177  0.3206
 9501TIP3    H252699   5.508   2.535  12.414  0.7914  0.8101  2.9429
 9502TIP3   OH252700   6.913   4.234  10.549 -0.3736  0.8722  0.0715
 9502TIP3    H152701   6.897   4.304  10.486 -0.1923  1.0318  0.2016
 9502TIP3    H252702   6.956   4.277  10.623 -1.5296  0.8895  0.7710
 9503TIP3   OH252703   6.534   4.283  11.264  0.2099 -0.2793 -1.0246
 9503TIP3    H152704   6.442   4.280  11.238  0.5559 -0.9422 -2.2450
 9503TIP3    H252705   6.566   4.366  11.227  0.0020  0.1710 -0.2102
 9504TIP3   OH252706   5.747   2.026  12.187  0.6357  0.0324  0.1960
 9504TIP3    H152707   5.838   2.042  12.214  0.2799 -0.4883  1.7914
 9504TIP3    H252708   5.694   2.066  12.256 -0.3336 -0.5000 -0.2212
 9505TIP3   OH252709   5.184   7.305  11.496  0.1722 -0.6269  0.2481
 9505TIP3    H152710   5.241   7.325  11.422 -0.6281  0.0952 -0.1915
 9505TIP3    H252711   5.125   7.238  11.464  0.7997 -1.4313  0.7287
 9506TIP3   OH252712   3.982   2.065  13.396  0.3068 -1.0342 -0.8586
 9506TIP3    H152713   4.044   2.042  13.465 -1.1543  0.5242  1.1373
 9506TIP3    H252714   4.019   2.029  13.316  3.3034 -0.9359  0.3538
 9507TIP3   OH252715   4.516   4.329  13.573 -0.4675  0.2490 -0.3911
 9507TIP3    H152716   4.531   4.364  13.485 -1.1417  2.4038  0.3012
 9507TIP3    H252717   4.595   4.350  13.622 -0.1832 -0.7519 -0.3946
 9508TIP3   OH252718   2.847   2.563  13.256  0.1743  0.0735  0.4150
 9508TIP3    H152719   2.935   2.526  13.247  0.8607  1.1241  2.1900
 9508TIP3    H252720   2.788   2.491  13.234  1.4855 -1.2013  0.9245
 9509TIP3   OH252721   5.320   1.640  10.288 -0.9818  0.2201 -0.0793
 9509TIP3    H152722   5.261   1.653  10.214 -1.4775 -0.4518  0.1875
 9509TIP3    H252723   5.402   1.610  10.249 -2.1407 -3.1484 -0.2233
 9510TIP3   OH252724   7.383   2.668  12.258 -0.2028 -0.0490 -0.3033
 9510TIP3    H152725   7.296   2.678  12.297  0.0317  1.1905 -0.0429
 9510TIP3    H252726   7.382   2.580  12.220 -0.8114 -0.9383  1.5977
 9511TIP3   OH252727   2.114   3.254  11.709 -0.8483  0.6113  1.0775
 9511TIP3    H152728   2.060   3.246  11.631  0.1425 -1.2766  0.5134
 9511TIP3    H252729   2.053   3.242  11.782 -1.2696 -1.2202  0.4655
 9512TIP3   OH252730   6.136   2.155  12.221 -0.2831 -0.0732 -0.1231
 9512TIP3    H152731   6.204   2.106  12.175 -0.3866  0.8525 -1.3034
 9512TIP3    H252732   6.146   2.129  12.312  1.4952 -0.1581 -0.2987
 9513TIP3   OH252733   6.847   7.553  10.835  0.6082  0.1543 -0.6652
 9513TIP3    H152734   6.879   7.642  10.823  0.8110  0.4625  1.6186
 9513TIP3    H252735   6.852   7.538  10.930 -2.1475 -1.2405 -0.6091
 9514TIP3   OH252736   1.905   1.254  12.512 -0.2857  0.0365 -0.4203
 9514TIP3    H152737   1.849   1.177  12.499 -1.0218  0.3264  0.9040
 9514TIP3    H252738   1.959   1.232  12.588  1.0113  0.0045 -1.3228
 9515TIP3   OH252739   0.305   4.319  10.486  0.0215 -0.0207 -0.6241
 9515TIP3    H152740   0.299   4.390  10.422 -0.6135 -0.2200 -0.8014
 9515TIP3    H252741   0.359   4.252  10.444  1.2008  0.6291 -0.1822
 9516TIP3   OH252742   2.957   0.253  11.495 -0.1978 -0.3931  0.4586
 9516TIP3    H152743   3.017   0.327  11.498  0.7811 -1.1699  3.2092
 9516TIP3    H252744   2.874   0.288  11.527 -0.2999 -0.0985 -0.1001
 9517TIP3   OH252745   7.106   4.854  10.699 -0.0802 -0.4303 -0.5122
 9517TIP3    H152746   7.098   4.768  10.658  0.1715  0.0979 -1.7100
 9517TIP3    H252747   7.040   4.908  10.657  0.9842  0.4557 -1.1218
 9518TIP3   OH252748   3.338   3.862  11.651 -0.2723  0.1369 -0.3794
 9518TIP3    H152749   3.402   3.906  11.595 -0.0636 -0.9465 -1.0120
 9518TIP3    H252750   3.261   3.851  11.595  0.3226 -1.9644 -0.8613
 9519TIP3   OH252751   5.678   7.000  11.020  0.0018 -0.2049 -0.6391
 9519TIP3    H152752   5.708   6.921  10.975  2.2418 -0.0089  0.3582
 9519TIP3    H252753   5.647   6.969  11.105  0.2852 -0.0883 -0.4907
 9520TIP3   OH252754   2.845   2.291  10.640  0.1178  0.1012  0.2998
 9520TIP3    H152755   2.786   2.350  10.593  1.0648 -0.0182 -1.1140
 9520TIP3    H252756   2.788   2.222  10.673 -0.5609  0.0141 -0.9815
 9521TIP3   OH252757   5.177   7.209  11.868 -0.5294  0.1582 -0.0949
 9521TIP3    H152758   5.173   7.297  11.831 -1.5257 -0.6075 -1.8881
 9521TIP3    H252759   5.170   7.223  11.963 -1.2624  1.9628 -0.3747
 9522TIP3   OH252760   1.115   0.516  12.584 -0.4579 -0.1669  0.2356
 9522TIP3    H152761   1.034   0.562  12.604 -0.1197  1.6781 -2.2099
 9522TIP3    H252762   1.091   0.452  12.517  0.1105  0.4815 -0.6012
 9523TIP3   OH252763   2.220   6.702  11.749  0.1628  0.0815 -0.2925
 9523TIP3    H152764   2.226   6.630  11.811  0.4915 -0.4230 -0.9005
 9523TIP3    H252765   2.208   6.660  11.664  2.0698  0.6413 -0.9097
 9524TIP3   OH252766   6.461   1.355  10.516 -0.0155  0.3271 -0.2409
 9524TIP3    H152767   6.514   1.291  10.468 -0.1002 -1.2617  1.6373
 9524TIP3    H252768   6.399   1.388  10.451  0.1991 -1.3427 -1.3686
 9525TIP3   OH252769   2.314   3.065  10.762  0.3049 -0.1963  0.3986
 9525TIP3    H152770   2.388   3.110  10.721 -0.3048 -0.7363 -1.4027
 9525TIP3    H252771   2.308   2.981  10.715 -0.3301 -0.9387  1.7585
 9526TIP3   OH252772   0.163   5.084  12.351 -0.5080 -0.4308  0.0028
 9526TIP3    H152773   0.223   5.010  12.357 -0.7719 -0.5725  1.1572
 9526TIP3    H252774   0.219   5.160  12.336 -0.0814 -0.6431  0.4712
 9527TIP3   OH252775   5.694   4.982  12.293 -0.5965 -0.1922 -0.3048
 9527TIP3    H152776   5.772   4.932  12.319  0.0856  0.5847 -0.7969
 9527TIP3    H252777   5.625   4.950  12.351  0.3367 -0.1568  0.8780
 9528TIP3   OH252778   0.461   5.736  11.340  0.0536  0.0596 -0.3534
 9528TIP3    H152779   0.499   5.693  11.264 -0.5551  1.2835 -1.3855
 9528TIP3    H252780   0.493   5.685  11.415 -0.2914 -1.9095 -1.4659
 9529TIP3   OH252781   3.220   3.323  10.392 -0.0007  0.5287 -0.0386
 9529TIP3    H152782   3.184   3.281  10.314  0.0874 -0.7906  0.5998
 9529TIP3    H252783   3.229   3.415  10.368  1.4752 -0.0940 -2.1068
 9530TIP3   OH252784   0.419   3.625  11.052  0.1893  0.0401 -0.2595
 9530TIP3    H152785   0.489   3.643  11.114 -1.0232  0.7756  0.9360
 9530TIP3    H252786   0.345   3.676  11.083 -0.1062  1.5032 -3.0497
 9531TIP3   OH252787   4.495   1.691  11.301  0.1144 -0.7779 -0.3363
 9531TIP3    H152788   4.425   1.720  11.243  0.1199  0.7645  0.3652
 9531TIP3    H252789   4.477   1.598  11.316 -1.1079 -0.6873 -1.0927
 9532TIP3   OH252790   5.760   0.484  10.864  0.1199 -0.0992 -0.1470
 9532TIP3    H152791   5.756   0.479  10.768 -1.2215 -0.2419 -0.1038
 9532TIP3    H252792   5.683   0.535  10.889  1.0855  0.9406  0.8098
 9533TIP3   OH252793   2.348   6.439  12.309  0.4087 -0.4261  0.5216
 9533TIP3    H152794   2.297   6.514  12.340 -0.9874  0.0874 -2.6522
 9533TIP3    H252795   2.431   6.477  12.279 -0.0700 -0.2172 -0.5571
 9534TIP3   OH252796   4.970   0.986  10.926 -0.1846  0.3609  0.2235
 9534TIP3    H152797   5.054   0.955  10.961 -0.4460 -0.3907  0.2168
 9534TIP3    H252798   4.988   1.006  10.834 -0.5599 -2.3966 -0.5738
 9535TIP3   OH252799   2.963   3.146  10.988  0.5352 -0.3706  0.3256
 9535TIP3    H152800   2.904   3.077  11.017 -2.6753  1.6706 -0.8547
 9535TIP3    H252801   2.990   3.190  11.068 -2.2751  0.6491  0.8177
 9536TIP3   OH252802   2.604   4.723  12.737 -0.5527  0.3299  0.0010
 9536TIP3    H152803   2.572   4.811  12.758 -0.7590  0.2661 -0.0472
 9536TIP3    H252804   2.657   4.698  12.813 -0.9043  0.2937  0.2350
 9537TIP3   OH252805   5.124   4.696  11.751  0.2326 -0.7945  0.3308
 9537TIP3    H152806   5.202   4.660  11.792  0.9189 -0.3105 -0.5292
 9537TIP3    H252807   5.156   4.745  11.675 -0.9075 -0.6413 -0.0764
 9538TIP3   OH252808   6.091   3.140  11.970  0.1734 -0.1247  0.4534
 9538TIP3    H152809   6.153   3.201  11.930  1.5862 -1.8160 -0.0587
 9538TIP3    H252810   6.010   3.151  11.920  0.4767  1.0877  0.1843
 9539TIP3   OH252811   2.408   4.019  12.317  0.7914 -0.4289 -0.4691
 9539TIP3    H152812   2.454   4.000  12.235 -1.4404 -0.3852 -1.8226
 9539TIP3    H252813   2.377   3.934  12.347  0.3436 -0.2688 -0.4777
 9540TIP3   OH252814   6.351   5.398  10.724  1.0338 -0.1870  0.5816
 9540TIP3    H152815   6.403   5.318  10.733  0.8368 -0.2211  1.5947
 9540TIP3    H252816   6.410   5.459  10.680  1.0787 -0.9777 -0.4926
 9541TIP3   OH252817   1.537   1.196  11.272  0.0493 -0.1014  0.1599
 9541TIP3    H152818   1.547   1.223  11.181  1.8064 -0.5850  0.1840
 9541TIP3    H252819   1.582   1.264  11.322  1.3837 -1.1590  0.4571
 9542TIP3   OH252820   4.892   5.364  11.713  0.0808  0.6343 -0.1240
 9542TIP3    H152821   4.948   5.360  11.636 -2.4701 -0.4162 -2.0650
 9542TIP3    H252822   4.876   5.273  11.736 -1.5573  0.8450 -0.2701
 9543TIP3   OH252823   1.647   3.630  10.289  0.5440  1.0326  0.2829
 9543TIP3    H152824   1.554   3.608  10.303  0.8697  0.1037  1.1931
 9543TIP3    H252825   1.647   3.691  10.216 -0.7913  1.0409  0.2625
 9544TIP3   OH252826   0.050   3.742  11.410  0.1782  0.2246 -0.0135
 9544TIP3    H152827   0.011   3.818  11.368  1.3340  1.6190  1.3073
 9544TIP3    H252828  -0.018   3.675  11.409 -0.6050  1.0068 -1.8938
 9545TIP3   OH252829   6.833   7.349  10.620 -0.4939 -0.4149 -0.5928
 9545TIP3    H152830   6.756   7.292  10.627  0.7913 -2.0478  2.7021
 9545TIP3    H252831   6.822   7.413  10.690  0.0674  0.8102 -1.5960
 9546TIP3   OH252832   4.575   3.661  12.023 -0.2428 -0.2305  0.3113
 9546TIP3    H152833   4.563   3.566  12.024  1.2291 -0.4703 -1.2372
 9546TIP3    H252834   4.631   3.679  12.099  1.2839 -0.9123 -0.6196
 9547TIP3   OH252835   5.492   2.825  12.223  0.1071 -0.4304  0.2638
 9547TIP3    H152836   5.563   2.844  12.284 -0.6382 -0.7513  1.2492
 9547TIP3    H252837   5.528   2.848  12.137  0.2183  2.8625  1.0338
 9548TIP3   OH252838   3.427   0.249  10.828  0.4301  0.1157  0.0031
 9548TIP3    H152839   3.367   0.303  10.776 -0.2181 -0.0987  0.5217
 9548TIP3    H252840   3.496   0.224  10.766 -0.3239 -0.1353 -0.7560
 9549TIP3   OH252841   4.347   1.093  11.258  0.5130 -0.3519 -0.1267
 9549TIP3    H152842   4.404   1.101  11.182 -2.1378 -1.2395 -2.3938
 9549TIP3    H252843   4.318   1.001  11.257 -1.8537  0.3136  0.1003
 9550TIP3   OH252844   6.002   6.447  12.757 -0.3818  0.1895 -0.0775
 9550TIP3    H152845   6.060   6.492  12.695 -1.1440 -0.6920 -1.4756
 9550TIP3    H252846   6.057   6.430  12.834  1.1507 -0.4120 -1.2563
 9551TIP3   OH252847   4.561   1.168  10.458 -0.0612 -0.2361 -0.3015
 9551TIP3    H152848   4.599   1.201  10.540 -0.9058 -0.4326  0.1824
 9551TIP3    H252849   4.631   1.178  10.394  0.3186  0.7904  0.2405
 9552TIP3   OH252850   5.176   5.944  10.863 -0.0611 -0.0934  0.2457
 9552TIP3    H152851   5.217   6.029  10.879  0.5123 -0.4752  0.8772
 9552TIP3    H252852   5.193   5.926  10.771 -2.4157  1.6296 -0.6440
 9553TIP3   OH252853   1.466   4.197  10.254  0.1656 -0.7498  0.6342
 9553TIP3    H152854   1.453   4.275  10.201 -0.1776 -1.5003 -0.4013
 9553TIP3    H252855   1.473   4.230  10.344 -1.2723  0.3645  0.3707
 9554TIP3   OH252856   5.680   4.445  13.259 -0.0355  0.0872 -0.1291
 9554TIP3    H152857   5.616   4.411  13.320  1.1265 -2.4317 -0.2039
 9554TIP3    H252858   5.765   4.432  13.302  0.5768  2.2543 -0.5205
 9555TIP3   OH252859   0.033   4.525  11.664  0.0736 -0.2131 -0.3529
 9555TIP3    H152860   0.127   4.509  11.667 -0.1549 -1.8300 -0.7117
 9555TIP3    H252861   0.022   4.613  11.701  1.9006  0.9874 -2.4610
 9556TIP3   OH252862   5.882   4.213  11.524  0.1195 -0.7275  0.3256
 9556TIP3    H152863   5.869   4.188  11.616  0.2231  2.0435  1.1917
 9556TIP3    H252864   5.796   4.241  11.495 -0.1888 -2.7773 -0.8943
 9557TIP3   OH252865   2.591   3.450  10.947 -0.4857 -0.4079 -0.2319
 9557TIP3    H152866   2.614   3.542  10.935 -1.1739 -0.0232  1.2638
 9557TIP3    H252867   2.597   3.435  11.041  1.5913 -2.4478 -0.5970
 9558TIP3   OH252868   1.001   6.585  10.949  0.1951  0.8061  0.0022
 9558TIP3    H152869   0.977   6.664  10.900 -0.7614  0.3859 -0.2279
 9558TIP3    H252870   0.932   6.523  10.929  0.7226  0.0413  0.5157
 9559TIP3   OH252871   7.296   3.850  11.496  0.3482 -0.5817 -0.3468
 9559TIP3    H152872   7.212   3.813  11.523 -0.7356  1.5887 -0.4866
 9559TIP3    H252873   7.344   3.864  11.578 -1.4375  2.5601  0.3168
 9560TIP3   OH252874   3.354   5.110  10.525 -0.3703 -0.3292  0.1115
 9560TIP3    H152875   3.318   5.141  10.608 -2.3962 -1.5912 -0.2392
 9560TIP3    H252876   3.340   5.183  10.464  1.8062  0.9004  0.9652
 9561TIP3   OH252877   5.423   2.858  13.386 -0.0956 -0.2776  0.3192
 9561TIP3    H152878   5.464   2.777  13.355 -2.8314 -1.6808  0.0862
 9561TIP3    H252879   5.444   2.922  13.318  1.2784 -1.0384 -0.0051
 9562TIP3   OH252880   2.044   4.634  12.912 -0.6568  0.1462  0.4583
 9562TIP3    H152881   1.994   4.552  12.907 -1.9055  0.8153  1.4834
 9562TIP3    H252882   2.093   4.627  12.993 -1.4815  0.7761  1.0332
 9563TIP3   OH252883   2.417   6.873  11.415  0.1248  0.5187  0.2065
 9563TIP3    H152884   2.428   6.878  11.510 -0.3534  1.7527  0.2201
 9563TIP3    H252885   2.380   6.958  11.391  0.2247  0.2169 -1.0871
 9564TIP3   OH252886   0.993   6.454  12.151 -0.1250 -0.2459 -0.2136
 9564TIP3    H152887   0.980   6.517  12.222  0.2183 -0.5398  0.1183
 9564TIP3    H252888   1.049   6.386  12.190  0.3908 -0.2124 -0.8762
 9565TIP3   OH252889   3.844   4.172  11.720  0.2164 -0.4739  0.4766
 9565TIP3    H152890   3.921   4.204  11.673  1.6401 -0.6720  2.5747
 9565TIP3    H252891   3.778   4.240  11.706  0.1817 -0.9914 -2.6048
 9566TIP3   OH252892   7.666   5.876  10.535  0.2591  0.4226  0.1338
 9566TIP3    H152893   7.752   5.892  10.496 -0.7426 -0.4630 -2.6691
 9566TIP3    H252894   7.652   5.782  10.525 -0.6394  0.3829  1.4935
 9567TIP3   OH252895   2.716   1.853  11.132  0.2251  0.1970  0.1286
 9567TIP3    H152896   2.776   1.903  11.188  2.3091 -2.9967  1.0436
 9567TIP3    H252897   2.737   1.881  11.043  1.6084  0.6777  0.5764
 9568TIP3   OH252898   6.865   7.042  10.993  0.5071  0.1523  0.1721
 9568TIP3    H152899   6.840   7.096  11.067 -0.7353  1.8791 -1.4046
 9568TIP3    H252900   6.786   7.037  10.939  1.7988  0.3706 -1.8521
 9569TIP3   OH252901   2.073   3.528  11.646  0.4289  0.3269 -0.1402
 9569TIP3    H152902   2.101   3.438  11.661 -0.8360 -0.2208 -0.8952
 9569TIP3    H252903   1.977   3.525  11.655  0.1574  1.1354 -2.2118
 9570TIP3   OH252904   6.827   5.981  11.395 -0.0819  0.3116  0.1825
 9570TIP3    H152905   6.800   5.917  11.329  0.6348  0.4007 -0.2086
 9570TIP3    H252906   6.865   6.053  11.344 -0.3678  0.8014  0.6479
 9571TIP3   OH252907   6.151   2.839  11.488  0.0167 -0.2160  0.1058
 9571TIP3    H152908   6.218   2.771  11.496 -0.8347 -0.8976  1.9825
 9571TIP3    H252909   6.069   2.790  11.479 -0.5377  0.5633  0.7699
 9572TIP3   OH252910   4.520   4.076  11.538  0.2302 -0.5890 -0.0735
 9572TIP3    H152911   4.481   4.151  11.583  1.6093 -0.7799  1.5475
 9572TIP3    H252912   4.448   4.015  11.525 -0.7379  0.6274 -0.6300
 9573TIP3   OH252913   2.773   5.262  12.163 -0.1543  0.1223  0.2522
 9573TIP3    H152914   2.866   5.267  12.143 -0.0655  1.4556  0.8847
 9573TIP3    H252915   2.730   5.281  12.080  0.1362  0.0758  0.0896
 9574TIP3   OH252916   0.173   2.842  12.028 -0.1859  0.0797 -0.6100
 9574TIP3    H152917   0.101   2.862  11.969  1.3674  1.3300 -2.1762
 9574TIP3    H252918   0.250   2.837  11.972  1.1577 -0.0332  1.1519
 9575TIP3   OH252919   5.288   2.089  11.549  0.2279  0.1971  0.5698
 9575TIP3    H152920   5.322   2.170  11.511 -1.5357  0.7280  0.0503
 9575TIP3    H252921   5.272   2.110  11.641  2.4068 -0.4457  1.1756
 9576TIP3   OH252922   3.201   1.608  11.764  0.3220  0.3758  0.0751
 9576TIP3    H152923   3.187   1.605  11.670 -0.5542  0.6583  0.1917
 9576TIP3    H252924   3.191   1.700  11.787 -0.2217  0.2000  0.5536
 9577TIP3   OH252925   1.210   2.534  13.106  0.0006 -0.6310 -0.2003
 9577TIP3    H152926   1.210   2.596  13.033  0.4286 -0.1767  0.1787
 9577TIP3    H252927   1.277   2.567  13.166  0.9700 -2.0420 -0.4715
 9578TIP3   OH252928   1.061   6.482  11.578 -0.0919  0.0314  0.7601
 9578TIP3    H152929   1.150   6.504  11.602 -0.1420  0.1321  0.8523
 9578TIP3    H252930   1.041   6.403  11.629  0.1324 -0.3115  0.3327
 9579TIP3   OH252931   2.680   2.335   9.993 -0.0466  0.2146  0.7606
 9579TIP3    H152932   2.676   2.264   9.929  0.4768  0.9440 -0.0973
 9579TIP3    H252933   2.588   2.349  10.018 -0.1615 -0.7249  0.9184
 9580TIP3   OH252934   2.868   3.240  12.411 -0.0114 -0.7237 -0.2559
 9580TIP3    H152935   2.914   3.246  12.328  0.4353  1.4097  0.0771
 9580TIP3    H252936   2.934   3.260  12.477 -1.2522  2.4549  0.2291
 9581TIP3   OH252937   1.041   4.704  12.052  0.5882 -0.5793 -0.2703
 9581TIP3    H152938   1.094   4.675  12.126  2.4561  1.4428 -0.7211
 9581TIP3    H252939   0.997   4.783  12.084 -2.5769 -2.3265  0.1881
 9582TIP3   OH252940   5.788   6.732  10.992 -0.4380 -0.4000  0.4639
 9582TIP3    H152941   5.814   6.642  10.973  1.2806  0.0417  0.5322
 9582TIP3    H252942   5.788   6.739  11.087  2.2178  0.3587  0.4804
 9583TIP3   OH252943   4.709   7.075  11.687 -0.3250 -0.0922  0.2698
 9583TIP3    H152944   4.693   7.138  11.758  0.0670 -0.4797  0.7092
 9583TIP3    H252945   4.800   7.050  11.698 -0.7339 -1.4622  0.7057
 9584TIP3   OH252946   1.730   4.435  10.240 -0.1054  0.2154  0.0119
 9584TIP3    H152947   1.773   4.484  10.309  1.4744  1.6593 -1.8859
 9584TIP3    H252948   1.721   4.346  10.276 -0.1078  1.0839  2.3259
 9585TIP3   OH252949   6.324   3.075  10.323  0.0617  0.0797 -0.2640
 9585TIP3    H152950   6.254   3.080  10.388  0.3388  0.1852  0.0290
 9585TIP3    H252951   6.403   3.100  10.371 -0.0547  2.5058 -1.1620
 9586TIP3   OH252952   1.412   4.068  12.678 -0.2094 -0.1047 -0.5488
 9586TIP3    H152953   1.368   4.104  12.600 -1.0088 -2.7173 -1.4155
 9586TIP3    H252954   1.341   4.056  12.741 -0.3356 -1.7811 -0.9571
 9587TIP3   OH252955   6.451   3.406  10.758 -0.2556 -0.3963 -0.0990
 9587TIP3    H152956   6.357   3.408  10.772 -0.2764 -0.3299 -0.2481
 9587TIP3    H252957   6.474   3.497  10.738 -0.4558 -0.7381 -2.0069
 9588TIP3   OH252958   6.083   5.938  10.433 -0.0369 -0.2242  0.0606
 9588TIP3    H152959   6.032   6.004  10.480 -1.5312  0.1353 -1.9422
 9588TIP3    H252960   6.170   5.977  10.423 -0.7079  1.1859 -0.5085
 9589TIP3   OH252961   5.731   2.498  13.464  0.3350 -0.1541  0.1612
 9589TIP3    H152962   5.815   2.459  13.441  1.5636  0.9312  2.4009
 9589TIP3    H252963   5.754   2.575  13.517 -2.0477  1.3920 -0.8850
 9590TIP3   OH252964   5.882   4.498  12.281 -0.2477 -0.7398 -0.0432
 9590TIP3    H152965   5.886   4.576  12.337 -1.0520 -0.2482 -0.6519
 9590TIP3    H252966   5.803   4.510  12.228  0.9511 -0.7168 -1.9572
 9591TIP3   OH252967   5.128   5.272  10.544 -0.0511 -0.2448 -0.7294
 9591TIP3    H152968   5.089   5.355  10.574  0.5374 -0.2690  0.1414
 9591TIP3    H252969   5.055   5.225  10.503 -0.8729 -0.1198  0.5120
 9592TIP3   OH252970   6.300   2.935  11.287  0.1911 -0.1484 -0.3782
 9592TIP3    H152971   6.248   2.879  11.229  2.0094 -1.5798 -0.6990
 9592TIP3    H252972   6.250   2.938  11.369 -1.2508 -0.0004 -1.2153
 9593TIP3   OH252973   6.140   1.990  11.293 -0.3362 -0.1312 -0.1725
 9593TIP3    H152974   6.099   2.067  11.332 -0.9461  0.1507 -1.3239
 9593TIP3    H252975   6.073   1.955  11.233  0.3043 -0.9610 -0.4279
 9594TIP3   OH252976   5.972   3.970  10.984 -0.6228  0.4952  0.3095
 9594TIP3    H152977   5.917   3.942  10.910  1.5958  3.2985 -2.6434
 9594TIP3    H252978   5.949   4.062  10.997  0.8037  0.7142  1.4511
 9595TIP3   OH252979   7.089   4.577  11.836  0.2075  0.5027 -0.1847
 9595TIP3    H152980   7.054   4.498  11.795 -1.6187  0.7208  0.8603
 9595TIP3    H252981   7.181   4.579  11.809  0.1548 -1.6612 -0.7056
 9596TIP3   OH252982   2.395   7.464  12.368  0.2525  0.5012  0.0448
 9596TIP3    H152983   2.376   7.376  12.399 -1.7737  0.8363 -0.1457
 9596TIP3    H252984   2.484   7.482  12.399  0.2819 -1.1887  1.0091
 9597TIP3   OH252985   5.341   5.460  11.271 -0.4710  0.1440 -0.4922
 9597TIP3    H152986   5.385   5.428  11.349  1.7888 -0.2284 -1.8166
 9597TIP3    H252987   5.297   5.383  11.234  0.8315 -0.3630 -1.0480
 9598TIP3   OH252988   2.490   2.729  10.951 -0.4113  0.2429  0.5213
 9598TIP3    H152989   2.460   2.745  10.862  0.9648 -0.5639 -0.1156
 9598TIP3    H252990   2.412   2.697  10.997 -0.7501 -1.0475 -0.8591
 9599TIP3   OH252991   5.087   1.790  10.501  0.0111  0.1508  0.6076
 9599TIP3    H152992   5.140   1.756  10.572  0.3485 -0.6345 -0.0104
 9599TIP3    H252993   5.019   1.724  10.487  2.3974 -1.9109 -2.5934
 9600TIP3   OH252994   1.986   2.545  11.145 -0.2769 -0.8240 -0.2289
 9600TIP3    H152995   2.032   2.461  11.137  1.7204 -0.0452  1.9412
 9600TIP3    H252996   1.922   2.532  11.215 -0.0678 -0.5901  0.0081
 9601TIP3   OH252997   7.341   6.869  10.709  0.3364 -0.7490 -0.1983
 9601TIP3    H152998   7.306   6.783  10.687 -1.7537 -0.4348  1.5781
 9601TIP3    H252999   7.361   6.864  10.803  2.3563  0.0483 -0.5231
 9602TIP3   OH253000   4.585   3.764  11.524  0.0250  0.1982 -0.7519
 9602TIP3    H153001   4.626   3.685  11.489 -0.4665 -0.3187 -0.1916
 9602TIP3    H253002   4.531   3.797  11.452  0.5864  0.2847 -1.1381
 9603TIP3   OH253003   6.319   4.719  11.298  0.2871  0.3875 -0.0065
 9603TIP3    H153004   6.380   4.779  11.255  0.1378  0.5195 -0.0330
 9603TIP3    H253005   6.324   4.742  11.391 -1.8082  2.2989 -0.3098
 9604TIP3   OH253006   7.304   0.801  11.665  0.0179  0.0796 -0.3245
 9604TIP3    H153007   7.344   0.785  11.580  2.6394  1.6943  0.4942
 9604TIP3    H253008   7.267   0.717  11.690  0.9310 -0.9387 -2.1889
 9605TIP3   OH253009   0.088   3.193  12.704 -0.2596 -0.2129 -0.1370
 9605TIP3    H153010   0.149   3.126  12.737 -0.6124  0.1144  1.2322
 9605TIP3    H253011   0.142   3.248  12.647  0.5162 -0.4648  0.3289
 9606TIP3   OH253012   2.501   7.264  12.000 -0.7801 -0.2259 -1.0058
 9606TIP3    H153013   2.491   7.356  12.027  0.6478 -0.2482 -0.2611
 9606TIP3    H253014   2.545   7.269  11.915 -0.3418 -0.2140 -0.7815
 9607TIP3   OH253015   7.011   1.578  10.476 -0.0837 -0.1555 -0.6436
 9607TIP3    H153016   7.107   1.579  10.468 -0.0415 -3.6568 -2.4149
 9607TIP3    H253017   6.994   1.530  10.557 -0.3985  1.1166  0.0676
 9608TIP3   OH253018   1.594   1.425  12.202  0.1364  0.1074  0.4103
 9608TIP3    H153019   1.549   1.366  12.142  0.0790  0.5942 -0.0420
 9608TIP3    H253020   1.533   1.497  12.216  0.8185  0.8824 -0.3827
 9609TIP3   OH253021   3.778   7.573  10.919 -0.6506 -0.2876  0.4643
 9609TIP3    H153022   3.766   7.512  10.846  0.0725 -2.9395  2.3980
 9609TIP3    H253023   3.863   7.550  10.956 -0.7838  1.2669  1.8761
 9610TIP3   OH253024   0.347   5.172  12.030  0.5333 -0.1100 -0.3829
 9610TIP3    H153025   0.378   5.215  12.111  1.0605 -0.4336 -0.4050
 9610TIP3    H253026   0.408   5.100  12.018 -0.7944 -1.3468  0.0734
 9611TIP3   OH253027   2.568   5.543  11.482  0.1016 -0.1491  0.1908
 9611TIP3    H153028   2.496   5.606  11.492 -0.7275 -1.1438  0.6351
 9611TIP3    H253029   2.545   5.493  11.404 -0.2170 -1.1380  0.9047
 9612TIP3   OH253030   1.722   0.803  11.875  0.0988 -0.4951  0.0388
 9612TIP3    H153031   1.707   0.898  11.877  0.7982 -0.3753 -0.2259
 9612TIP3    H253032   1.687   0.775  11.790 -0.6195 -0.5696  0.3515
 9613TIP3   OH253033   6.499   5.896  11.579  0.2449 -0.1611 -0.0943
 9613TIP3    H153034   6.532   5.982  11.553  0.9243 -0.3098  0.2632
 9613TIP3    H253035   6.455   5.911  11.662 -1.8602  0.3002 -1.2253
 9614TIP3   OH253036   4.535   0.541  11.691 -0.0389  0.3644 -0.3911
 9614TIP3    H153037   4.495   0.523  11.606 -1.5055  0.4424  0.2562
 9614TIP3    H253038   4.534   0.457  11.737 -0.1643  0.5325 -0.0811
 9615TIP3   OH253039   6.616   7.026  10.872  0.6618  0.2833  0.5141
 9615TIP3    H153040   6.616   6.944  10.824 -2.8389  0.1260  0.5494
 9615TIP3    H253041   6.594   7.093  10.807  1.1222  0.8455  0.9260
 9616TIP3   OH253042   3.551   1.116  11.404  0.1939  0.1152 -0.2315
 9616TIP3    H153043   3.558   1.190  11.344  1.7981  0.6041  0.5082
 9616TIP3    H253044   3.607   1.139  11.479  0.7611 -1.8323  0.0252
 9617TIP3   OH253045   1.605   1.556  10.367  0.4597 -0.2799  0.2688
 9617TIP3    H153046   1.611   1.525  10.457  1.4876 -0.1856  0.2453
 9617TIP3    H253047   1.587   1.477  10.316 -3.0529  0.0115  0.7882
 9618TIP3   OH253048   6.945   6.643  11.623 -0.0660 -0.1999 -0.3632
 9618TIP3    H153049   6.969   6.720  11.675 -1.8297  0.3615 -0.3055
 9618TIP3    H253050   6.962   6.568  11.681  0.3673  0.2326  0.0809
 9619TIP3   OH253051   1.823   2.228  12.957 -0.4242 -0.3010 -0.7950
 9619TIP3    H153052   1.846   2.316  12.988  0.7469 -1.3356  1.4076
 9619TIP3    H253053   1.750   2.201  13.013  0.0956 -1.2445 -0.5607
 9620TIP3   OH253054   4.559   6.640  11.726  0.1472 -0.8009 -0.1635
 9620TIP3    H153055   4.617   6.664  11.654  0.3811 -1.6898 -0.2913
 9620TIP3    H253056   4.605   6.569  11.771  0.6816  0.7071  1.7832
 9621TIP3   OH253057   5.348   3.103  10.456  0.1168  0.6045  0.4016
 9621TIP3    H153058   5.278   3.164  10.431 -0.3094 -0.2598 -0.5582
 9621TIP3    H253059   5.318   3.066  10.539  0.2338  1.4459  0.8389
 9622TIP3   OH253060   7.476   0.155  11.615 -0.2479  0.1721  0.1413
 9622TIP3    H153061   7.552   0.197  11.657 -0.6947  0.0710  1.0753
 9622TIP3    H253062   7.407   0.158  11.682 -0.2943 -2.0430  0.2680
 9623TIP3   OH253063   0.780   1.963  11.228  0.4972 -0.1912  0.3259
 9623TIP3    H153064   0.866   1.950  11.187  0.5810 -1.1092  0.7635
 9623TIP3    H253065   0.788   2.047  11.273  0.8658  0.1541 -0.3664
 9624TIP3   OH253066   2.059   7.431  10.313 -0.1411 -0.1631 -0.1279
 9624TIP3    H153067   2.077   7.450  10.221  1.0858 -0.4126  0.0412
 9624TIP3    H253068   1.981   7.377  10.311 -1.2396  1.3700 -0.8894
 9625TIP3   OH253069   6.162   2.119  10.768 -0.1940  0.2240  0.0064
 9625TIP3    H153070   6.104   2.196  10.769  0.1239  0.4928 -0.9261
 9625TIP3    H253071   6.112   2.052  10.723 -0.5584 -0.2079  1.0174
 9626TIP3   OH253072   3.232   3.766  12.164 -0.1317 -0.2168 -0.1458
 9626TIP3    H153073   3.220   3.671  12.164  0.3191 -0.2734 -0.4004
 9626TIP3    H253074   3.319   3.779  12.200  0.8067 -0.0329 -2.3811
 9627TIP3   OH253075   4.481   1.524  11.866 -0.0307 -0.2500  0.3377
 9627TIP3    H153076   4.416   1.455  11.860 -0.0227 -0.2362  0.0620
 9627TIP3    H253077   4.473   1.572  11.783 -0.6165  0.5965  0.8635
 9628TIP3   OH253078   0.882   5.327  11.749 -0.3869  0.1905  0.1193
 9628TIP3    H153079   0.967   5.284  11.741 -0.1959  0.5765  0.0764
 9628TIP3    H253080   0.897   5.417  11.722 -0.9070  0.1552 -0.3161
 9629TIP3   OH253081   1.424   0.419  11.218 -0.0110 -0.3112  0.0402
 9629TIP3    H153082   1.467   0.419  11.132  0.8681 -0.9339  0.4582
 9629TIP3    H253083   1.336   0.387  11.201 -0.0656  0.2242 -0.7297
 9630TIP3   OH253084   7.523   6.705  11.245 -0.8655  0.0984  0.9215
 9630TIP3    H153085   7.501   6.624  11.200 -2.1064  0.7978  0.2016
 9630TIP3    H253086   7.454   6.767  11.219  0.9076  1.8694  0.1510
 9631TIP3   OH253087   4.631   3.633  12.699 -0.6301 -0.2206  0.0106
 9631TIP3    H153088   4.706   3.574  12.698 -1.9687 -1.9738 -1.2383
 9631TIP3    H253089   4.608   3.641  12.792 -0.2326 -1.4377  0.2264
 9632TIP3   OH253090   1.229   6.610  12.372 -0.3386 -0.0589  0.1811
 9632TIP3    H153091   1.262   6.698  12.357  0.1039 -0.1764  0.4382
 9632TIP3    H253092   1.243   6.595  12.466  0.5836 -0.7952 -0.0593
 9633TIP3   OH253093   3.333   5.813  12.160  0.1707  0.1715  0.4404
 9633TIP3    H153094   3.344   5.722  12.185 -0.9577 -0.7186 -1.9808
 9633TIP3    H253095   3.395   5.861  12.216 -0.1249 -1.8647  2.6631
 9634TIP3   OH253096   6.212   2.549  11.287  0.3202  0.0861  0.5029
 9634TIP3    H153097   6.289   2.572  11.235  0.3273  0.5656  0.7261
 9634TIP3    H253098   6.186   2.463  11.253  0.0991  0.5543 -0.5633
 9635TIP3   OH253099   7.176   0.276  12.296  0.1254 -0.6408  0.2189
 9635TIP3    H153100   7.164   0.335  12.221 -1.2489  1.2887  1.8450
 9635TIP3    H253101   7.262   0.300  12.332 -0.0168 -0.2800  0.3222
 9636TIP3   OH253102   2.315   5.657  12.269 -0.1751 -0.3458  0.3714
 9636TIP3    H153103   2.323   5.565  12.293 -0.2194 -0.7073 -0.9348
 9636TIP3    H253104   2.395   5.676  12.219  0.0770  0.4760  1.0518
 9637TIP3   OH253105   0.701   1.802  13.168  0.3227 -0.1202 -0.1200
 9637TIP3    H153106   0.639   1.736  13.198  0.7438 -2.4207 -3.6377
 9637TIP3    H253107   0.647   1.878  13.147 -1.5302 -2.0109 -2.9578
 9638TIP3   OH253108   2.784   3.054  12.023 -0.4123  0.2372 -0.0293
 9638TIP3    H153109   2.871   3.042  12.061 -1.2253  0.2511  1.9326
 9638TIP3    H253110   2.773   3.149  12.017 -0.1435  0.2330 -0.6833
 9639TIP3   OH253111   3.869   1.722  11.121  0.9091  0.8148 -0.0730
 9639TIP3    H153112   3.807   1.779  11.075  0.3358  0.1046 -0.2023
 9639TIP3    H253113   3.870   1.755  11.211 -0.7518 -0.0150  0.2858
 9640TIP3   OH253114   6.777   1.035  10.821  0.5577 -0.1695  0.0785
 9640TIP3    H153115   6.757   1.114  10.871  1.3516 -0.6242  1.1558
 9640TIP3    H253116   6.702   0.978  10.836  0.8629 -0.3671  0.9141
 9641TIP3   OH253117   0.748   7.272  11.536 -0.2983 -0.0541  0.3234
 9641TIP3    H153118   0.688   7.207  11.499 -1.1536  2.2150 -2.6777
 9641TIP3    H253119   0.824   7.221  11.564 -1.2651 -2.4433 -1.0623
 9642TIP3   OH253120   4.451   4.603  12.188  0.4341 -0.1608 -0.5251
 9642TIP3    H153121   4.461   4.573  12.279  1.3830 -1.7984 -1.1375
 9642TIP3    H253122   4.473   4.527  12.135  0.7894  1.0404 -2.1628
 9643TIP3   OH253123   0.017   1.977  13.097  0.2410  0.3515  0.5285
 9643TIP3    H153124  -0.069   2.001  13.131  0.9556 -1.2773  3.9709
 9643TIP3    H253125   0.069   2.058  13.104 -0.1468  0.5119  1.7111
 9644TIP3   OH253126   6.965   1.528  13.161 -0.1457  0.5122 -0.0877
 9644TIP3    H153127   6.973   1.478  13.079  2.2921  0.4512  0.1100
 9644TIP3    H253128   6.889   1.584  13.147 -1.1287 -1.0531 -1.5217
 9645TIP3   OH253129   2.546   3.959  11.226  0.7363 -0.0750 -0.2210
 9645TIP3    H153130   2.489   3.884  11.238  1.3394 -0.2194  2.1391
 9645TIP3    H253131   2.513   4.025  11.287  2.8489 -0.0738  1.0316
 9646TIP3   OH253132   2.674   4.826  10.416  0.2123  0.4281  0.0945
 9646TIP3    H153133   2.630   4.759  10.364  0.0426  1.1095 -0.6624
 9646TIP3    H253134   2.764   4.794  10.424 -0.2272 -0.6140  1.0344
 9647TIP3   OH253135   3.196   7.459  12.661 -0.1951  0.1993  0.3052
 9647TIP3    H153136   3.139   7.397  12.616 -0.4809 -0.4756  1.5585
 9647TIP3    H253137   3.232   7.410  12.735  1.4864  0.8150 -0.0578
 9648TIP3   OH253138   7.135   3.909  10.744 -0.3258  0.0475 -0.5758
 9648TIP3    H153139   7.165   3.855  10.816 -0.7691  1.8310  1.0335
 9648TIP3    H253140   7.214   3.954  10.713 -0.5127  1.3249  0.6671
 9649TIP3   OH253141   2.773   0.776  11.376 -0.0895  0.2483  0.1019
 9649TIP3    H153142   2.755   0.696  11.325  1.0258 -0.1683  0.3210
 9649TIP3    H253143   2.761   0.749  11.467  1.0556  0.0916  0.2235
 9650TIP3   OH253144   3.774   4.393  10.549 -0.3935  0.2576 -0.4730
 9650TIP3    H153145   3.752   4.308  10.586 -1.6034 -0.2664 -2.2404
 9650TIP3    H253146   3.690   4.430  10.522  0.3520  0.5515 -2.6479
 9651TIP3   OH253147   5.944   2.405  13.370 -0.0337  0.1726 -0.5481
 9651TIP3    H153148   6.013   2.470  13.384 -1.1517  1.3317 -0.2929
 9651TIP3    H253149   5.988   2.334  13.324  0.8910  1.7952 -2.3082
 9652TIP3   OH253150   3.134   4.766  11.614  0.2781  0.3952 -0.3291
 9652TIP3    H153151   3.174   4.682  11.637  0.2079  0.2990 -0.5606
 9652TIP3    H253152   3.184   4.798  11.539 -0.4798 -0.0294 -1.0263
 9653TIP3   OH253153   3.468   2.518  11.304  0.2308  0.3596 -0.0315
 9653TIP3    H153154   3.439   2.428  11.290 -2.4031  1.5249 -3.2698
 9653TIP3    H253155   3.549   2.525  11.253  0.7418 -0.2830  0.6749
 9654TIP3   OH253156   3.402   6.319  12.021  0.1712  0.2782 -0.3791
 9654TIP3    H153157   3.378   6.410  12.040  0.0436 -0.0970  1.4573
 9654TIP3    H253158   3.490   6.310  12.057 -0.2489 -0.6156  0.4583
 9655TIP3   OH253159   0.732   3.564  11.969 -0.0612  0.2754  0.3019
 9655TIP3    H153160   0.778   3.572  11.885 -0.8727 -0.1497 -0.1898
 9655TIP3    H253161   0.801   3.538  12.031  0.8376  2.0065  0.0986
 9656TIP3   OH253162   4.428   0.846  10.876 -0.0423  0.4693 -0.1728
 9656TIP3    H153163   4.450   0.892  10.795  0.2900 -0.6452 -0.7438
 9656TIP3    H253164   4.333   0.834  10.873  0.1388 -1.0081 -1.2340
 9657TIP3   OH253165   0.415   1.006  10.782 -0.0126  0.4802  0.3320
 9657TIP3    H153166   0.411   1.051  10.698 -0.4903 -0.1895 -0.0136
 9657TIP3    H253167   0.324   1.004  10.813 -0.0157 -0.3234  0.2931
 9658TIP3   OH253168   3.983   3.131  11.331  0.5850  0.2946  0.1573
 9658TIP3    H153169   4.000   3.220  11.363  4.4776 -1.1482  3.0124
 9658TIP3    H253170   3.992   3.138  11.236 -0.8788  3.1405  0.1104
 9659TIP3   OH253171   1.246   2.660  12.200 -0.2482 -0.2289  0.0282
 9659TIP3    H153172   1.207   2.677  12.286  1.6629  1.3524  0.6413
 9659TIP3    H253173   1.173   2.667  12.139 -2.2139 -3.8348  1.6205
 9660TIP3   OH253174   0.196   4.121  10.913 -0.6504  0.2093  0.7286
 9660TIP3    H153175   0.158   4.041  10.948 -0.1227 -1.4892 -2.2023
 9660TIP3    H253176   0.125   4.185  10.918 -1.5903 -0.8555  1.7490
 9661TIP3   OH253177   3.901   0.893  11.493  0.3131 -0.3684  0.0607
 9661TIP3    H153178   3.885   0.823  11.430  0.3669  0.6563 -1.1282
 9661TIP3    H253179   3.829   0.886  11.555  0.4227 -1.5841  0.0771
 9662TIP3   OH253180   1.260   1.231  12.083 -0.2982 -0.2693 -0.1258
 9662TIP3    H153181   1.188   1.186  12.038  0.5376 -1.2470 -0.5040
 9662TIP3    H253182   1.228   1.243  12.172 -0.6155 -1.4566 -0.0626
 9663TIP3   OH253183   3.187   7.274  11.427 -0.4771  0.0602  0.9497
 9663TIP3    H153184   3.281   7.286  11.419 -0.5353 -0.2136 -0.4771
 9663TIP3    H253185   3.159   7.245  11.340 -1.9106  0.3972  1.2631
 9664TIP3   OH253186   5.925   1.076  11.397 -0.7008 -0.8442 -0.2393
 9664TIP3    H153187   5.954   1.094  11.308  2.2794 -0.3678  0.7019
 9664TIP3    H253188   5.967   0.993  11.419  0.2952  0.0197  1.3322
 9665TIP3   OH253189   6.511   3.725  11.477  0.1981  0.5275 -0.5785
 9665TIP3    H153190   6.437   3.737  11.537 -0.9871 -2.0777 -1.3833
 9665TIP3    H253191   6.472   3.727  11.390  0.9627 -1.2005 -1.0064
 9666TIP3   OH253192   6.974   0.364  11.462 -0.2265  0.6510  0.0991
 9666TIP3    H153193   6.952   0.274  11.438  0.5240  0.8248 -1.3874
 9666TIP3    H253194   7.004   0.358  11.552 -0.1693 -0.5937  0.0159
 9667TIP3   OH253195   7.212   7.484  12.901 -0.2849 -0.5939  0.6597
 9667TIP3    H153196   7.215   7.396  12.863  2.5141 -0.8430  1.2304
 9667TIP3    H253197   7.192   7.541  12.827 -2.6145 -1.6722  0.3602
 9668TIP3   OH253198   6.308   0.146  11.385 -0.2235 -0.2393  0.1259
 9668TIP3    H153199   6.348   0.072  11.340  0.1070  0.1587 -0.2464
 9668TIP3    H253200   6.330   0.222  11.331 -1.9400 -0.0652 -0.4025
 9669TIP3   OH253201   6.551   0.288  12.125 -0.2058 -0.1622 -0.2597
 9669TIP3    H153202   6.579   0.376  12.147 -1.2765  0.2730 -0.5747
 9669TIP3    H253203   6.617   0.255  12.064  0.1589  0.4470 -0.1909
 9670TIP3   OH253204   5.364   4.932  11.203  0.3121 -0.1851  0.3721
 9670TIP3    H153205   5.345   5.020  11.169  0.0436 -0.7065 -0.8811
 9670TIP3    H253206   5.457   4.919  11.184  0.6308  0.2319  1.5482
 9671TIP3   OH253207   7.299   0.178  12.927 -0.4558  0.8305 -0.2933
 9671TIP3    H153208   7.283   0.267  12.895 -1.9241  0.8603  0.4216
 9671TIP3    H253209   7.220   0.156  12.976 -0.2266 -0.9643 -0.6570
 9672TIP3   OH253210   1.683   4.768  10.286 -0.1097 -0.5829  0.1473
 9672TIP3    H153211   1.740   4.732  10.354  1.7809  2.5162  0.3940
 9672TIP3    H253212   1.735   4.763  10.206 -0.4218  0.1270 -0.1057
 9673TIP3   OH253213   1.414   0.174  10.446 -0.2980 -0.3643 -0.6938
 9673TIP3    H153214   1.488   0.216  10.401  0.3660 -1.3916 -0.6097
 9673TIP3    H253215   1.374   0.244  10.497  0.3783  0.3060 -1.0529
 9674TIP3   OH253216   2.228   0.208  11.323  0.3867  0.2142 -0.0497
 9674TIP3    H153217   2.279   0.143  11.276  1.1688 -0.2380  1.3663
 9674TIP3    H253218   2.141   0.167  11.333  0.9176 -0.7312  0.9793
 9675TIP3   OH253219   1.901   2.487  12.957 -0.2592  0.0041  0.4987
 9675TIP3    H153220   1.973   2.499  12.894 -0.1153  0.6765  0.7832
 9675TIP3    H253221   1.915   2.555  13.022 -1.8824  1.0040 -0.1247
 9676TIP3   OH253222   5.487   4.309  10.495  0.1373 -0.3222 -0.1149
 9676TIP3    H153223   5.567   4.298  10.444 -0.4046  0.5681 -1.2157
 9676TIP3    H253224   5.515   4.356  10.574  0.8437 -0.8876 -0.0182
 9677TIP3   OH253225   5.986   3.649  11.557 -0.3182 -0.0019 -0.3543
 9677TIP3    H153226   5.923   3.709  11.597 -0.9793  0.3421 -1.8581
 9677TIP3    H253227   6.071   3.687  11.576 -0.6388  0.3897  0.3237
 9678TIP3   OH253228   2.803   3.049  11.496 -0.0748  0.1693 -0.2402
 9678TIP3    H153229   2.892   3.080  11.513  0.0321 -0.4949  0.5064
 9678TIP3    H253230   2.816   2.966  11.449 -0.2970  0.0226 -0.0420
 9679TIP3   OH253231   6.433   3.378  10.440 -0.6771 -0.8148  0.2939
 9679TIP3    H153232   6.496   3.308  10.423 -0.0129 -0.0025 -0.6663
 9679TIP3    H253233   6.477   3.435  10.504 -0.7541 -0.6650  0.2155
 9680TIP3   OH253234   4.378   5.215  12.025 -0.7156 -0.2550  0.0833
 9680TIP3    H153235   4.428   5.256  11.954  0.1590  0.1618  0.9177
 9680TIP3    H253236   4.345   5.134  11.987 -1.3793  0.5853 -1.1971
 9681TIP3   OH253237   0.219   3.352  11.783  0.2105 -0.0046  0.2701
 9681TIP3    H153238   0.195   3.411  11.712 -0.8968  1.0911  1.4966
 9681TIP3    H253239   0.314   3.365  11.793  0.3773 -0.1586 -0.9612
 9682TIP3   OH253240   7.104   1.154  10.502 -0.7504 -0.1563  0.0956
 9682TIP3    H153241   7.074   1.145  10.412  0.3778  0.2465 -0.3289
 9682TIP3    H253242   7.123   1.247  10.513  0.5331 -0.4114  0.2702
 9683TIP3   OH253243   7.295   4.942  11.707  0.4708  0.5866  0.3914
 9683TIP3    H153244   7.338   4.886  11.642 -1.2651  0.1740 -0.4572
 9683TIP3    H253245   7.256   5.013  11.656  1.2304  1.6984  1.2841
 9684TIP3   OH253246   3.050   5.797  11.579 -0.4850  0.4386 -0.0297
 9684TIP3    H153247   2.960   5.767  11.563 -0.0437 -2.0297  1.4924
 9684TIP3    H253248   3.088   5.805  11.491 -1.9204  0.6667 -0.6667
 9685TIP3   OH253249   0.988   2.448  12.393  0.1004  0.4611 -0.2286
 9685TIP3    H153250   1.030   2.533  12.381 -1.1829  0.9838 -1.1190
 9685TIP3    H253251   0.959   2.423  12.305  0.1148 -0.7188  0.0880
 9686TIP3   OH253252   2.412   1.713  11.703  0.0737  0.1094 -0.0495
 9686TIP3    H153253   2.466   1.683  11.777  0.5061  2.1380  0.5370
 9686TIP3    H253254   2.334   1.750  11.744 -0.5416 -0.4199 -0.7385
 9687TIP3   OH253255   7.177   1.785  10.829  0.1057 -0.4420  0.1455
 9687TIP3    H153256   7.098   1.812  10.783 -0.7845 -0.5328  1.5676
 9687TIP3    H253257   7.181   1.842  10.906  0.8068 -1.1834  0.6755
 9688TIP3   OH253258   3.060   2.444  13.131  0.1774 -0.2760  0.4361
 9688TIP3    H153259   3.069   2.471  13.040 -1.5326 -0.8941  0.0358
 9688TIP3    H253260   3.011   2.362  13.127  0.5169 -0.5856  1.8955
 9689TIP3   OH253261   2.384   6.273  12.078  0.0727 -0.8558 -0.4772
 9689TIP3    H153262   2.367   6.182  12.105 -0.1434 -0.5587  0.4367
 9689TIP3    H253263   2.363   6.325  12.156  0.2378 -0.0233 -0.9790
 9690TIP3   OH253264   2.437   3.087  11.990 -0.2746 -0.0794 -0.4236
 9690TIP3    H153265   2.518   3.116  12.032 -0.6659  0.1228  0.2091
 9690TIP3    H253266   2.447   2.992  11.980 -0.1110 -0.1068 -0.0137
 9691TIP3   OH253267   1.079   7.047  11.107  0.2736  0.4124 -0.0865
 9691TIP3    H153268   1.088   6.952  11.101  0.3644  0.2555  1.7322
 9691TIP3    H253269   1.145   7.073  11.172  0.0572  1.6779 -0.3429
 9692TIP3   OH253270   4.802   3.062  10.188  0.0735  0.5435  0.0511
 9692TIP3    H153271   4.713   3.097  10.191  0.3259  1.1755  0.3502
 9692TIP3    H253272   4.858   3.135  10.217  0.6612  0.0625  0.1521
 9693TIP3   OH253273   4.983   3.263  10.867  0.1644  0.1497 -0.4045
 9693TIP3    H153274   4.923   3.295  10.800 -0.0522  0.4296 -0.0826
 9693TIP3    H253275   5.068   3.256  10.823  0.1519  0.9042 -0.5597
 9694TIP3   OH253276   6.692   5.714  11.634  1.1051 -0.0422  0.3233
 9694TIP3    H153277   6.646   5.797  11.641 -0.2918 -0.7751  0.2932
 9694TIP3    H253278   6.784   5.735  11.651  0.7677  1.4768  0.3785
 9695TIP3   OH253279   0.687   5.253  12.907  0.3719  0.6476 -0.2321
 9695TIP3    H153280   0.599   5.281  12.933  0.1118  0.2894 -0.7099
 9695TIP3    H253281   0.733   5.334  12.887  0.8514  1.0126  2.1195
 9696TIP3   OH253282   2.672   2.345  13.151 -0.1300  0.3680  0.2093
 9696TIP3    H153283   2.750   2.293  13.135 -0.8405 -0.4922 -0.5615
 9696TIP3    H253284   2.605   2.281  13.177 -0.9997  0.8768 -0.6973
 9697TIP3   OH253285   5.749   0.967  12.527  0.5100  1.0957  0.4590
 9697TIP3    H153286   5.669   1.019  12.519 -0.6298 -0.7377 -0.7686
 9697TIP3    H253287   5.731   0.906  12.599 -0.1393 -0.7466 -1.1575
 9698TIP3   OH253288   5.255   2.784  12.916  0.1781 -0.4676  0.5152
 9698TIP3    H153289   5.259   2.787  12.821 -1.6778 -0.2550  0.4161
 9698TIP3    H253290   5.293   2.699  12.939  0.6963 -0.4893 -0.3967
 9699TIP3   OH253291   4.065   1.993  13.145 -0.0506  0.3003 -0.1044
 9699TIP3    H153292   4.153   1.969  13.173 -0.0128 -0.5765 -0.9517
 9699TIP3    H253293   4.042   1.929  13.078 -1.1441  0.8151 -0.2462
 9700TIP3   OH253294   1.591   6.835  11.849  0.3161  0.1208 -0.0707
 9700TIP3    H153295   1.517   6.786  11.812  0.6375 -0.0696 -0.4649
 9700TIP3    H253296   1.660   6.769  11.859 -0.1372 -0.1228  2.0244
 9701TIP3   OH253297   0.926   1.532  12.500 -0.1470 -0.3636  0.2941
 9701TIP3    H153298   0.902   1.616  12.538 -2.2659 -0.7388 -0.1331
 9701TIP3    H253299   0.900   1.538  12.408 -1.7204 -1.9566  0.5831
 9702TIP3   OH253300   2.206   4.141  11.613  0.4679  0.0412 -0.0934
 9702TIP3    H153301   2.226   4.234  11.623  0.6460 -0.1106  1.2066
 9702TIP3    H253302   2.116   4.133  11.645 -0.3250  0.0926 -2.2101
 9703TIP3   OH253303   2.815   4.044  10.251 -0.0020 -0.0762 -0.2681
 9703TIP3    H153304   2.724   4.014  10.242  0.6633 -2.4153 -0.0643
 9703TIP3    H253305   2.831   4.042  10.346 -0.3212  2.3915 -0.1173
 9704TIP3   OH253306   6.184   4.058  11.660 -0.0197  0.1447 -0.2112
 9704TIP3    H153307   6.239   4.118  11.710 -1.2793  0.3332  1.0392
 9704TIP3    H253308   6.165   4.105  11.579 -0.4429  1.2059  0.4659
 9705TIP3   OH253309   6.206   2.090  11.690  0.4344 -0.1690  0.1211
 9705TIP3    H153310   6.164   2.116  11.772  0.6084 -0.5995  0.3487
 9705TIP3    H253311   6.298   2.115  11.701  0.6659 -1.1229  0.4609
 9706TIP3   OH253312   3.990   4.919  11.686  0.0320 -0.1650  0.3225
 9706TIP3    H153313   3.991   4.960  11.599 -2.0413  0.0770  0.3674
 9706TIP3    H253314   4.080   4.930  11.718  0.6603  0.3903 -1.4762
 9707TIP3   OH253315   4.419   5.985  11.259  0.3956  0.1729  0.1889
 9707TIP3    H153316   4.404   6.002  11.166 -0.0513  1.6927  0.5042
 9707TIP3    H253317   4.356   5.916  11.281 -2.0096  2.1620  0.0870
 9708TIP3   OH253318   4.789   2.055  12.352 -0.2598 -0.4454 -0.1465
 9708TIP3    H153319   4.740   1.989  12.400  0.7589 -0.9873  0.1637
 9708TIP3    H253320   4.746   2.138  12.374 -1.3172 -0.9513 -0.2578
 9709TIP3   OH253321   3.251   0.492  10.993 -0.4646  0.1239 -0.4389
 9709TIP3    H153322   3.257   0.493  11.088 -0.1789  0.8362 -0.4571
 9709TIP3    H253323   3.326   0.545  10.963  0.3130 -1.3072 -1.1119
 9710TIP3   OH253324   5.428   0.418  11.317 -0.0169 -0.3066  0.0964
 9710TIP3    H153325   5.450   0.387  11.230 -0.7169 -0.0064 -0.1956
 9710TIP3    H253326   5.423   0.338  11.370  0.4679 -0.4841 -0.1138
 9711TIP3   OH253327   0.829   6.290  11.726  0.3667 -0.1211 -0.1671
 9711TIP3    H153328   0.870   6.216  11.681  0.4478 -1.0047  1.2926
 9711TIP3    H253329   0.739   6.261  11.742 -0.1201  0.8015 -1.0969
 9712TIP3   OH253330   7.515   7.548  11.688  0.5824 -0.1204 -0.2767
 9712TIP3    H153331   7.477   7.593  11.764  0.8372 -2.0396  1.0494
 9712TIP3    H253332   7.507   7.612  11.616 -0.5717  1.3833  1.1087
 9713TIP3   OH253333   2.557   3.108  10.155  0.4715 -0.5391  0.8554
 9713TIP3    H153334   2.529   3.123  10.065 -1.1985 -1.4510  1.1928
 9713TIP3    H253335   2.633   3.051  10.147  0.0720 -0.9840  0.0260
 9714TIP3   OH253336   3.026   1.745  10.623 -0.0437 -0.4022 -0.2398
 9714TIP3    H153337   3.041   1.679  10.691 -0.7325 -0.7454 -0.4133
 9714TIP3    H253338   3.069   1.824  10.657  1.2300 -1.0617 -0.2637
 9715TIP3   OH253339   6.398   3.198  11.979  0.5748  0.0599  0.0552
 9715TIP3    H153340   6.331   3.223  11.916 -0.0105  0.8397  0.9493
 9715TIP3    H253341   6.360   3.221  12.064  1.1026 -1.4927  0.7373
 9716TIP3   OH253342   0.173   6.930  10.802 -0.0755  0.3882  0.8588
 9716TIP3    H153343   0.108   6.860  10.792  2.4633 -1.8201 -4.1787
 9716TIP3    H253344   0.239   6.893  10.860  0.7132 -1.1549 -0.9077
 9717TIP3   OH253345   1.921   1.150  11.043  0.7986  0.0006  1.0664
 9717TIP3    H153346   1.996   1.095  11.018 -0.6658 -2.1378  1.0542
 9717TIP3    H253347   1.920   1.147  11.138  0.8058  0.1591  1.0718
 9718TIP3   OH253348   7.034   6.525  10.679  0.5795 -0.2738  0.1660
 9718TIP3    H153349   7.002   6.470  10.751 -0.4538 -1.3117 -1.0448
 9718TIP3    H253350   7.128   6.508  10.675  1.0057  1.0968  2.3177
 9719TIP3   OH253351   3.060   3.614  11.176 -0.5968 -0.2331 -0.4266
 9719TIP3    H153352   2.986   3.629  11.234 -0.3628  0.2209 -0.2407
 9719TIP3    H253353   3.122   3.562  11.228 -1.1876 -1.4712 -0.9026
 9720TIP3   OH253354   5.601   5.755  11.600  0.9686  0.3502 -0.1070
 9720TIP3    H153355   5.571   5.719  11.516 -0.3156  0.5640  0.2267
 9720TIP3    H253356   5.677   5.807  11.578  0.6660  0.3829 -1.1468
 9721TIP3   OH253357   5.625   5.134  10.849  0.3896 -0.1604 -0.1793
 9721TIP3    H153358   5.616   5.138  10.944  0.3827 -1.4607 -0.1137
 9721TIP3    H253359   5.665   5.218  10.825 -1.9962  1.3297  0.6612
 9722TIP3   OH253360   5.534   2.766  11.418  0.8326 -0.2136  0.0052
 9722TIP3    H153361   5.607   2.811  11.376 -0.2660  0.3554 -1.3950
 9722TIP3    H253362   5.495   2.833  11.474  0.4005  0.0064 -0.5424
 9723TIP3   OH253363   0.849   6.266  11.404  0.2173  0.4565 -0.0922
 9723TIP3    H153364   0.942   6.289  11.398  0.7264 -1.6721 -1.8619
 9723TIP3    H253365   0.847   6.172  11.388 -2.1302  0.1159  1.6907
 9724TIP3   OH253366   0.521   6.200  12.259 -0.1967 -0.1210 -0.0994
 9724TIP3    H153367   0.551   6.288  12.236  1.0845  0.5318  3.4855
 9724TIP3    H253368   0.432   6.196  12.226 -0.2044  2.4063 -0.6201
 9725TIP3   OH253369   5.861   1.574  11.212  0.5522  0.3920 -0.1853
 9725TIP3    H153370   5.805   1.567  11.135  0.9039 -0.2214 -0.3947
 9725TIP3    H253371   5.831   1.506  11.271  0.0086  1.1331  0.4137
 9726TIP3   OH253372   3.637   2.960  10.267 -0.3084 -0.2569  0.8560
 9726TIP3    H153373   3.699   2.892  10.239 -0.9680 -1.1469  1.4903
 9726TIP3    H253374   3.693   3.031  10.300  0.4169  0.0062 -0.8427
 9727TIP3   OH253375   0.818   3.903  11.653 -0.3487  0.1922  0.4847
 9727TIP3    H153376   0.814   3.927  11.745 -0.8866 -0.0629  0.5363
 9727TIP3    H253377   0.890   3.841  11.647  1.4633  2.2254  0.2396
 9728TIP3   OH253378   3.899   1.447  11.067 -0.5838 -0.1775  0.8321
 9728TIP3    H153379   3.931   1.517  11.122 -1.2201 -0.6895  1.8958
 9728TIP3    H253380   3.817   1.480  11.031  0.8895  1.0171 -1.6522
 9729TIP3   OH253381   1.418   0.978  11.366  0.1725  0.0951 -0.3984
 9729TIP3    H153382   1.468   1.058  11.349  0.2255  0.4525  1.2905
 9729TIP3    H253383   1.337   0.989  11.315  0.3725  1.0287 -0.5266
 9730TIP3   OH253384   5.285   0.192  11.765 -0.2684  0.6392  0.4080
 9730TIP3    H153385   5.374   0.173  11.735 -0.3160  0.1148  0.6018
 9730TIP3    H253386   5.298   0.252  11.839 -0.0669  0.3762  0.5856
 9731TIP3   OH253387   5.624   3.103  10.776 -0.0653  0.2391 -0.2471
 9731TIP3    H153388   5.623   3.010  10.750  5.5501 -0.1388 -0.2407
 9731TIP3    H253389   5.622   3.102  10.871  0.3539  0.0777 -0.2385
 9732TIP3   OH253390   2.305   1.506  11.550  0.2783 -0.1068 -0.9889
 9732TIP3    H153391   2.338   1.582  11.598 -0.0626 -0.3342 -0.3897
 9732TIP3    H253392   2.221   1.486  11.591 -0.2556 -0.0068 -1.9956
 9733TIP3   OH253393   2.098   1.663  11.684  0.2380 -0.1247 -0.1859
 9733TIP3    H153394   2.004   1.672  11.675  0.1099 -2.3737 -2.1334
 9733TIP3    H253395   2.134   1.739  11.638 -0.5296  1.7189  2.0951
 9734TIP3   OH253396   7.416   6.828  10.987 -0.0064  0.2727 -0.0046
 9734TIP3    H153397   7.362   6.775  11.046 -0.1320 -0.1483 -0.4908
 9734TIP3    H253398   7.461   6.890  11.044 -0.3951  0.0997  0.4930
 9735TIP3   OH253399   2.520   2.139  12.528  0.0944  0.0253 -0.0547
 9735TIP3    H153400   2.583   2.079  12.489 -1.2393 -1.3714 -0.1113
 9735TIP3    H253401   2.453   2.151  12.462  0.1690  1.3762  0.0731
 9736TIP3   OH253402   0.623   2.224  12.857 -0.0774 -0.2790 -0.7335
 9736TIP3    H153403   0.544   2.275  12.843 -0.0401 -0.1017 -0.3102
 9736TIP3    H253404   0.620   2.155  12.790 -1.4224 -1.2951  0.3264
 9737TIP3   OH253405   2.858   3.416  10.167 -0.1737 -0.0000 -0.5806
 9737TIP3    H153406   2.946   3.383  10.188  0.4764  1.1885 -1.3316
 9737TIP3    H253407   2.811   3.413  10.250  0.3790 -1.2190 -0.2906
 9738TIP3   OH253408   5.279   2.053  12.189  0.2184  0.0903 -0.6451
 9738TIP3    H153409   5.194   2.024  12.155  0.1044 -1.9814  1.1622
 9738TIP3    H253410   5.342   1.996  12.146  0.8308  1.9942 -2.4089
 9739TIP3   OH253411   6.943   2.907  11.779 -0.0092 -0.0113 -0.4442
 9739TIP3    H153412   6.991   2.988  11.764  0.8430 -0.2072  1.0509
 9739TIP3    H253413   6.879   2.929  11.848 -0.5631 -0.3234 -0.8500
 9740TIP3   OH253414   6.481   5.528  11.156  0.4857 -0.2584  0.3419
 9740TIP3    H153415   6.551   5.594  11.152  0.0152  0.3479  1.4033
 9740TIP3    H253416   6.471   5.497  11.066  1.9097 -0.1449  0.1238
 9741TIP3   OH253417   6.110   2.307  11.177 -0.3935  0.3684  0.1205
 9741TIP3    H153418   6.039   2.250  11.147 -0.2211 -0.0563  0.5015
 9741TIP3    H253419   6.157   2.331  11.097  0.4906 -1.3270  0.0855
 9742TIP3   OH253420   5.831   5.924  11.556  0.1110 -0.6896  0.4338
 9742TIP3    H153421   5.825   6.013  11.519 -3.1090 -1.6662 -1.8642
 9742TIP3    H253422   5.867   5.871  11.485 -0.1539 -1.6110  0.9748
 9743TIP3   OH253423   4.634   2.557  12.293 -0.2066 -0.3993 -0.5802
 9743TIP3    H153424   4.667   2.645  12.313  2.3695 -1.4577  0.3418
 9743TIP3    H253425   4.638   2.551  12.198 -0.1015  0.3917 -0.6320
 9744TIP3   OH253426   0.804   7.671  12.834 -0.1150 -0.0283  0.3792
 9744TIP3    H153427   0.831   7.758  12.807 -0.6267 -0.0831 -0.3187
 9744TIP3    H253428   0.742   7.686  12.906  0.9668  0.1234  1.3124
 9745TIP3   OH253429   2.316   2.965  12.607  0.6220  0.2685 -0.2779
 9745TIP3    H153430   2.382   2.902  12.637 -1.3943 -1.8330  0.1024
 9745TIP3    H253431   2.322   3.038  12.668  1.9287 -0.3319  0.3408
 9746TIP3   OH253432   3.464   0.686  11.021  0.3005  0.1045 -0.3412
 9746TIP3    H153433   3.524   0.747  10.978  0.1277  2.4921  2.4562
 9746TIP3    H253434   3.519   0.638  11.084 -0.1868  0.0978  0.0902
 9747TIP3   OH253435   1.760   6.164  11.609 -0.4701  0.2562 -0.9818
 9747TIP3    H153436   1.786   6.154  11.518 -0.3688 -1.0058 -0.8326
 9747TIP3    H253437   1.839   6.198  11.653 -0.3846  0.4434 -1.2754
 9748TIP3   OH253438   4.934   3.890  11.827  0.0081 -0.1781 -0.0481
 9748TIP3    H153439   4.884   3.899  11.746 -1.4290 -0.4528  0.7812
 9748TIP3    H253440   4.922   3.973  11.873 -0.2470 -0.4870  0.4558
 9749TIP3   OH253441   4.305   6.600  12.095  0.1151 -0.0620 -0.1755
 9749TIP3    H153442   4.222   6.639  12.068 -0.6073 -2.5193 -1.8455
 9749TIP3    H253443   4.299   6.596  12.191 -1.0880  1.0253 -0.1803
 9750TIP3   OH253444   5.539   3.863  11.227 -0.1561  0.2656 -0.3108
 9750TIP3    H153445   5.535   3.783  11.278  0.0384  0.9954  0.8984
 9750TIP3    H253446   5.488   3.927  11.277 -1.5039  0.5510 -1.9495
 9751TIP3   OH253447   1.818   4.308  10.537  0.4407  0.2671  0.0809
 9751TIP3    H153448   1.887   4.242  10.527 -1.0734 -1.2461 -1.0303
 9751TIP3    H253449   1.755   4.266  10.596 -0.6721  0.6272 -0.8352
 9752TIP3   OH253450   6.398   4.963  10.808  0.1286 -0.3834  0.0181
 9752TIP3    H153451   6.405   5.051  10.845  2.0741 -0.7919  0.7475
 9752TIP3    H253452   6.325   4.922  10.855 -0.6311  0.7473 -0.1572
 9753TIP3   OH253453   3.534   6.261  10.413 -0.5614  0.1971 -0.1839
 9753TIP3    H153454   3.594   6.289  10.482  2.5902  0.1867 -2.6772
 9753TIP3    H253455   3.509   6.342  10.369 -0.6256  0.0076 -0.4961
 9754TIP3   OH253456   2.972   5.842  13.146  0.4431  0.7261 -0.4066
 9754TIP3    H153457   2.923   5.913  13.104  0.1241 -0.0536 -1.3726
 9754TIP3    H253458   2.937   5.762  13.107  2.7169  0.1419 -1.4027
 9755TIP3   OH253459   6.579   1.128  10.397 -0.3746 -0.3345 -0.7602
 9755TIP3    H153460   6.607   1.181  10.322  0.6354 -1.3662 -1.1448
 9755TIP3    H253461   6.661   1.110  10.445 -0.6751 -1.6545 -0.7191
 9756TIP3   OH253462   6.186   6.240  11.720  0.3094 -0.3490  0.3369
 9756TIP3    H153463   6.098   6.252  11.757  0.4628  0.2764  0.5084
 9756TIP3    H253464   6.171   6.189  11.640 -0.1765 -0.5060  0.5225
 9757TIP3   OH253465   3.943   3.329  11.685  0.5284  0.0197  0.7620
 9757TIP3    H153466   3.883   3.333  11.759 -0.4046  1.2860 -0.0250
 9757TIP3    H253467   4.030   3.335  11.724  0.0509  0.8254  1.7426
 9758TIP3   OH253468   2.794   5.880  11.268 -0.2542  0.1898  0.3022
 9758TIP3    H153469   2.751   5.881  11.183 -2.6984 -2.6489  1.3207
 9758TIP3    H253470   2.877   5.835  11.253  0.5863  2.0613 -0.9780
 9759TIP3   OH253471   3.328   1.546  12.001  0.3482  0.3964 -0.2303
 9759TIP3    H153472   3.287   1.552  11.915  1.2701  0.1551 -0.7021
 9759TIP3    H253473   3.348   1.636  12.025 -0.8386  0.5574  0.2076
 9760TIP3   OH253474   1.712   3.758  11.043  0.1500 -0.0195  0.0658
 9760TIP3    H153475   1.688   3.803  10.962  0.6235 -0.3742 -0.2761
 9760TIP3    H253476   1.803   3.733  11.031 -0.2370 -1.5410  0.0284
 9761TIP3   OH253477   3.055   3.541   9.762 -0.5865  0.2440 -0.2747
 9761TIP3    H153478   2.981   3.585   9.804  0.0230  0.9736  0.0501
 9761TIP3    H253479   3.117   3.612   9.742 -0.1284 -0.3108 -0.8674
 9762TIP3   OH253480   2.178   4.121  10.823 -0.1126 -0.2998 -0.0889
 9762TIP3    H153481   2.118   4.064  10.871  0.4155 -0.8486 -0.0692
 9762TIP3    H253482   2.228   4.166  10.892  2.1305 -2.6377 -0.0206
 9763TIP3   OH253483   4.910   6.887  11.248  0.3155 -0.2980  0.2543
 9763TIP3    H153484   4.831   6.902  11.196  0.1754 -0.5090  0.4046
 9763TIP3    H253485   4.935   6.797  11.227  0.7918 -0.0785 -0.1603
 9764TIP3   OH253486   0.775   0.409  11.382 -0.2291  0.2588 -0.2364
 9764TIP3    H153487   0.817   0.428  11.298  2.2061 -0.4047  0.7180
 9764TIP3    H253488   0.723   0.487  11.401  0.7922  1.2744 -1.4388
 9765TIP3   OH253489   5.248   6.969  11.781 -0.2007  0.1341  0.1413
 9765TIP3    H153490   5.241   7.058  11.816 -1.0901  0.1763 -0.1305
 9765TIP3    H253491   5.198   6.971  11.699 -0.5520 -0.7218  0.3237
 9766TIP3   OH253492   3.894   5.416  12.810  0.3074 -0.5392  0.4688
 9766TIP3    H153493   3.859   5.441  12.895 -0.4118  0.0537  0.0053
 9766TIP3    H253494   3.859   5.328  12.795 -1.8690  0.4232 -0.4369
 9767TIP3   OH253495   7.001   4.784  12.573 -0.3069 -0.2774 -0.4989
 9767TIP3    H153496   6.967   4.754  12.658  1.1432 -2.7034 -0.6745
 9767TIP3    H253497   7.029   4.703  12.529  0.7424  1.0977 -2.5010
 9768TIP3   OH253498   5.162   5.644  11.981  0.4546  0.2519  0.1094
 9768TIP3    H153499   5.234   5.680  12.034  0.7182 -2.5595  1.8692
 9768TIP3    H253500   5.084   5.661  12.033  0.2144  0.6662 -0.3776
 9769TIP3   OH253501   3.172   6.066  11.308  0.0805  0.2046 -0.1946
 9769TIP3    H153502   3.147   5.974  11.314 -0.1267  0.1248 -1.9223
 9769TIP3    H253503   3.267   6.067  11.321  0.1118 -0.2795 -0.3987
 9770TIP3   OH253504   5.248   3.225  11.063  0.5260 -0.0375 -0.3971
 9770TIP3    H153505   5.343   3.211  11.062  0.8216  1.7316 -1.2559
 9770TIP3    H253506   5.237   3.319  11.044 -1.4318 -0.3732 -1.1898
 9771TIP3   OH253507   1.077   3.662  12.471 -0.3939  0.3299 -0.0095
 9771TIP3    H153508   1.028   3.582  12.456  1.0752 -0.7259  0.5681
 9771TIP3    H253509   1.136   3.641  12.544  0.8163  1.5537 -0.5867
 9772TIP3   OH253510   2.097   4.427  12.248 -0.1956  0.5260  0.0790
 9772TIP3    H153511   2.028   4.414  12.182 -0.0497  0.5054 -0.0698
 9772TIP3    H253512   2.168   4.370  12.219 -0.4538 -0.1407  0.7165
 9773TIP3   OH253513   3.431   3.707  12.448  0.2692  0.0878  0.9576
 9773TIP3    H153514   3.484   3.743  12.377 -1.2036 -0.7435 -0.6130
 9773TIP3    H253515   3.464   3.751  12.527  0.7800  2.3550 -0.4372
 9774TIP3   OH253516   4.435   4.597  13.102  0.1076  0.2589  0.0023
 9774TIP3    H153517   4.435   4.668  13.038 -0.8254  1.4868  1.3097
 9774TIP3    H253518   4.388   4.525  13.059 -1.5975  1.4825 -0.2727
 9775TIP3   OH253519   7.524   4.410  12.628  0.5669 -0.0457  0.3032
 9775TIP3    H153520   7.568   4.427  12.544  1.4970 -0.4922  0.6825
 9775TIP3    H253521   7.480   4.326  12.615  0.4035  0.0630  0.1464
 9776TIP3   OH253522   2.857   5.598  12.797 -0.0141  0.0732  0.4332
 9776TIP3    H153523   2.775   5.552  12.810 -0.5370  1.3680  1.9266
 9776TIP3    H253524   2.887   5.622  12.885  0.7623  1.6287 -0.1977
 9777TIP3   OH253525   2.253   2.499  12.444  0.4588  0.4729  0.0203
 9777TIP3    H153526   2.195   2.514  12.370  2.3793  1.2157 -1.4208
 9777TIP3    H253527   2.293   2.414  12.425 -0.3360 -0.1762  1.1533
 9778TIP3   OH253528   7.374   6.705  11.677  0.5693  0.4407  0.5279
 9778TIP3    H153529   7.399   6.623  11.634  0.8624  0.9215 -0.2493
 9778TIP3    H253530   7.454   6.735  11.720  1.1660  1.5206 -1.2057
 9779TIP3   OH253531   4.963   4.662  12.745  0.4056  0.5224 -0.3226
 9779TIP3    H153532   5.020   4.632  12.675 -0.9464  0.8105 -1.5867
 9779TIP3    H253533   4.915   4.736  12.708 -1.4565 -0.2667  0.3382
 9780TIP3   OH253534   0.595   1.545  11.420 -0.0749 -0.0812  0.4548
 9780TIP3    H153535   0.687   1.569  11.425  0.2244 -1.0032 -0.4664
 9780TIP3    H253536   0.555   1.615  11.368  0.5313 -0.7764 -1.0092
 9781TIP3   OH253537   4.747   0.284  11.586  0.5057  0.0425 -0.3983
 9781TIP3    H153538   4.699   0.262  11.506 -0.8583 -0.4118  0.5095
 9781TIP3    H253539   4.779   0.373  11.572 -1.3776  0.7110 -0.7035
 9782TIP3   OH253540   5.673   1.488  12.275 -0.1948  0.1390 -0.3163
 9782TIP3    H153541   5.768   1.487  12.284 -0.3527 -1.0952  2.2008
 9782TIP3    H253542   5.644   1.566  12.322 -0.4601  0.6696 -1.3135
 9783TIP3   OH253543   0.720   6.972  11.563  0.0799 -0.3078 -0.0344
 9783TIP3    H153544   0.671   6.939  11.638 -1.1121  1.8798  0.2423
 9783TIP3    H253545   0.791   7.023  11.602  0.4817 -0.5865 -0.4066
 9784TIP3   OH253546   1.523   6.410  12.529 -0.1856 -0.2038  0.8039
 9784TIP3    H153547   1.487   6.426  12.616 -0.5779  0.9663  0.4363
 9784TIP3    H253548   1.563   6.493  12.503 -0.3487 -0.4392 -0.2595
 9785TIP3   OH253549   2.043   2.688  12.351  0.2212 -0.2040 -0.1488
 9785TIP3    H153550   1.982   2.642  12.292 -0.6260 -0.5940  1.0021
 9785TIP3    H253551   2.052   2.775  12.312 -3.4604  0.9544  1.1381
 9786TIP3   OH253552   6.905   6.348  12.401  0.2463 -0.4982 -0.5598
 9786TIP3    H153553   6.974   6.398  12.357 -0.1435  1.1104  0.5268
 9786TIP3    H253554   6.868   6.292  12.333  0.0386  1.4737 -2.1838
 9787TIP3   OH253555   1.455   2.432  10.313  0.0539  0.5510  0.1602
 9787TIP3    H153556   1.454   2.515  10.266 -1.3230  0.9805  0.8859
 9787TIP3    H253557   1.548   2.411  10.323  0.4058  1.6372 -0.6596
 9788TIP3   OH253558   6.856   3.221  10.779  0.4661  0.0667  0.0810
 9788TIP3    H153559   6.821   3.297  10.825 -0.6653 -0.5156  0.2037
 9788TIP3    H253560   6.779   3.174  10.747  1.0731 -1.6150  0.9623
 9789TIP3   OH253561   2.919   3.990  10.504  0.2624 -0.6332  0.1141
 9789TIP3    H153562   3.004   3.947  10.497 -0.1298 -1.4332  0.1410
 9789TIP3    H253563   2.932   4.057  10.571  1.3674  0.5142 -1.1819
 9790TIP3   OH253564   4.942   2.282  12.299  0.1850  0.3325  0.3122
 9790TIP3    H153565   4.902   2.196  12.289 -0.2195  0.6116 -0.5727
 9790TIP3    H253566   4.922   2.307  12.390  0.0074 -0.3474  0.4701
 9791TIP3   OH253567   7.284   4.579  10.867  0.6347 -0.0149 -0.3593
 9791TIP3    H153568   7.361   4.543  10.911  1.0347 -1.3718 -2.0823
 9791TIP3    H253569   7.246   4.505  10.821  0.3057  1.3365 -2.3820
 9792TIP3   OH253570   4.139   2.908  11.858  0.2439 -1.0262 -1.3908
 9792TIP3    H153571   4.111   2.962  11.785  0.9368 -1.2807 -1.8587
 9792TIP3    H253572   4.235   2.915  11.857  0.2212  1.2515  1.2295
 9793TIP3   OH253573   3.621   2.051  12.171  0.2251  0.2467 -0.4739
 9793TIP3    H153574   3.703   2.051  12.123 -0.1461 -1.3131 -1.1656
 9793TIP3    H253575   3.624   1.971  12.224 -0.2449  0.9020  0.5618
 9794TIP3   OH253576   5.886   4.945  11.359 -0.0934 -0.5884  0.1430
 9794TIP3    H153577   5.914   5.033  11.335 -1.3730 -0.0941  0.3641
 9794TIP3    H253578   5.924   4.889  11.292  2.8652 -0.2362  1.3971
 9795TIP3   OH253579   4.327   1.343  10.562 -0.1679 -0.2577 -0.0625
 9795TIP3    H153580   4.256   1.280  10.576 -0.7152  0.1863 -0.7628
 9795TIP3    H253581   4.375   1.308  10.487 -1.3206  0.8505 -1.3778
 9796TIP3   OH253582   5.809   1.803  11.372 -0.1194  0.7258  0.4460
 9796TIP3    H153583   5.783   1.713  11.350 -0.0437  0.3966  1.6290
 9796TIP3    H253584   5.886   1.792  11.428  1.7890  1.6352 -1.8425
 9797TIP3   OH253585   1.038   4.772  10.734 -0.2493 -0.5100 -0.1054
 9797TIP3    H153586   1.027   4.866  10.726  2.4589 -0.1525 -0.6334
 9797TIP3    H253587   1.034   4.739  10.644 -0.7889 -0.8431  0.0375
 9798TIP3   OH253588   3.287   2.539  12.848  0.3570 -0.0678 -0.9902
 9798TIP3    H153589   3.272   2.620  12.898  1.2934 -0.7513  0.4559
 9798TIP3    H253590   3.206   2.490  12.859  0.7823 -0.4948  0.4639
 9799TIP3   OH253591   3.473   2.860  12.961  0.4393  0.1210 -0.4561
 9799TIP3    H153592   3.415   2.884  13.033  0.2852 -0.1785 -0.4803
 9799TIP3    H253593   3.534   2.798  13.000  1.3719  1.1657 -0.1747
 9800TIP3   OH253594   1.241   5.129  11.299  0.0636 -0.4400  0.0999
 9800TIP3    H153595   1.227   5.130  11.204  0.1714 -0.7911  0.0776
 9800TIP3    H253596   1.153   5.130  11.336  0.0202 -0.3502 -0.0053
 9801TIP3   OH253597   3.088   3.999  11.900 -0.3443 -0.3268  0.4087
 9801TIP3    H153598   3.160   4.055  11.930 -2.0966  1.7703  1.0115
 9801TIP3    H253599   3.101   3.992  11.806  1.9811 -2.0938  0.7883
 9802TIP3   OH253600   3.678   2.977  10.963  0.2960  0.7492 -0.5019
 9802TIP3    H153601   3.613   2.921  10.919  0.1745 -0.1906  0.7941
 9802TIP3    H253602   3.629   3.055  10.988 -0.7730 -0.4889  1.6199
 9803TIP3   OH253603   0.188   3.112  13.131 -0.4208  0.0678 -0.1564
 9803TIP3    H153604   0.172   3.018  13.117 -0.7170  0.3103 -1.5505
 9803TIP3    H253605   0.147   3.131  13.215 -3.0532 -0.4229 -1.2472
 9804TIP3   OH253606   7.148   5.212  10.670  0.1361  0.0421 -0.1426
 9804TIP3    H153607   7.150   5.294  10.620  3.2426 -0.9370 -1.9144
 9804TIP3    H253608   7.070   5.167  10.639 -0.5130  1.4637 -0.6672
 9805TIP3   OH253609   0.759   6.729  12.113 -0.2488 -0.5112 -0.2880
 9805TIP3    H153610   0.793   6.711  12.200 -0.1695 -0.4055 -0.2975
 9805TIP3    H253611   0.831   6.775  12.068  1.2889 -3.9090 -1.6918
 9806TIP3   OH253612   0.845   5.989  11.340 -0.0755 -0.1733 -0.6029
 9806TIP3    H153613   0.932   5.968  11.307  0.1655 -1.4743  0.7160
 9806TIP3    H253614   0.787   5.978  11.265  0.4826 -2.7160 -0.7495
 9807TIP3   OH253615   2.038   1.705  11.279  0.0041 -0.0491 -0.0899
 9807TIP3    H153616   2.065   1.670  11.364  1.1509 -1.0599 -0.8201
 9807TIP3    H253617   2.085   1.788  11.271  0.4528 -0.2924 -0.0272
 9808TIP3   OH253618   4.300   1.767  12.400 -0.0938  0.6414  0.6412
 9808TIP3    H153619   4.339   1.712  12.331  0.5187 -0.4534  1.8220
 9808TIP3    H253620   4.281   1.850  12.356  1.0753  0.2667 -0.6539
 9809TIP3   OH253621   5.059   0.457  11.500  0.2112  0.1575  0.0206
 9809TIP3    H153622   5.017   0.495  11.577  1.2452 -2.1527  1.8726
 9809TIP3    H253623   5.128   0.519  11.477 -0.8596  1.4502  0.1744
 9810TIP3   OH253624   1.221   5.502  11.150 -0.0829 -0.3444 -0.3385
 9810TIP3    H153625   1.175   5.568  11.202  0.8502 -1.4762  2.1084
 9810TIP3    H253626   1.286   5.552  11.100  0.9416  0.6520  1.8277
 9811TIP3   OH253627   5.719   4.892  13.025  0.3094  0.1533  0.3802
 9811TIP3    H153628   5.678   4.974  13.052 -0.2791 -0.3184  0.9542
 9811TIP3    H253629   5.689   4.827  13.090  0.6633 -0.5441 -0.1341
 9812TIP3   OH253630   6.970   2.899  12.403  0.1207  0.8287  0.3595
 9812TIP3    H153631   6.887   2.886  12.448 -0.0044  0.1863 -0.0483
 9812TIP3    H253632   6.948   2.950  12.325 -0.0064  0.0574 -0.1164
 9813TIP3   OH253633   3.710   0.921  12.404  0.2413 -0.5481 -0.4084
 9813TIP3    H153634   3.731   1.012  12.423  2.1892 -1.0047 -0.0988
 9813TIP3    H253635   3.773   0.871  12.456 -0.8309 -2.0810 -0.5165
 9814TIP3   OH253636   6.646   7.450  11.260  0.0600  0.0699 -0.5434
 9814TIP3    H153637   6.674   7.395  11.333 -0.3439  1.0274  0.3680
 9814TIP3    H253638   6.721   7.453  11.201  0.2197 -1.1167 -0.4159
 9815TIP3   OH253639   6.235   6.398  11.402 -0.1311  0.0233 -0.3344
 9815TIP3    H153640   6.244   6.461  11.474  0.0315 -0.8368  0.4140
 9815TIP3    H253641   6.221   6.453  11.324  1.1026  1.0445  0.1107
 9816TIP3   OH253642   1.102   4.797  12.513 -0.1518  0.5515  0.1607
 9816TIP3    H153643   1.018   4.781  12.470 -0.9833  0.5965  1.6856
 9816TIP3    H253644   1.145   4.863  12.459 -0.7980  0.0224 -1.0223
 9817TIP3   OH253645   3.677   1.426  12.245  0.0454 -0.3239 -0.9129
 9817TIP3    H153646   3.662   1.521  12.245  1.3041 -0.0908 -2.0763
 9817TIP3    H253647   3.646   1.397  12.331 -1.1076  1.0035 -0.8377
 9818TIP3   OH253648   5.224   3.579  12.588 -0.2360  0.4483  0.4650
 9818TIP3    H153649   5.222   3.491  12.626 -0.2146 -0.2999 -1.1915
 9818TIP3    H253650   5.188   3.568  12.500  3.0502  1.3517 -1.1646
 9819TIP3   OH253651   6.621   2.576  10.195  0.5461 -0.4869  0.4381
 9819TIP3    H153652   6.527   2.591  10.207  0.0584 -0.1931 -2.7837
 9819TIP3    H253653   6.661   2.662  10.211 -0.1869  0.2320 -1.3716
 9820TIP3   OH253654   7.484   4.307  11.150 -0.5424 -0.4104 -0.1184
 9820TIP3    H153655   7.444   4.392  11.168 -0.7765 -0.3093 -1.0881
 9820TIP3    H253656   7.426   4.266  11.086  0.9746 -0.1784 -1.7251
 9821TIP3   OH253657   2.813   1.412  12.231  0.3921  0.1995  0.3441
 9821TIP3    H153658   2.738   1.401  12.289  0.8432  0.9996  1.0944
 9821TIP3    H253659   2.779   1.388  12.144 -0.2360 -1.1868  0.9329
 9822TIP3   OH253660   7.194   1.096  11.202  0.1494  0.3889 -0.6459
 9822TIP3    H153661   7.283   1.093  11.239  0.0358  1.7678 -0.1841
 9822TIP3    H253662   7.168   1.005  11.194  1.6528 -0.0448 -0.8882
 9823TIP3   OH253663   4.012   6.715  12.800 -0.1010 -0.3217  0.1739
 9823TIP3    H153664   3.984   6.803  12.827 -0.2635 -0.0088 -0.9794
 9823TIP3    H253665   3.995   6.660  12.877  1.0636  0.8417  1.3073
 9824TIP3   OH253666   4.113   5.888  11.734 -0.1811  0.1413  0.5523
 9824TIP3    H153667   4.101   5.916  11.643 -1.1514  0.0032  0.6291
 9824TIP3    H253668   4.114   5.793  11.730 -0.7272  0.1248  0.7424
 9825TIP3   OH253669   0.878   4.634  11.211 -0.0893  0.3951  0.1756
 9825TIP3    H153670   0.907   4.687  11.137  0.9344  0.1023  0.3390
 9825TIP3    H253671   0.922   4.672  11.286 -1.6310  1.0905  0.7565
 9826TIP3   OH253672   2.970   5.707  13.392  0.0217 -0.7052  0.0246
 9826TIP3    H153673   2.985   5.748  13.307 -0.0591 -0.5844  0.0679
 9826TIP3    H253674   2.888   5.745  13.422  1.8992  2.3640  1.9574
 9827TIP3   OH253675   3.332   4.037  12.051 -0.2789  0.1501  0.0023
 9827TIP3    H153676   3.341   4.125  12.088  1.1426 -0.2078  0.5926
 9827TIP3    H253677   3.312   3.982  12.127 -1.5229 -0.0050 -0.4158
 9828TIP3   OH253678   5.236   6.479  11.169  0.0776 -0.6550  0.0941
 9828TIP3    H153679   5.318   6.526  11.168 -0.0967 -0.3524 -1.1557
 9828TIP3    H253680   5.216   6.467  11.262  0.3115  1.3876  0.4470
 9829TIP3   OH253681   6.520   6.065  12.042  0.6169  0.1970 -0.5155
 9829TIP3    H153682   6.493   6.156  12.054 -1.8615 -0.5879  0.4755
 9829TIP3    H253683   6.530   6.031  12.130  1.7621 -0.4606 -0.8766
 9830TIP3   OH253684   6.478   5.649  10.409  1.0041  0.4295 -0.1761
 9830TIP3    H153685   6.388   5.663  10.380  0.5669  2.5036  1.8603
 9830TIP3    H253686   6.526   5.726  10.379  1.8252 -0.0548 -0.1608
 9831TIP3   OH253687   0.866   2.582  11.016 -0.2108 -0.2770 -0.5895
 9831TIP3    H153688   0.804   2.627  11.074  0.5009  0.4545 -0.3676
 9831TIP3    H253689   0.935   2.647  11.002 -0.3841 -0.4253 -2.2945
 9832TIP3   OH253690   4.726   5.839  10.457 -0.4603  0.1081 -0.1681
 9832TIP3    H153691   4.740   5.932  10.470  0.0066 -0.2136  2.0985
 9832TIP3    H253692   4.811   5.799  10.474 -0.7827 -0.7706 -0.5458
 9833TIP3   OH253693   4.055   3.408  11.300 -0.2810  0.1691 -0.0202
 9833TIP3    H153694   4.071   3.484  11.355 -2.6531 -0.1248  1.2114
 9833TIP3    H253695   3.967   3.420  11.266 -0.3163 -1.5311 -0.6694
 9834TIP3   OH253696   6.960   2.050  13.311 -0.5558 -0.3671  0.4654
 9834TIP3    H153697   6.882   2.065  13.365 -0.8388  2.7599 -0.5678
 9834TIP3    H253698   6.925   2.034  13.223 -0.0755 -0.3250  0.2652
 9835TIP3   OH253699   0.312   7.163  12.692  0.5687 -0.3057  0.4585
 9835TIP3    H153700   0.291   7.201  12.777  0.7400  1.1556 -0.1313
 9835TIP3    H253701   0.245   7.197  12.633  0.2331 -1.6035  0.0570
 9836TIP3   OH253702   2.599   1.928  12.010 -0.4098 -0.4339  0.2835
 9836TIP3    H153703   2.511   1.892  12.022 -1.8943  2.4821 -0.8500
 9836TIP3    H253704   2.596   1.970  11.924  0.9821  2.6037  1.5828
 9837TIP3   OH253705   2.327   1.843  12.519 -0.7339 -0.1459  0.7443
 9837TIP3    H153706   2.337   1.792  12.600 -0.4450  0.1103  0.8687
 9837TIP3    H253707   2.415   1.872  12.498 -0.7169 -0.6866  0.0208
 9838TIP3   OH253708   0.096   3.810  10.841  0.0157  0.0695 -0.3355
 9838TIP3    H153709   0.104   3.760  10.759 -1.6029  0.4465 -0.7536
 9838TIP3    H253710   0.022   3.770  10.886  0.4254  0.3564  0.6166
 9839TIP3   OH253711   6.732   6.306  12.193 -0.2494 -0.3590 -0.0469
 9839TIP3    H153712   6.784   6.323  12.114 -0.2696 -0.0814 -0.0016
 9839TIP3    H253713   6.723   6.392  12.235  0.0183 -0.5500  0.4178
 9840TIP3   OH253714   5.770   0.798  11.258  0.1275  0.5626  0.5719
 9840TIP3    H153715   5.718   0.827  11.182 -0.3142 -1.3893  0.0710
 9840TIP3    H253716   5.713   0.813  11.333 -1.1544 -1.2926  0.0521
 9841TIP3   OH253717   6.549   1.335  10.214 -0.0580 -0.1450  0.6356
 9841TIP3    H153718   6.629   1.386  10.221 -0.0453 -0.1337  0.4088
 9841TIP3    H253719   6.524   1.340  10.121 -2.2202  2.7452  1.2293
 9842TIP3   OH253720   0.285   4.440  11.678  0.0229 -0.5431 -0.6430
 9842TIP3    H153721   0.288   4.350  11.711 -3.4158 -0.1202  1.2775
 9842TIP3    H253722   0.309   4.432  11.585  1.5456 -3.0971 -0.1326
 9843TIP3   OH253723   0.039   2.948  11.791 -0.3817  0.5506 -0.0679
 9843TIP3    H153724   0.039   2.899  11.708 -0.5644  1.4640 -0.6286
 9843TIP3    H253725  -0.050   2.983  11.798  0.0392  1.7254 -0.2655
 9844TIP3   OH253726   2.942   3.233  13.127 -0.5716  0.4014 -0.0347
 9844TIP3    H153727   2.849   3.250  13.142 -0.3977 -0.1648  1.9924
 9844TIP3    H253728   2.968   3.299  13.063 -1.9770  1.7013  0.6610
 9845TIP3   OH253729   3.076   7.325  10.576  0.1653  0.0989  0.6722
 9845TIP3    H153730   3.047   7.406  10.619  0.9164  0.0856  1.2258
 9845TIP3    H253731   2.996   7.271  10.571 -0.0231  0.2559  1.7258
 9846TIP3   OH253732   7.388   6.915  12.165 -0.1639 -0.0997 -0.0799
 9846TIP3    H153733   7.462   6.960  12.206 -1.1503  0.7573  0.8024
 9846TIP3    H253734   7.418   6.824  12.154  1.9440  0.7298 -2.0736
 9847TIP3   OH253735   7.476   3.959  11.688 -0.1469 -0.0682  0.4641
 9847TIP3    H153736   7.500   3.901  11.760  1.4868 -0.6175 -0.4807
 9847TIP3    H253737   7.421   4.026  11.730 -2.9834 -2.7323  1.4227
 9848TIP3   OH253738   1.215   1.320  11.052  0.0684 -0.0714 -0.3483
 9848TIP3    H153739   1.244   1.404  11.089  1.4222 -0.6301 -0.0651
 9848TIP3    H253740   1.120   1.324  11.055  0.1108  1.3094 -0.0101
 9849TIP3   OH253741   4.437   3.219  11.522  0.1820  0.2827  0.2838
 9849TIP3    H153742   4.418   3.274  11.598 -0.4661 -0.3644  0.5958
 9849TIP3    H253743   4.359   3.165  11.511  0.5495 -0.1177 -0.4189
 9850TIP3   OH253744   4.520   5.985  10.346  0.0441 -0.5760  0.0787
 9850TIP3    H153745   4.595   5.926  10.354 -0.1777 -0.8594  0.0901
 9850TIP3    H253746   4.534   6.031  10.262  0.6714  0.0038  0.4852
 9851TIP3   OH253747   5.685   3.758  12.063 -0.3753  0.0521  0.1458
 9851TIP3    H153748   5.610   3.748  12.004 -0.1197  2.0842 -0.6273
 9851TIP3    H253749   5.650   3.808  12.137  0.0265  0.3039  0.1670
 9852TIP3   OH253750   5.685   5.277  11.377 -0.2624 -0.3241 -0.5459
 9852TIP3    H153751   5.623   5.223  11.426 -0.7804 -0.5527 -1.4278
 9852TIP3    H253752   5.766   5.272  11.428 -1.4827  1.7434  1.8239
 9853TIP3   OH253753   3.121   2.079  11.105  0.4863  0.7156  0.0451
 9853TIP3    H153754   3.114   2.171  11.132 -2.4667  0.7718 -0.4911
 9853TIP3    H253755   3.134   2.083  11.010  0.4799  0.5868  0.0387
 9854TIP3   OH253756   3.253   6.827  11.237  0.5124  0.1776  0.3421
 9854TIP3    H153757   3.206   6.908  11.216  1.7562  0.3271 -2.1628
 9854TIP3    H253758   3.191   6.757  11.214  0.8006  0.3967 -1.1819
 9855TIP3   OH253759   0.794   7.135  12.713  0.4820 -0.0785  0.9164
 9855TIP3    H153760   0.877   7.118  12.757 -0.0476  1.0019  2.4146
 9855TIP3    H253761   0.771   7.225  12.737 -0.9625 -0.2345  0.2674
 9856TIP3   OH253762   7.665   3.006  10.740 -0.1710  0.3948  0.4544
 9856TIP3    H153763   7.609   3.047  10.805  2.2479  2.2963  1.4756
 9856TIP3    H253764   7.658   2.912  10.759 -2.7427  0.5331  0.6431
 9857TIP3   OH253765   6.945   5.030  13.196 -0.7197 -1.1166 -0.4571
 9857TIP3    H153766   6.876   5.092  13.219 -0.8139 -2.0369  2.0728
 9857TIP3    H253767   7.011   5.084  13.152 -1.5737  0.4304  0.0635
 9858TIP3   OH253768   6.073   2.769  12.567  0.2297 -0.3625 -0.1015
 9858TIP3    H153769   6.089   2.709  12.641  2.6739  0.3550  0.0457
 9858TIP3    H253770   6.159   2.778  12.525 -0.9370 -0.1372 -2.6038
 9859TIP3   OH253771   1.494   2.368  11.561  0.0354 -0.0021 -0.5288
 9859TIP3    H153772   1.537   2.451  11.542 -1.4384  1.5486  2.1746
 9859TIP3    H253773   1.402   2.383  11.540 -0.0017 -1.6685 -1.8071
 9860TIP3   OH253774   5.348   0.747  11.997  0.0798 -0.0799  0.9437
 9860TIP3    H153775   5.286   0.819  11.993  3.2185  2.8523 -1.7302
 9860TIP3    H253776   5.390   0.756  12.083  1.2200  2.2154  0.2301
 9861TIP3   OH253777   6.630   4.453  12.892 -0.5011 -0.5061  0.0087
 9861TIP3    H153778   6.698   4.499  12.942  0.6847 -0.5848 -1.4835
 9861TIP3    H253779   6.656   4.463  12.801 -0.9351 -2.9610 -0.4557
 9862TIP3   OH253780   6.770   0.630  10.704 -0.3149  0.1426  0.0535
 9862TIP3    H153781   6.859   0.662  10.685  0.0289 -1.0378 -0.3876
 9862TIP3    H253782   6.723   0.640  10.621  0.4420 -2.5332 -0.8056
 9863TIP3   OH253783   2.036   2.634  10.894 -0.2093  0.0837  0.3121
 9863TIP3    H153784   1.973   2.703  10.873  0.3332  0.4916 -0.0065
 9863TIP3    H253785   2.022   2.616  10.987 -0.9883 -0.0355  0.1771
 9864TIP3   OH253786   4.721   3.989  12.157 -0.9062  0.1474 -0.4017
 9864TIP3    H153787   4.763   4.062  12.112 -0.8656  0.3926  0.0264
 9864TIP3    H253788   4.654   3.958  12.096 -0.7473  0.3755 -0.6918
 9865TIP3   OH253789   4.497   3.924  12.037 -0.2104 -0.2400 -0.1966
 9865TIP3    H153790   4.501   3.828  12.032 -2.2511 -0.3451 -0.6764
 9865TIP3    H253791   4.433   3.949  11.970  1.4250  1.6133 -1.1463
 9866TIP3   OH253792   4.205   1.722  11.493  0.2925  0.3806  0.4298
 9866TIP3    H153793   4.138   1.787  11.472 -0.1846  0.1542  1.2197
 9866TIP3    H253794   4.221   1.676  11.411 -1.7805 -0.7177  0.5743
 9867TIP3   OH253795   4.546   4.826  11.366 -0.1432 -0.0406  0.1551
 9867TIP3    H153796   4.625   4.836  11.419 -0.9315 -0.3104  1.4175
 9867TIP3    H253797   4.483   4.783  11.424 -0.8048 -1.0563 -1.2357
 9868TIP3   OH253798   5.668   2.486  11.637  0.3189  0.5452  0.6411
 9868TIP3    H153799   5.624   2.569  11.658 -0.5711  0.1268  0.4557
 9868TIP3    H253800   5.677   2.442  11.721  0.7864  0.8156  0.7390
 9869TIP3   OH253801   4.821   6.974  12.197 -0.3437 -0.0300  0.2381
 9869TIP3    H153802   4.893   6.923  12.235 -0.5468 -0.5240 -0.0265
 9869TIP3    H253803   4.794   6.923  12.120 -0.3620  0.6274 -0.1971
 9870TIP3   OH253804   1.276   3.282  12.741 -0.4773  0.0019 -0.2357
 9870TIP3    H153805   1.273   3.232  12.822 -0.4240 -0.4006 -0.4790
 9870TIP3    H253806   1.189   3.271  12.703  0.2240 -1.8687 -1.4468
 9871TIP3   OH253807   3.968   6.257  12.325  0.0839 -0.4372 -0.3035
 9871TIP3    H153808   4.055   6.278  12.291 -0.6379  1.9564 -0.8309
 9871TIP3    H253809   3.928   6.203  12.256  0.6059 -0.2551 -0.7582
 9872TIP3   OH253810   1.120   4.561  11.838  0.0397 -0.6223  0.0500
 9872TIP3    H153811   1.125   4.589  11.929  3.2890 -0.7296  0.0311
 9872TIP3    H253812   1.101   4.641  11.790 -2.5217 -0.7057  0.8045
 9873TIP3   OH253813   1.893   0.226  11.175 -0.0162 -0.4099 -0.2257
 9873TIP3    H153814   1.809   0.211  11.131 -0.9321  0.4261  1.1848
 9873TIP3    H253815   1.884   0.183  11.260  0.5760  0.5907  0.3585
 9874TIP3   OH253816   0.167   7.546  10.699 -0.4166  0.0140 -0.3452
 9874TIP3    H153817   0.193   7.455  10.683  2.1574  0.2502  1.8031
 9874TIP3    H253818   0.250   7.592  10.709 -1.6786  1.9762  1.7662
 9875TIP3   OH253819   5.573   3.820  12.296  0.1539  0.1499  0.0147
 9875TIP3    H153820   5.529   3.735  12.283 -0.5242  0.3971  0.6243
 9875TIP3    H253821   5.583   3.827  12.391  1.1954  0.2673 -0.0991
 9876TIP3   OH253822   1.599   6.363  11.791 -0.0348  0.3380  0.5059
 9876TIP3    H153823   1.630   6.285  11.745  0.7020  0.8571  0.1161
 9876TIP3    H253824   1.602   6.433  11.726 -1.5079  0.5265  0.6183
 9877TIP3   OH253825   0.904   2.765  11.467 -0.4879 -0.1734  0.2588
 9877TIP3    H153826   0.899   2.686  11.521  0.9133 -0.1584  0.4607
 9877TIP3    H253827   0.992   2.762  11.429  0.0307  1.8470  1.1515
 9878TIP3   OH253828   2.032   3.915  12.422 -0.4102  0.1838  0.1518
 9878TIP3    H153829   2.026   4.003  12.459 -0.3525 -0.5777  2.0960
 9878TIP3    H253830   2.125   3.893  12.427 -0.2659  0.3700 -1.2931
 9879TIP3   OH253831   4.656   3.219  10.746 -0.0330  0.6122 -0.1566
 9879TIP3    H153832   4.603   3.138  10.746  0.0956  0.5256  0.4438
 9879TIP3    H253833   4.718   3.206  10.674  0.7182 -0.3164  0.6223
 9880TIP3   OH253834   1.857   2.715  11.747  0.0823  0.4764  0.0718
 9880TIP3    H153835   1.830   2.630  11.712  0.3842  0.7461 -0.8448
 9880TIP3    H253836   1.791   2.735  11.813 -1.9409  1.0141 -1.9587
 9881TIP3   OH253837   3.568   5.899  10.616  0.2228 -0.5436  0.5564
 9881TIP3    H153838   3.654   5.887  10.577  0.9164  0.0103  1.8524
 9881TIP3    H253839   3.586   5.919  10.708 -1.2081  1.2881  0.4877
 9882TIP3   OH253840   2.458   1.922  11.138  0.4264 -0.2074 -0.3756
 9882TIP3    H153841   2.551   1.917  11.158  0.3522 -0.3655 -0.0724
 9882TIP3    H253842   2.451   1.890  11.047  0.5647 -1.0237 -0.1083
 9883TIP3   OH253843   3.065   7.617  11.799  0.4289 -0.5444  0.0961
 9883TIP3    H153844   3.141   7.594  11.852  0.7209  0.1214 -0.0228
 9883TIP3    H253845   3.028   7.694  11.843 -0.4914 -1.1801  0.4606
 9884TIP3   OH253846   4.679   7.196  12.774  1.0764  0.2507  0.2418
 9884TIP3    H153847   4.595   7.243  12.776  0.8244 -0.1842 -0.1210
 9884TIP3    H253848   4.735   7.249  12.717  1.3797  1.0838  1.2763
 9885TIP3   OH253849   2.507   0.265  12.181  0.1001  0.2798 -0.1242
 9885TIP3    H153850   2.433   0.255  12.241  0.8628  0.2717  0.8443
 9885TIP3    H253851   2.584   0.247  12.235  0.8804  1.3396 -0.8422
 9886TIP3   OH253852   3.215   6.187  10.608 -0.1578 -0.3916  0.1894
 9886TIP3    H153853   3.299   6.199  10.652  0.4303  1.0903 -1.2036
 9886TIP3    H253854   3.233   6.122  10.540 -0.6434 -1.4757  1.0813
 9887TIP3   OH253855   1.956   5.796  13.175  0.3185  0.3311  0.6069
 9887TIP3    H153856   1.897   5.851  13.123 -1.9382 -0.6966  1.9283
 9887TIP3    H253857   2.004   5.857  13.230  0.1489  1.1646 -0.1407
 9888TIP3   OH253858   3.335   3.399  12.676 -0.0906 -0.0761  0.4169
 9888TIP3    H153859   3.311   3.489  12.701  0.8085  0.6487 -1.1939
 9888TIP3    H253860   3.401   3.374  12.741  0.6022  0.9273  0.1238
 9889TIP3   OH253861   5.521   6.728  12.204 -0.7019  0.8915  0.3269
 9889TIP3    H153862   5.516   6.707  12.111  3.6245 -0.8856  0.2321
 9889TIP3    H253863   5.572   6.810  12.207  2.0956 -0.7204  0.9735
 9890TIP3   OH253864   1.270   3.731  11.011  0.1099  0.6098 -0.3883
 9890TIP3    H153865   1.300   3.645  10.982 -0.0621  0.5522 -0.3963
 9890TIP3    H253866   1.341   3.791  10.987  0.3317  0.4339 -0.1739
 9891TIP3   OH253867   2.507   0.604  11.120  0.2639  0.2326 -0.3789
 9891TIP3    H153868   2.434   0.543  11.119  1.4032 -1.4831  3.2408
 9891TIP3    H253869   2.469   0.687  11.149 -0.4310 -0.3096  0.2762
 9892TIP3   OH253870   7.033   2.422  11.093 -0.4233  0.5325 -0.2440
 9892TIP3    H153871   6.961   2.484  11.107  0.6289  1.8893 -0.6426
 9892TIP3    H253872   7.091   2.467  11.031  0.6537 -0.6247 -0.1054
 9893TIP3   OH253873   3.356   0.565  11.942  0.2984  0.3178 -0.2235
 9893TIP3    H153874   3.349   0.609  11.858 -1.2056  3.4321  1.3689
 9893TIP3    H253875   3.268   0.566  11.978  0.1401 -4.1160  0.0859
 9894TIP3   OH253876   0.178   6.995  13.039 -0.2240 -0.1039  0.4823
 9894TIP3    H153877   0.084   6.999  13.054 -0.7563 -1.2222 -2.0054
 9894TIP3    H253878   0.191   6.915  12.988  2.1090 -0.0835  0.9375
 9895TIP3   OH253879   2.964   2.385   9.976 -0.2526 -0.3590 -0.8477
 9895TIP3    H153880   2.868   2.389   9.986 -0.0937  1.0002  0.5418
 9895TIP3    H253881   2.980   2.303   9.931 -1.9104 -1.9396  1.2335
 9896TIP3   OH253882   0.700   4.995  12.338  0.4279 -0.4425 -0.1376
 9896TIP3    H153883   0.648   5.001  12.258  0.0857 -0.0991  0.1088
 9896TIP3    H253884   0.731   5.084  12.353  0.2007 -0.4419  0.3099
 9897TIP3   OH253885   5.441   7.266  11.243  0.3296 -0.2402  0.1687
 9897TIP3    H153886   5.484   7.283  11.160  0.3147  1.6830  0.5064
 9897TIP3    H253887   5.353   7.237  11.219  0.2121  0.6396 -0.4880
 9898TIP3   OH253888   3.782   2.791  12.001  0.3803 -0.5521  0.6872
 9898TIP3    H153889   3.871   2.823  12.018  0.8158 -1.1960 -0.3014
 9898TIP3    H253890   3.758   2.830  11.917 -0.3227 -0.2969  0.9979
 9899TIP3   OH253891   4.851   1.720  11.578 -0.7322  0.1522  0.0906
 9899TIP3    H153892   4.911   1.794  11.587  0.4861 -0.7460 -0.3553
 9899TIP3    H253893   4.847   1.681  11.665  0.3632 -0.5387 -0.1536
 9900TIP3   OH253894   0.888   4.779  12.335  0.2113  0.0937  0.1389
 9900TIP3    H153895   0.888   4.849  12.270 -1.2678  0.1814  0.2036
 9900TIP3    H253896   0.807   4.792  12.385 -0.2585 -1.8014 -0.0185
 9901TIP3   OH253897   6.700   3.123  11.092  0.4225  0.2092 -0.0768
 9901TIP3    H153898   6.713   3.209  11.130 -0.9986  1.4190 -2.1180
 9901TIP3    H253899   6.605   3.108  11.097 -0.1654  1.1586 -4.2469
 9902TIP3   OH253900   7.668   0.181  12.323  0.0372  0.1774 -0.6773
 9902TIP3    H153901   7.656   0.086  12.321 -0.1295  0.1951 -2.0441
 9902TIP3    H253902   7.734   0.196  12.390 -0.8582 -0.7792  0.4535
 9903TIP3   OH253903   6.698   4.833  13.257 -0.3690  0.4407 -0.1787
 9903TIP3    H153904   6.663   4.837  13.168  1.6728  0.4677 -1.0483
 9903TIP3    H253905   6.669   4.914  13.298  0.0975  1.2727 -1.4205
 9904TIP3   OH253906   0.936   4.390  10.672 -0.0539 -0.1148 -0.0664
 9904TIP3    H153907   0.852   4.435  10.678  0.1600  0.2273  0.3970
 9904TIP3    H253908   0.970   4.413  10.585 -1.1950 -1.6143 -0.9666
 9905TIP3   OH253909   1.600   4.098  11.148  0.4541  0.5173  0.3793
 9905TIP3    H153910   1.528   4.040  11.124 -0.4966  1.4325  0.9139
 9905TIP3    H253911   1.559   4.184  11.155  1.8652  1.3019 -0.5981
 9906TIP3   OH253912   3.860   5.139  12.759 -0.2168 -0.2795 -0.4344
 9906TIP3    H153913   3.822   5.054  12.780 -0.8748 -0.0384 -0.6208
 9906TIP3    H253914   3.925   5.120  12.691 -1.1192 -0.5008 -1.2505
 9907TIP3   OH253915   6.083   4.212  12.088  0.1278  0.2401  0.3998
 9907TIP3    H153916   6.056   4.223  12.179 -0.8251  0.0070  0.1593
 9907TIP3    H253917   6.111   4.121  12.082 -1.3083 -0.2146  0.1148
 9908TIP3   OH253918   5.413   1.152  12.036  0.4863  0.0161  0.3776
 9908TIP3    H153919   5.477   1.191  11.978  0.0583  0.4257  0.1752
 9908TIP3    H253920   5.457   1.076  12.074  0.0910 -1.5152 -2.0541
 9909TIP3   OH253921   7.458   1.060  11.300 -0.7316  0.1449 -0.2836
 9909TIP3    H153922   7.537   1.035  11.253 -0.0951 -0.7579  1.1768
 9909TIP3    H253923   7.487   1.129  11.360 -1.2658  0.4856 -0.4136
 9910TIP3   OH253924   0.059   6.076  12.348 -0.6327  0.1528  0.6354
 9910TIP3    H153925   0.009   6.157  12.347 -1.6841 -0.4858  0.6190
 9910TIP3    H253926   0.131   6.093  12.409  0.6366  1.9377 -1.1903
 9911TIP3   OH253927   4.026   2.947  13.090 -1.0438  0.1737 -0.1096
 9911TIP3    H153928   4.028   2.992  13.175 -1.1890 -1.4686  0.8201
 9911TIP3    H253929   3.937   2.911  13.084 -0.3911 -1.5932  0.1174
 9912TIP3   OH253930   5.934   4.883  10.491 -0.6268 -0.3134  0.2759
 9912TIP3    H153931   5.863   4.906  10.551 -1.0947  1.9208 -1.0169
 9912TIP3    H253932   5.890   4.854  10.412 -0.1286  0.5244 -0.3282
 9913TIP3   OH253933   1.827   3.884  13.082 -0.1877  0.4243 -0.0468
 9913TIP3    H153934   1.834   3.965  13.031  0.6007  0.5499  0.2400
 9913TIP3    H253935   1.894   3.893  13.149 -1.1288  0.2108  0.9512
 9914TIP3   OH253936   6.292   7.502  12.095 -0.0235 -0.2961  0.4107
 9914TIP3    H153937   6.314   7.592  12.072 -0.2823  0.3670  2.5207
 9914TIP3    H253938   6.216   7.481  12.041  0.2642  0.6235 -0.3649
 9915TIP3   OH253939   0.369   0.475  10.890 -0.2683  0.5505 -0.1222
 9915TIP3    H153940   0.346   0.565  10.914  0.6925  0.6601  0.4194
 9915TIP3    H253941   0.285   0.428  10.889 -0.5512  0.9721  1.6149
 9916TIP3   OH253942   3.445   5.892  11.590  0.3726 -0.0943  0.0197
 9916TIP3    H153943   3.483   5.923  11.672  0.3486  0.7062 -0.2673
 9916TIP3    H253944   3.436   5.970  11.537  0.1490 -0.5739 -0.6558
 9917TIP3   OH253945   3.741   6.788  11.382 -0.5097  0.7528 -0.3587
 9917TIP3    H153946   3.797   6.846  11.434  1.3103 -0.6508 -0.6321
 9917TIP3    H253947   3.692   6.737  11.446  0.3614  0.3065 -0.0365
 9918TIP3   OH253948   1.938   1.438  11.480 -0.2473 -0.1768  0.6634
 9918TIP3    H153949   1.982   1.388  11.548  0.1648  0.7578  1.1160
 9918TIP3    H253950   1.890   1.506  11.528 -0.6678 -0.0441  0.0650
 9919TIP3   OH253951   1.300   1.165  12.540  0.7369 -0.0212  0.1135
 9919TIP3    H153952   1.323   1.075  12.516  1.0116 -0.2458  1.1996
 9919TIP3    H253953   1.344   1.219  12.474  1.2979 -0.6348 -0.0230
 9920TIP3   OH253954   3.051   0.350  11.909 -0.0690 -0.1232 -0.1946
 9920TIP3    H153955   3.032   0.414  11.840  1.0464 -1.4370 -1.7906
 9920TIP3    H253956   3.138   0.316  11.887  1.1773  0.7125  2.9392
 9921TIP3   OH253957   3.280   5.843  11.052  0.0837  0.0236  0.2356
 9921TIP3    H153958   3.242   5.776  11.110  1.0627  0.7652  1.8250
 9921TIP3    H253959   3.362   5.867  11.095  1.7346 -0.5477 -2.3506
 9922TIP3   OH253960   6.057   0.801  10.647 -0.4095  0.0053 -0.0239
 9922TIP3    H153961   6.001   0.789  10.570  1.6515  1.0123 -1.7986
 9922TIP3    H253962   6.145   0.781  10.616  0.5922  1.1536  1.8984
 9923TIP3   OH253963   3.628   4.284  13.336  0.6718 -0.4861  0.3645
 9923TIP3    H153964   3.611   4.344  13.263  0.9809 -1.2374 -0.3378
 9923TIP3    H253965   3.557   4.220  13.332  0.6577 -0.5018  0.7690
 9924TIP3   OH253966   2.580   0.525  11.538 -0.1009 -0.4997 -0.0157
 9924TIP3    H153967   2.546   0.448  11.584  2.5287 -1.4108  0.5259
 9924TIP3    H253968   2.588   0.496  11.447 -0.5038 -0.3503 -0.1036
 9925TIP3   OH253969   3.514   2.879  12.678  0.2926  0.5666 -0.8405
 9925TIP3    H153970   3.504   2.906  12.769  0.7690  0.8450 -0.8640
 9925TIP3    H253971   3.606   2.850  12.671  0.5108  1.3598 -1.4292
 9926TIP3   OH253972   0.228   7.160  11.621  0.0571 -0.1213  0.7507
 9926TIP3    H153973   0.280   7.234  11.651  1.6911 -1.6722  1.9713
 9926TIP3    H253974   0.172   7.137  11.695 -0.6269  0.0457  0.2901
 9927TIP3   OH253975   6.604   4.069  12.409 -0.1051 -0.1176 -0.3484
 9927TIP3    H153976   6.674   4.106  12.356 -0.4158  1.3479  0.2074
 9927TIP3    H253977   6.529   4.065  12.350 -0.0681  0.1612 -0.4153
 9928TIP3   OH253978   6.391   4.896  13.375  0.5595  0.0746 -0.0561
 9928TIP3    H153979   6.313   4.920  13.325  0.5573 -0.0564 -0.1163
 9928TIP3    H253980   6.358   4.857  13.456  0.4706 -3.3754 -1.5878
 9929TIP3   OH253981   1.610   2.566  10.988  0.3654  0.3310  0.0889
 9929TIP3    H153982   1.597   2.511  11.066 -0.0929 -1.4125 -1.1481
 9929TIP3    H253983   1.686   2.620  11.009  0.7696 -0.6958  1.4346
 9930TIP3   OH253984   5.712   0.083  11.258  1.0408  0.0981  0.3650
 9930TIP3    H153985   5.637   0.111  11.311 -0.0640 -3.1355  0.7327
 9930TIP3    H253986   5.683   0.095  11.168  0.2037 -0.7048  0.5079
 9931TIP3   OH253987   1.222   7.010  12.015  0.1925  0.3729 -0.6163
 9931TIP3    H153988   1.172   7.057  12.081 -1.1228 -1.1038 -0.4923
 9931TIP3    H253989   1.311   7.005  12.051 -0.2833  0.3988  0.6046
 9932TIP3   OH253990   1.823   1.936  13.015  0.0499  0.1060 -0.4792
 9932TIP3    H153991   1.797   1.849  13.046  1.7071 -0.8449 -1.6118
 9932TIP3    H253992   1.742   1.987  13.020 -0.9308 -1.4172  0.4206
 9933TIP3   OH253993   1.180   1.408  11.755 -0.2807  0.2738 -0.5943
 9933TIP3    H153994   1.211   1.319  11.744 -0.1608  0.1944  0.3462
 9933TIP3    H253995   1.108   1.416  11.692 -2.3770 -1.4986  1.3961
 9934TIP3   OH253996   5.466   2.059  10.273  0.1970  0.2902 -0.1353
 9934TIP3    H153997   5.412   1.988  10.238 -0.6487  1.3260 -0.9921
 9934TIP3    H253998   5.444   2.061  10.366  0.3708 -0.6757 -0.0579
 9935TIP3   OH253999   2.062   3.603  11.373  0.1890  0.1366  0.4693
 9935TIP3    H154000   2.094   3.560  11.452  0.4064 -0.1111  0.2521
 9935TIP3    H254001   2.020   3.534  11.323  1.9140 -0.2080 -0.6158
 9936TIP3   OH254002   4.114   3.526  12.736 -0.1077 -0.0115  0.8944
 9936TIP3    H154003   4.184   3.528  12.801  1.1243  0.9845 -0.3724
 9936TIP3    H254004   4.149   3.474  12.664  0.0000  1.7182 -0.3904
 9937TIP3   OH254005   7.407   5.997  10.531  0.2667 -0.3758 -0.3768
 9937TIP3    H154006   7.499   5.974  10.539  0.5044  0.4378 -0.6770
 9937TIP3    H254007   7.369   5.977  10.617  0.9200  0.1287  0.0404
 9938TIP3   OH254008   6.242   3.825  11.559 -0.4170 -0.5083  0.2300
 9938TIP3    H154009   6.184   3.828  11.483 -1.4133 -2.5604  0.8110
 9938TIP3    H254010   6.228   3.908  11.604 -1.1287  0.0108 -0.9116
 9939TIP3   OH254011   6.597   5.779  10.752  0.2363 -0.1590 -0.3006
 9939TIP3    H154012   6.510   5.817  10.740  0.8745  2.6374  2.6494
 9939TIP3    H254013   6.584   5.710  10.817  0.2904  0.9535  0.9364
 9940TIP3   OH254014   5.947   7.045  11.133 -0.0092 -0.1785 -0.9204
 9940TIP3    H154015   5.899   6.965  11.155  1.7247 -1.6566 -2.1846
 9940TIP3    H254016   5.982   7.076  11.216 -1.0261 -0.4946 -0.3578
 9941TIP3   OH254017   4.644   3.873  13.083 -0.0624  0.6302 -0.0906
 9941TIP3    H154018   4.578   3.934  13.116  1.3971  2.8337 -1.0250
 9941TIP3    H254019   4.600   3.827  13.012 -1.0599  0.9130  0.3206
 9942TIP3   OH254020   6.167   6.883  11.649  0.4768 -0.6505  0.4642
 9942TIP3    H154021   6.209   6.803  11.681  0.0488 -1.0873 -0.0358
 9942TIP3    H254022   6.206   6.954  11.701  1.9619 -1.0107 -0.0898
 9943TIP3   OH254023   4.218   1.732  12.021  0.4968 -0.1188 -0.3120
 9943TIP3    H154024   4.283   1.779  11.968  1.4058 -0.7164  0.2694
 9943TIP3    H254025   4.170   1.802  12.066  0.3909  0.3500 -1.1260
 9944TIP3   OH254026   6.423   6.303  12.168 -0.5970 -0.3775 -0.2649
 9944TIP3    H154027   6.495   6.306  12.231 -1.0878  1.7668  0.2973
 9944TIP3    H254028   6.360   6.241  12.205  0.4259 -1.3951 -0.1896
 9945TIP3   OH254029   2.393   5.204  10.498  0.0956  0.2141 -0.0296
 9945TIP3    H154030   2.483   5.235  10.513  0.8127 -0.4977 -2.3673
 9945TIP3    H254031   2.403   5.110  10.482 -1.4684 -0.4521  2.3649
 9946TIP3   OH254032   3.524   1.618  10.803 -0.4450  0.0662 -0.2816
 9946TIP3    H154033   3.446   1.668  10.827 -0.0722  1.4100 -1.6945
 9946TIP3    H254034   3.512   1.598  10.711  1.4851  1.5559 -0.9230
 9947TIP3   OH254035   5.726   4.197  13.514 -0.2066  0.2170 -0.0902
 9947TIP3    H154036   5.789   4.250  13.466 -0.4467  1.4985  0.9701
 9947TIP3    H254037   5.644   4.247  13.509 -0.5029 -0.1768  0.6929
 9948TIP3   OH254038   5.534   0.193  12.355 -0.0892  0.6817 -0.5457
 9948TIP3    H154039   5.457   0.161  12.308 -0.3318  1.8886 -1.0001
 9948TIP3    H254040   5.507   0.195  12.446 -0.9886  2.0887 -0.8089
 9949TIP3   OH254041   1.835   2.412  12.603  0.4392  0.7501 -0.5929
 9949TIP3    H154042   1.847   2.372  12.517  0.4319 -0.1694 -0.1771
 9949TIP3    H254043   1.911   2.385  12.653 -0.8002 -0.9478  0.5006
 9950TIP3   OH254044   2.783   5.344  11.012  0.0841 -0.3652 -0.0630
 9950TIP3    H154045   2.785   5.249  11.023  1.4967 -0.3318  0.1513
 9950TIP3    H254046   2.860   5.375  11.059  0.1886  0.7996 -0.9584
 9951TIP3   OH254047   1.508   3.837  11.791  0.3303  0.3474 -0.1771
 9951TIP3    H154048   1.571   3.776  11.829  0.2655  0.5852  0.3102
 9951TIP3    H254049   1.441   3.780  11.753 -0.3088  0.1084  1.2473
 9952TIP3   OH254050   1.642   2.503  11.768 -0.1862  0.2304 -0.2592
 9952TIP3    H154051   1.631   2.575  11.705 -1.2348  0.1494 -0.1959
 9952TIP3    H254052   1.588   2.528  11.843  1.7534  0.7569  1.0349
 9953TIP3   OH254053   0.976   6.547  11.264  0.0482 -0.0268 -0.0018
 9953TIP3    H154054   0.893   6.528  11.220 -0.3393  0.8000  0.3497
 9953TIP3    H254055   1.032   6.473  11.241 -0.6080 -0.3322 -0.6886
 9954TIP3   OH254056   5.838   3.597  13.000 -0.2982 -0.4334  0.2252
 9954TIP3    H154057   5.800   3.616  12.914 -0.7653 -1.2749  0.2291
 9954TIP3    H254058   5.903   3.666  13.014 -0.1982 -0.3033 -0.8200
 9955TIP3   OH254059   2.033   2.166  11.784  0.0136  0.3605  0.2527
 9955TIP3    H154060   1.959   2.192  11.730  0.1748 -1.7698 -1.0888
 9955TIP3    H254061   1.996   2.153  11.871 -1.3462 -1.0982 -0.4901
 9956TIP3   OH254062   3.022   6.183  11.028  0.1639  0.3306 -0.0958
 9956TIP3    H154063   3.042   6.098  10.988 -1.0765  0.1242 -0.3221
 9956TIP3    H254064   2.990   6.161  11.116  1.4204  0.6883  0.4789
 9957TIP3   OH254065   0.846   1.399  11.898 -0.0388 -0.0830  0.2631
 9957TIP3    H154066   0.802   1.314  11.889  0.5392 -0.3229 -0.4418
 9957TIP3    H254067   0.776   1.460  11.922 -0.5671 -0.6496  0.1994
 9958TIP3   OH254068   2.370   4.625  13.094  0.2580  0.3730  0.2485
 9958TIP3    H154069   2.297   4.570  13.121 -0.6287  1.9292  1.2023
 9958TIP3    H254070   2.449   4.576  13.119 -0.4299 -1.1673 -0.4717
 9959TIP3   OH254071   1.436   4.913  13.273  0.2142 -0.2385 -0.3977
 9959TIP3    H154072   1.478   4.832  13.246  1.0166 -0.5017  1.4607
 9959TIP3    H254073   1.455   4.975  13.202  0.7150 -1.3084 -1.2274
 9960TIP3   OH254074   2.806   3.357  10.718 -0.2767  0.0212 -0.0960
 9960TIP3    H154075   2.887   3.374  10.671  0.7646 -1.2774  1.1414
 9960TIP3    H254076   2.799   3.428  10.782  1.0476 -0.9722  1.2201
 9961TIP3   OH254077   2.624   5.462  12.525 -0.3653  0.1626  0.1226
 9961TIP3    H154078   2.615   5.398  12.596 -0.2371 -2.5107 -2.0885
 9961TIP3    H254079   2.534   5.479  12.497 -0.3212 -0.6415 -0.5529
 9962TIP3   OH254080   4.292   0.547  11.237 -0.3400 -0.1332  0.3009
 9962TIP3    H154081   4.197   0.535  11.235 -0.2261 -1.0300 -1.5104
 9962TIP3    H254082   4.327   0.464  11.204  1.1309 -0.1461  1.7599
 9963TIP3   OH254083   2.830   4.625  11.928  0.2886  0.0727 -0.2802
 9963TIP3    H154084   2.771   4.606  12.001  0.1487 -0.0688 -0.4328
 9963TIP3    H254085   2.917   4.629  11.969 -0.1048  3.2232  0.4841
 9964TIP3   OH254086   6.819   4.805  10.928 -0.2239 -0.4127 -0.1111
 9964TIP3    H154087   6.892   4.757  10.890 -0.5811 -1.1185  0.0592
 9964TIP3    H254088   6.747   4.793  10.866 -0.6767 -1.1802  0.5364
 9965TIP3   OH254089   7.138   2.029  10.525  0.4755  0.4260  0.4155
 9965TIP3    H154090   7.086   2.001  10.450  1.0501 -0.1836  0.2316
 9965TIP3    H254091   7.079   2.083  10.576  0.4349  1.8809 -1.0935
 9966TIP3   OH254092   2.796   7.572  11.431 -0.0871 -0.0119 -0.0455
 9966TIP3    H154093   2.839   7.523  11.502 -0.1700  0.9876  0.7163
 9966TIP3    H254094   2.858   7.568  11.358  0.0896 -0.8843  0.1371
 9967TIP3   OH254095   2.487   1.226  11.925  0.1077  0.3849  0.4240
 9967TIP3    H154096   2.424   1.297  11.912 -0.9668 -0.5123  0.5140
 9967TIP3    H254097   2.452   1.154  11.873  2.1939  0.4686 -1.2207
 9968TIP3   OH254098   1.182   3.285  10.809  0.3105 -0.2201 -0.2796
 9968TIP3    H154099   1.099   3.327  10.786  0.6638  0.6353 -0.0200
 9968TIP3    H254100   1.156   3.202  10.849 -0.4488  0.3272  0.4025
 9969TIP3   OH254101   3.077   5.150  12.319 -0.5620 -0.9337 -0.5385
 9969TIP3    H154102   3.074   5.209  12.244 -0.1700 -2.1367 -1.5332
 9969TIP3    H254103   3.061   5.063  12.282 -0.6817 -1.5226  0.8206
 9970TIP3   OH254104   4.229   2.926  10.767  0.3493 -0.3554 -0.6409
 9970TIP3    H154105   4.263   2.981  10.838 -0.6477 -0.7176  0.1347
 9970TIP3    H254106   4.139   2.956  10.754 -0.0529 -1.4884 -0.5231
 9971TIP3   OH254107   4.207   6.906  12.517  0.7442 -0.7133 -0.6299
 9971TIP3    H154108   4.252   6.899  12.601  0.4277  2.6408 -0.0269
 9971TIP3    H254109   4.277   6.923  12.454  0.7298  0.2438 -0.4078
 9972TIP3   OH254110   5.126   1.304  11.377  0.2939 -0.4175  0.1496
 9972TIP3    H154111   5.140   1.209  11.372 -2.1620 -0.7595 -2.6666
 9972TIP3    H254112   5.032   1.314  11.390  0.5179  1.6359  0.4563
 9973TIP3   OH254113   0.364   5.625  11.031 -0.2501  0.2201  0.1233
 9973TIP3    H154114   0.435   5.573  11.068 -1.0067 -1.1740 -0.2777
 9973TIP3    H254115   0.373   5.613  10.936 -0.7324  0.4103  0.0516
 9974TIP3   OH254116   3.553   7.670  11.031 -0.2565 -0.5236 -0.8860
 9974TIP3    H154117   3.630   7.620  11.003 -0.5093 -0.9955 -0.7394
 9974TIP3    H254118   3.492   7.662  10.958 -0.0353  0.1593 -1.1624
 9975TIP3   OH254119   2.170   4.043  12.686 -0.1968  0.4149 -0.2180
 9975TIP3    H154120   2.159   4.051  12.781 -1.6473  0.4281 -0.3623
 9975TIP3    H254121   2.196   3.952  12.672 -3.0384 -0.5054  0.0025
 9976TIP3   OH254122   6.454   3.490  11.093 -0.9308  0.1918  0.4042
 9976TIP3    H154123   6.441   3.515  11.001 -2.0013 -0.9637  0.1990
 9976TIP3    H254124   6.410   3.559  11.143  1.5387  2.0189  0.2091
 9977TIP3   OH254125   5.858   4.973  12.785 -0.5717 -0.7491 -0.4504
 9977TIP3    H154126   5.945   4.940  12.807 -0.2041  1.2346  1.3979
 9977TIP3    H254127   5.809   4.969  12.868 -1.4191  0.5198 -0.8668
 9978TIP3   OH254128   5.204   0.639  11.043 -0.0982 -0.3678  0.1232
 9978TIP3    H154129   5.235   0.592  11.120  0.1089 -3.0314 -1.4255
 9978TIP3    H254130   5.120   0.596  11.022 -0.2705  0.4684 -0.9690
 9979TIP3   OH254131   3.916   1.019  11.199  0.3428  0.3565  0.4789
 9979TIP3    H154132   3.876   0.991  11.282 -1.0703  2.2232  0.4917
 9979TIP3    H254133   3.899   1.113  11.195  1.6352  0.5604 -1.2910
 9980TIP3   OH254134   4.663   0.689  10.939  0.0292 -0.8388  0.3196
 9980TIP3    H154135   4.581   0.719  10.900  1.1518  1.0923 -0.6950
 9980TIP3    H254136   4.706   0.769  10.969  1.3587 -1.8464  1.2322
 9981TIP3   OH254137   4.999   2.763  11.650 -0.2015 -0.4500 -0.4302
 9981TIP3    H154138   5.047   2.686  11.679  0.1118 -0.2277 -0.3422
 9981TIP3    H254139   4.979   2.746  11.558 -1.3888 -1.2561 -0.0369
 9982TIP3   OH254140   6.118   2.167  13.294 -0.2338  0.2826  0.3313
 9982TIP3    H154141   6.077   2.170  13.208  1.0100  2.9784 -0.2769
 9982TIP3    H254142   6.129   2.074  13.313  1.0714 -0.4309 -3.2106
 9983TIP3   OH254143   2.957   2.386  11.594  0.3147 -0.5190 -0.9199
 9983TIP3    H154144   2.906   2.455  11.552 -0.6417 -1.4286 -1.2934
 9983TIP3    H254145   3.024   2.433  11.645 -1.4923  0.7737  0.4168
 9984TIP3   OH254146   5.887   4.727  12.447  0.6291 -0.8098  0.4933
 9984TIP3    H154147   5.844   4.726  12.533  0.1147  0.2427  0.2600
 9984TIP3    H254148   5.895   4.819  12.425 -2.4356 -0.9751 -2.1467
 9985TIP3   OH254149   0.260   1.548  11.442 -0.0917 -0.1066 -0.2182
 9985TIP3    H154150   0.233   1.639  11.452 -1.5310 -0.5416  0.0278
 9985TIP3    H254151   0.254   1.531  11.348 -1.3378 -0.3816 -0.1006
 9986TIP3   OH254152   6.525   7.300  10.543  0.5206  0.2287  0.3042
 9986TIP3    H154153   6.540   7.206  10.546 -1.8648 -0.3003 -1.1038
 9986TIP3    H254154   6.556   7.327  10.456  0.1438  0.4913  0.2469
 9987TIP3   OH254155   1.595   1.629  13.449  0.0072  0.1942  0.2807
 9987TIP3    H154156   1.604   1.570  13.375  0.2281  0.7582 -0.1535
 9987TIP3    H254157   1.655   1.595  13.516  0.8967  0.5035 -0.3453
 9988TIP3   OH254158   3.759   5.464  11.843  0.1351 -0.6954  0.1256
 9988TIP3    H154159   3.725   5.393  11.898  0.3705 -0.3754  0.7029
 9988TIP3    H254160   3.730   5.544  11.888 -1.2188 -0.4013 -1.1923
 9989TIP3   OH254161   7.302   5.153  11.260  0.1832 -0.0524  0.1332
 9989TIP3    H154162   7.317   5.062  11.284  0.1423 -0.1407 -0.1739
 9989TIP3    H254163   7.223   5.151  11.205 -0.0181  0.2088  0.4082
 9990TIP3   OH254164   2.592   5.570  12.824  0.4518 -0.1058  0.8312
 9990TIP3    H154165   2.564   5.622  12.900 -0.4073 -1.6048  1.5900
 9990TIP3    H254166   2.565   5.481  12.845 -0.6995 -0.4345 -1.6636
 9991TIP3   OH254167   2.557   1.252  12.396 -0.3048  0.0646 -0.2152
 9991TIP3    H154168   2.477   1.305  12.393  0.5735  1.6635  2.1771
 9991TIP3    H254169   2.571   1.234  12.489  2.1654 -0.0997 -0.5526
 9992TIP3   OH254170   3.234   7.310  11.140 -0.3105 -0.0717  0.0771
 9992TIP3    H154171   3.266   7.373  11.204 -0.1304  0.1019 -0.1777
 9992TIP3    H254172   3.307   7.249  11.128 -0.5225 -0.3862  0.3993
 9993TIP3   OH254173   4.700   4.667  11.177 -0.1667  0.5035  0.6081
 9993TIP3    H154174   4.781   4.710  11.203 -0.2555  0.7131  0.5362
 9993TIP3    H254175   4.639   4.684  11.248 -0.2654  0.6770  0.4836
 9994TIP3   OH254176   5.002   5.061  12.091  0.6963  0.0989  0.3603
 9994TIP3    H154177   5.000   5.127  12.160  1.1055  1.2424 -0.6725
 9994TIP3    H254178   5.007   4.977  12.137 -1.0773  0.6852  1.7390
 9995TIP3   OH254179   6.027   6.874  10.897  0.5950 -0.4090  0.0279
 9995TIP3    H154180   6.068   6.934  10.959  1.0433 -0.2109 -0.4497
 9995TIP3    H254181   5.948   6.843  10.941  0.5187  0.3051  0.3990
 9996TIP3   OH254182   5.075   4.702  13.093  0.2817  0.0075  1.3075
 9996TIP3    H154183   5.041   4.618  13.063  1.1743 -0.2772  1.0810
 9996TIP3    H254184   5.013   4.766  13.057  1.1433 -0.3504 -0.9624
 9997TIP3   OH254185   7.042   6.500  11.863 -0.6839  0.0215 -0.0036
 9997TIP3    H154186   7.120   6.485  11.809 -1.2587  0.1574 -0.8808
 9997TIP3    H254187   7.047   6.593  11.887 -0.8651  0.1638 -0.5170
 9998TIP3   OH254188   0.255   1.987  10.620 -0.1331 -0.5348  0.7072
 9998TIP3    H154189   0.236   2.074  10.654  0.9394 -0.7728  2.0651
 9998TIP3    H254190   0.346   1.992  10.591 -0.5743 -0.7688 -0.7989
 9999TIP3   OH254191   4.690   1.952  10.244  0.0967 -0.1099 -0.6017
 9999TIP3    H154192   4.672   1.972  10.336  2.3275 -0.3462 -0.0465
 9999TIP3    H254193   4.615   1.986  10.196 -0.5144  1.1919  1.1943
10000TIP3   OH254194   1.041   2.583  10.601  0.1113 -0.2047 -0.1417
10000TIP3    H154195   0.957   2.625  10.617  0.3013 -0.2479  1.0935
10000TIP3    H254196   1.029   2.536  10.518 -0.3199  1.6539 -1.1698
10001TIP3   OH254197   0.164   1.892  12.159  0.0342  0.0106 -0.1195
10001TIP3    H154198   0.226   1.933  12.220 -0.0004 -0.7849  0.4594
10001TIP3    H254199   0.157   1.802  12.189  2.1556 -1.2305 -2.9582
10002TIP3   OH254200   0.157   3.058  11.225 -0.7724  0.0465 -0.1537
10002TIP3    H154201   0.165   3.150  11.251  1.3057 -0.5219  1.5467
10002TIP3    H254202   0.167   3.010  11.307 -1.8726 -1.7228 -1.0075
10003TIP3   OH254203   6.450   2.286  11.717  0.2523  0.2552  0.0208
10003TIP3    H154204   6.434   2.331  11.634 -1.2181 -1.9975 -1.0166
10003TIP3    H254205   6.534   2.242  11.705  0.1477  0.1128 -0.2018
10004TIP3   OH254206   3.500   2.892  12.407  0.4264 -0.3618 -0.0069
10004TIP3    H154207   3.480   2.803  12.377  1.9478 -0.7874  0.1243
10004TIP3    H254208   3.516   2.883  12.500  0.9481 -0.0164 -0.0588
10005TIP3   OH254209   2.159   1.168  11.899  0.6368 -0.3153  0.2690
10005TIP3    H154210   2.231   1.109  11.877  0.5892 -0.9947  1.8022
10005TIP3    H254211   2.095   1.112  11.943  0.1651  0.6879  0.9037
10006TIP3   OH254212   4.123   6.849  11.283  0.2717  0.3071  0.1355
10006TIP3    H154213   4.081   6.870  11.367  1.8349  1.6107  0.6404
10006TIP3    H254214   4.080   6.906  11.220  0.5088  0.8400  0.4472
10007TIP3   OH254215   2.669   3.767  10.900 -0.0516  0.3891 -0.2557
10007TIP3    H154216   2.723   3.759  10.821  0.2322  1.9182 -0.2370
10007TIP3    H254217   2.724   3.813  10.962 -0.2681 -0.8238  0.8741
10008TIP3   OH254218   2.355   5.178  12.578  0.1906 -0.1815  0.3933
10008TIP3    H154219   2.426   5.193  12.641 -0.4281  0.5574  0.9480
10008TIP3    H254220   2.365   5.087  12.550  0.4078 -0.5651  1.6641
10009TIP3   OH254221   5.507   4.429  11.647 -0.0815  0.0460 -0.1047
10009TIP3    H154222   5.461   4.381  11.578 -0.6675 -0.4648  0.6317
10009TIP3    H254223   5.550   4.362  11.699 -2.2231  0.0985  1.9099
10010TIP3   OH254224   0.278   6.362  10.852  0.5364 -0.1487 -0.2603
10010TIP3    H154225   0.221   6.286  10.838 -0.1846  0.2687  0.3534
10010TIP3    H254226   0.266   6.384  10.944 -0.1347  1.3959 -0.6930
10011TIP3   OH254227   3.014   4.433  12.307  0.0027 -0.4072 -0.0223
10011TIP3    H154228   2.957   4.368  12.346  0.6282 -1.4800 -0.8315
10011TIP3    H254229   3.084   4.446  12.371  0.6353 -1.6101 -0.4511
10012TIP3   OH254230   6.461   0.150  11.129 -0.2398 -0.2806 -0.0373
10012TIP3    H154231   6.504   0.079  11.080 -0.0544  0.3859 -0.8725
10012TIP3    H254232   6.533   0.197  11.171 -0.3826 -0.7190  0.7139
10013TIP3   OH254233   7.428   3.941  10.807 -0.3702  0.3449  0.3869
10013TIP3    H154234   7.482   3.996  10.751  0.4802  0.3494  1.1830
10013TIP3    H254235   7.436   3.853  10.770  0.0542  0.3750  0.4069
10014TIP3   OH254236   1.611   4.852  10.907 -0.0232  0.4784  0.1042
10014TIP3    H154237   1.623   4.891  10.994  1.0539  0.9173 -0.2114
10014TIP3    H254238   1.681   4.787  10.901 -0.2640  0.2579 -0.3325
10015TIP3   OH254239   2.882   2.065   9.986 -0.1980  0.7181 -0.0033
10015TIP3    H154240   2.824   2.064  10.062  0.3952 -2.5423  0.5519
10015TIP3    H254241   2.969   2.052  10.022 -0.0325 -2.1540 -1.1889
10016TIP3   OH254242   2.924   2.208   9.757 -0.0662  0.1546 -0.1009
10016TIP3    H154243   2.971   2.171   9.682 -0.9100  0.7791 -0.9524
10016TIP3    H254244   2.913   2.134   9.816  2.7342  0.1366  0.5555
10017TIP3   OH254245   2.380   5.335  11.324 -0.0915 -0.2020 -0.4700
10017TIP3    H154246   2.375   5.240  11.338 -1.2899 -0.2657 -1.2647
10017TIP3    H254247   2.373   5.345  11.230  2.8173  0.5360 -0.7093
10018TIP3   OH254248   3.615   6.216  12.413 -0.9294 -0.3675  0.2076
10018TIP3    H154249   3.666   6.217  12.332 -0.9202  3.6491  0.0655
10018TIP3    H254250   3.678   6.189  12.481  0.1052 -0.0370 -0.6015
10019TIP3   OH254251   0.604   0.478  11.034  0.2394 -0.0277  0.5456
10019TIP3    H154252   0.531   0.483  10.973  0.8258  0.6347 -0.1285
10019TIP3    H254253   0.664   0.547  11.005  0.7882 -0.0731  1.5318
10020TIP3   OH254254   5.559   3.914  12.545  0.4701 -0.0461  0.4025
10020TIP3    H154255   5.571   3.975  12.617  0.7316  0.5687 -0.1433
10020TIP3    H254256   5.518   3.966  12.476  1.2817 -0.3095 -0.3063
10021TIP3   OH254257   3.253   3.119  13.491 -0.1442 -0.2930  0.5598
10021TIP3    H154258   3.186   3.125  13.423  0.1816 -1.2850  0.1286
10021TIP3    H254259   3.322   3.180  13.462  0.4052 -1.3695 -0.5083
10022TIP3   OH254260   0.196   5.798  11.388  0.4394 -0.3375  0.1760
10022TIP3    H154261   0.285   5.763  11.375  0.7717  0.7760 -0.7115
10022TIP3    H254262   0.142   5.745  11.329 -0.0159 -2.7866  2.5729
10023TIP3   OH254263   1.107   0.410  11.912 -0.0345 -0.4905 -0.8027
10023TIP3    H154264   1.165   0.356  11.858 -0.4264 -1.7795  0.0043
10023TIP3    H254265   1.146   0.407  11.999  0.1552  0.9001 -0.8241
10024TIP3   OH254266   2.868   0.671  12.294  0.9461  0.2429  0.3172
10024TIP3    H154267   2.824   0.715  12.367  0.4714 -0.9812  0.7967
10024TIP3    H254268   2.908   0.593  12.333  1.7501  0.2171 -0.5108
10025TIP3   OH254269   5.279   0.145  12.215 -0.3099 -0.4095  0.1163
10025TIP3    H154270   5.276   0.052  12.195  1.5204 -0.0080 -2.5309
10025TIP3    H254271   5.268   0.188  12.130 -0.9354  1.8046  1.2499
10026TIP3   OH254272   1.869   5.866  11.833 -0.2599  0.3301  0.0075
10026TIP3    H154273   1.884   5.945  11.885 -0.2893  1.2246 -1.3223
10026TIP3    H254274   1.785   5.833  11.864  0.3492  0.0614  1.4861
10027TIP3   OH254275   6.643   3.391  12.443  0.1308  0.2393  0.1200
10027TIP3    H154276   6.602   3.314  12.404  1.6878 -0.0092 -1.1188
10027TIP3    H254277   6.685   3.358  12.523  0.0067 -0.0143  0.0804
10028TIP3   OH254278   3.586   5.319  10.705  0.6339 -0.5687 -0.3363
10028TIP3    H154279   3.600   5.266  10.783  0.2258  0.2391  0.3056
10028TIP3    H254280   3.495   5.305  10.681  0.7204 -0.7073 -0.5852
10029TIP3   OH254281   0.201   7.107  10.584 -0.0067  0.5963  0.0449
10029TIP3    H154282   0.123   7.133  10.535 -1.3702 -2.0939  0.6061
10029TIP3    H254283   0.167   7.058  10.659  2.2078 -0.0239  0.7078
10030TIP3   OH254284   3.960   0.163  11.065  0.0317  0.4793  0.1069
10030TIP3    H154285   4.038   0.215  11.043 -0.6592  0.4265 -2.8085
10030TIP3    H254286   3.971   0.143  11.158  3.3687  0.6632 -0.1195
10031TIP3   OH254287   1.022   1.296  12.781  0.0888  0.7490  0.4837
10031TIP3    H154288   0.986   1.380  12.812  3.0505  2.0724  0.7036
10031TIP3    H254289   0.990   1.232  12.844 -1.2535  1.9017  1.0417
10032TIP3   OH254290   5.571   6.782  11.890  0.6292 -0.1713  0.1648
10032TIP3    H154291   5.533   6.868  11.904  1.0074 -0.1866  1.4062
10032TIP3    H254292   5.599   6.783  11.798 -0.5282  0.5415 -0.2050
10033TIP3   OH254293   4.376   7.092  11.127  0.3123 -0.4297 -0.0286
10033TIP3    H154294   4.444   7.092  11.194  2.2143 -0.4847 -1.8372
10033TIP3    H254295   4.361   6.999  11.107  1.8113 -0.3958 -1.5533
10034TIP3   OH254296   2.794   3.231  11.263 -0.3556  0.1525  0.3650
10034TIP3    H154297   2.796   3.136  11.252  0.9486  0.2484 -0.4010
10034TIP3    H254298   2.876   3.261  11.225 -1.1561  1.6768 -0.2128
10035TIP3   OH254299   2.311   3.334  10.485  0.1198 -0.6202 -0.0864
10035TIP3    H154300   2.390   3.344  10.431  0.5921  0.1822  0.7302
10035TIP3    H254301   2.345   3.313  10.572 -0.6190 -1.3723  0.0315
10036TIP3   OH254302   2.256   2.382  11.920 -0.2289  0.0774 -0.3258
10036TIP3    H154303   2.166   2.348  11.917 -0.6691  1.1591  0.0636
10036TIP3    H254304   2.261   2.427  12.005  0.2819  1.0815 -0.8806
10037TIP3   OH254305   3.399   1.586  12.413 -0.6058  0.1230  0.3297
10037TIP3    H154306   3.474   1.623  12.366 -1.0919 -0.6884 -1.1505
10037TIP3    H254307   3.437   1.549  12.493  0.2075  1.7653  0.7554
10038TIP3   OH254308   7.018   2.445  13.436 -0.4136  0.8897 -0.5064
10038TIP3    H154309   6.994   2.523  13.385 -2.3627 -0.8362 -2.3742
10038TIP3    H254310   6.937   2.418  13.478 -0.2168 -1.1079 -1.3244
10039TIP3   OH254311   3.961   7.304  11.724 -0.4538 -0.1527 -0.2322
10039TIP3    H154312   3.985   7.396  11.736 -1.0904 -0.2591  2.6569
10039TIP3    H254313   4.038   7.264  11.683  0.3097  1.4176 -0.3968
10040TIP3   OH254314   3.595   0.607  12.363  0.1749 -0.4063  0.1651
10040TIP3    H154315   3.684   0.584  12.389  1.5537  0.4151 -3.2304
10040TIP3    H254316   3.605   0.645  12.275 -3.1837  2.7555  0.9063
10041TIP3   OH254317   1.318   0.349  12.706  0.1782  0.1754 -0.9055
10041TIP3    H154318   1.293   0.274  12.652  0.7911  0.0455 -1.0114
10041TIP3    H254319   1.248   0.413  12.692  0.3230  0.1419 -1.8508
10042TIP3   OH254320   5.990   0.254  10.703  0.6392  0.0644 -0.1262
10042TIP3    H154321   5.987   0.202  10.622  1.6249  0.1277 -0.2061
10042TIP3    H254322   5.929   0.209  10.762  1.8769 -1.5477  0.0119
10043TIP3   OH254323   7.314   1.577  10.465  0.1545 -0.4493 -0.9956
10043TIP3    H154324   7.355   1.659  10.495  0.7060 -0.3391 -1.9658
10043TIP3    H254325   7.379   1.539  10.406  0.2870 -2.0725  0.1405
10044TIP3   OH254326   2.187   7.139  10.938  0.3859 -0.2697 -0.0484
10044TIP3    H154327   2.235   7.177  11.012  1.4802  1.1485 -1.4295
10044TIP3    H254328   2.256   7.109  10.878 -0.3931  1.7270 -2.0353
10045TIP3   OH254329   3.786   7.176  10.898  0.1861  0.4385 -0.3996
10045TIP3    H154330   3.739   7.094  10.886 -0.2320  0.7747 -1.1944
10045TIP3    H254331   3.755   7.210  10.982  1.3123 -0.8113  0.5521
10046TIP3   OH254332   3.092   6.288  11.456 -0.8249 -0.1981  0.1099
10046TIP3    H154333   3.059   6.329  11.376 -1.1968 -0.8289 -0.0618
10046TIP3    H254334   3.110   6.198  11.431 -0.5284 -0.2862  0.6297
10047TIP3   OH254335   1.467   3.802  12.608  0.6109  0.0178  0.6090
10047TIP3    H154336   1.465   3.897  12.620  0.5438  0.1444 -0.3496
10047TIP3    H254337   1.426   3.768  12.687  0.0838  0.8106  0.6929
10048TIP3   OH254338   1.029   1.885  11.021  0.1844 -0.6901 -0.9815
10048TIP3    H154339   1.090   1.847  10.958 -1.1982 -1.5488 -1.8627
10048TIP3    H254340   0.992   1.810  11.067 -0.9528 -0.2602 -1.1716
10049TIP3   OH254341   1.978   5.306  11.082 -0.0944  0.3853  0.1924
10049TIP3    H154342   2.030   5.226  11.087  1.6133  1.3996 -0.5574
10049TIP3    H254343   2.018   5.365  11.146 -1.3019  0.6949  0.7045
10050TIP3   OH254344   4.826   3.871  12.382  0.5954  0.1376  0.0652
10050TIP3    H154345   4.811   3.942  12.444  2.6346  1.7355 -1.1212
10050TIP3    H254346   4.792   3.904  12.299  0.5962 -0.7242 -0.2914
10051TIP3   OH254347   5.740   7.163  12.434 -0.1296  0.0581 -0.3387
10051TIP3    H154348   5.712   7.189  12.522 -0.5373  1.3252 -0.8194
10051TIP3    H254349   5.747   7.245  12.386  0.6768 -0.5712 -1.3310
10052TIP3   OH254350   2.834   1.925  10.901  0.3739  0.4258 -0.3645
10052TIP3    H154351   2.796   1.974  10.829  0.2626  0.4734 -0.2730
10052TIP3    H254352   2.929   1.937  10.891  0.3296  1.1461 -0.0088
10053TIP3   OH254353   0.567   2.029  13.107 -0.0930  0.0737 -0.5691
10053TIP3    H154354   0.498   2.091  13.129  0.4248  1.4368 -2.4819
10053TIP3    H254355   0.642   2.084  13.082  0.9061 -1.3353 -0.8407
10054TIP3   OH254356   6.663   3.785  10.917 -0.8006  0.2273  0.0040
10054TIP3    H154357   6.606   3.741  10.854  2.6551 -0.6107 -2.8065
10054TIP3    H254358   6.752   3.770  10.885  0.9797  4.0056  2.3887
10055TIP3   OH254359   1.560   7.673  12.450 -0.4793  0.4483  0.0607
10055TIP3    H154360   1.621   7.743  12.429  0.0445  0.0359  0.1946
10055TIP3    H254361   1.614   7.603  12.485 -1.0805  0.2710  0.6732
10056TIP3   OH254362   4.694   5.689  12.029 -0.2087  0.0372 -0.1801
10056TIP3    H154363   4.784   5.724  12.033  0.4732 -1.6724  0.7714
10056TIP3    H254364   4.687   5.651  11.942 -0.1849  0.5931 -0.4287
10057TIP3   OH254365   4.972   6.311  12.301 -0.0993  0.0793  0.0760
10057TIP3    H154366   5.065   6.336  12.304  0.2433 -1.1894  2.8299
10057TIP3    H254367   4.929   6.387  12.261  1.6517  2.5758  2.4767
10058TIP3   OH254368   0.301   2.600  10.771 -0.0636 -0.6761  0.4698
10058TIP3    H154369   0.362   2.635  10.707 -0.3075 -1.6468 -0.3170
10058TIP3    H254370   0.281   2.674  10.828  0.1799  0.2060 -0.5607
10059TIP3   OH254371   1.550   6.342  11.516 -0.0393  0.2691 -0.1832
10059TIP3    H154372   1.580   6.396  11.443  1.3760  1.0880  0.9701
10059TIP3    H254373   1.608   6.266  11.515  1.5608  1.3944  1.4616
10060TIP3   OH254374   2.461   0.300  11.667 -0.3931  0.4639 -0.0375
10060TIP3    H154375   2.439   0.359  11.739 -3.1543  0.5109 -0.7910
10060TIP3    H254376   2.379   0.256  11.646  0.7970 -1.0815 -1.7956
10061TIP3   OH254377   5.160   3.885  11.374  0.0677 -0.1499  0.1573
10061TIP3    H154378   5.201   3.802  11.350 -1.9630 -1.3136  0.5183
10061TIP3    H254379   5.162   3.886  11.469  2.1936  1.3831  0.1681
10062TIP3   OH254380   7.495   4.341  13.297  0.3968  0.2995  0.3517
10062TIP3    H154381   7.421   4.288  13.328  0.5814  0.1522  0.5458
10062TIP3    H254382   7.542   4.284  13.236 -0.7747  1.0819 -1.3353
10063TIP3   OH254383   6.935   3.713  10.883  0.1564 -0.4021 -0.6426
10063TIP3    H154384   6.918   3.678  10.970 -0.5337  0.8569 -0.2455
10063TIP3    H254385   7.030   3.708  10.872  0.3225  0.0868  0.4747
10064TIP3   OH254386   1.152   5.955  12.291 -0.4341 -0.2301 -0.5730
10064TIP3    H154387   1.167   5.879  12.347 -1.7462  0.2722  0.4906
10064TIP3    H254388   1.105   5.919  12.215  1.1893 -0.8763 -1.3382
10065TIP3   OH254389   7.289   3.464  11.288 -0.2590 -0.6348 -0.0898
10065TIP3    H154390   7.218   3.477  11.351  0.5409 -1.2905  0.9823
10065TIP3    H254391   7.259   3.392  11.232 -0.4693 -0.8666  0.3163
10066TIP3   OH254392   2.396   5.847  11.850  0.0724  0.0627  0.0809
10066TIP3    H154393   2.310   5.809  11.868  0.1587 -0.1463  0.0496
10066TIP3    H254394   2.459   5.782  11.881  0.2218  0.6079  0.9400
10067TIP3   OH254395   3.105   0.041  12.683 -0.2719  0.0975 -0.3741
10067TIP3    H154396   3.161  -0.037  12.678 -0.5799 -0.3527  1.8606
10067TIP3    H254397   3.166   0.114  12.677  0.4346 -0.3754  0.6595
10068TIP3   OH254398   3.319   1.312  10.763  0.3018  0.1930 -0.0579
10068TIP3    H154399   3.392   1.291  10.821  1.1691 -1.1266 -1.5599
10068TIP3    H254400   3.247   1.256  10.795  0.5651 -0.0259  0.1566
10069TIP3   OH254401   3.320   2.558  10.391 -0.1994  0.5053  0.4010
10069TIP3    H154402   3.368   2.641  10.398 -0.0909  0.3557  1.8660
10069TIP3    H254403   3.284   2.558  10.303  2.4383  0.6461 -0.7780
10070TIP3   OH254404   3.393   6.030  10.434 -0.2655  0.1275  0.1619
10070TIP3    H154405   3.434   5.956  10.477  0.4893 -0.0501 -0.8300
10070TIP3    H254406   3.460   6.099  10.434 -0.1166  0.0046 -1.0136
10071TIP3   OH254407   4.059   6.946  10.398  0.1981 -0.2407 -0.5411
10071TIP3    H154408   4.064   6.969  10.305  1.0769  1.8628 -0.0286
10071TIP3    H254409   4.038   7.029  10.442  1.3673 -0.8618  1.2843
10072TIP3   OH254410   7.304   3.964  13.138 -0.0163 -0.0754 -0.2465
10072TIP3    H154411   7.361   3.921  13.201  0.5682  1.1427  0.0810
10072TIP3    H254412   7.299   3.903  13.064  0.1316 -1.0494  0.5332
10073TIP3   OH254413   2.414   6.574  10.911 -0.4897  0.6666 -0.3703
10073TIP3    H154414   2.428   6.561  11.005 -0.7606 -2.2124 -0.6370
10073TIP3    H254415   2.500   6.600  10.878  0.0201  0.1397  0.4806
10074TIP3   OH254416   5.637   5.522  10.959  0.0394 -0.3788  0.5370
10074TIP3    H154417   5.696   5.492  10.890  0.6218 -1.0170  1.2960
10074TIP3    H254418   5.561   5.555  10.912  1.6100  1.9861 -0.5945
10075TIP3   OH254419   0.416   2.906  11.937  0.6322 -0.6446 -0.0874
10075TIP3    H154420   0.431   2.996  11.966  0.0630 -0.1919 -1.1494
10075TIP3    H254421   0.498   2.881  11.893  0.9194 -0.7800  0.5157
10076TIP3   OH254422   2.332   7.378  11.101  0.1343 -0.0607 -0.0673
10076TIP3    H154423   2.248   7.424  11.097 -1.1716 -2.2935  0.0780
10076TIP3    H254424   2.375   7.400  11.018 -1.5775 -0.5502 -1.1466
10077TIP3   OH254425   4.447   5.602  13.086  0.2906  0.2367 -0.3964
10077TIP3    H154426   4.515   5.665  13.113 -0.5959  1.3119 -0.5788
10077TIP3    H254427   4.411   5.639  13.005 -0.2447 -0.5201 -0.5106
10078TIP3   OH254428   2.606   6.305  11.381 -0.2792 -0.1322  0.1390
10078TIP3    H154429   2.544   6.345  11.441 -1.0944 -0.9973 -0.0919
10078TIP3    H254430   2.582   6.212  11.381  1.2393 -0.5452  0.2990
10079TIP3   OH254431   7.272   5.137  12.783  0.0580 -0.1092 -0.0042
10079TIP3    H154432   7.286   5.055  12.735  0.7818  1.0454 -1.8867
10079TIP3    H254433   7.216   5.188  12.725 -1.0924  0.4289  1.5334
10080TIP3   OH254434   0.737   7.180  13.051  0.0975  0.3063 -0.1399
10080TIP3    H154435   0.825   7.142  13.046 -0.7216 -1.6488 -0.6783
10080TIP3    H254436   0.734   7.221  13.137  1.4562  0.1797 -0.0088
10081TIP3   OH254437   1.798   1.363  12.854 -0.4680 -0.0238  0.2578
10081TIP3    H154438   1.771   1.272  12.858 -1.0654  0.0628 -1.3618
10081TIP3    H254439   1.723   1.412  12.888 -0.3075 -0.0949  0.7265
10082TIP3   OH254440   0.895   5.867  11.597  0.9151  0.4959  0.3776
10082TIP3    H154441   0.947   5.926  11.652  1.2932 -1.1283  1.8607
10082TIP3    H254442   0.880   5.916  11.516  0.8877  2.7576  1.6627
10083TIP3   OH254443   0.344   2.404  11.213  0.1779 -0.1155  0.2189
10083TIP3    H154444   0.297   2.454  11.280  1.6134  1.1361  0.3481
10083TIP3    H254445   0.347   2.315  11.248 -0.1579  0.2544  1.2418
10084TIP3   OH254446   0.771   4.986  11.374 -0.4783  0.5891  0.8625
10084TIP3    H154447   0.744   5.062  11.322  0.7944  0.6574  0.2848
10084TIP3    H254448   0.732   4.911  11.329 -0.4278  0.7615  0.5264
10085TIP3   OH254449   2.747   5.496  10.785  0.0637  0.0229  0.3602
10085TIP3    H154450   2.841   5.493  10.767 -0.2630 -2.3778 -1.2956
10085TIP3    H254451   2.739   5.459  10.873  0.4596 -4.2090 -1.1382
10086TIP3   OH254452   5.534   2.553  10.641  0.2737  0.0345  0.1939
10086TIP3    H154453   5.466   2.510  10.589  1.5131 -2.6403  0.5898
10086TIP3    H254454   5.511   2.533  10.731  0.1592  1.4459  0.4954
10087TIP3   OH254455   0.763   4.419  11.076 -0.0925  0.6975 -0.3610
10087TIP3    H154456   0.794   4.498  11.121  1.7736 -0.8162  1.1883
10087TIP3    H254457   0.685   4.393  11.126 -0.8933  1.6666 -1.0605
10088TIP3   OH254458   4.645   1.303  11.598  0.1906  0.1778  0.2474
10088TIP3    H154459   4.557   1.285  11.568  0.7154  0.2229 -1.4272
10088TIP3    H254460   4.644   1.396  11.623 -0.1841  0.2156  0.0849
10089TIP3   OH254461   2.772   1.290  11.971 -0.3181  0.1515 -0.4280
10089TIP3    H154462   2.679   1.274  11.957 -0.8793  1.6678  1.1308
10089TIP3    H254463   2.806   1.315  11.885 -1.5877  0.5881 -0.8246
10090TIP3   OH254464   1.062   6.984  12.749  0.3792  0.3130  0.2436
10090TIP3    H154465   1.119   7.000  12.825 -0.1112 -0.2440  0.7449
10090TIP3    H254466   1.050   6.889  12.749 -1.6338  0.5223  0.9640
10091TIP3   OH254467   1.472   7.393  10.339  0.2083 -0.2439  0.1412
10091TIP3    H154468   1.414   7.432  10.273 -1.9013  0.3396  2.1996
10091TIP3    H254469   1.526   7.331  10.289 -2.6826 -1.3858 -1.8981
10092TIP3   OH254470   1.412   2.976  11.827 -0.6032  0.2166  0.8579
10092TIP3    H154471   1.359   3.056  11.827 -0.2387  0.4625  0.3527
10092TIP3    H254472   1.501   3.006  11.813 -0.4596 -0.2809  0.6881
10093TIP3   OH254473   1.950   5.462  12.032 -0.0723 -0.8471  0.1087
10093TIP3    H154474   1.985   5.452  12.121 -1.5377 -1.6454  0.6363
10093TIP3    H254475   1.864   5.502  12.045 -0.2809 -0.9186 -0.9661
10094TIP3   OH254476   3.646   4.531  11.057  0.4919  0.0802 -0.5953
10094TIP3    H154477   3.706   4.595  11.019  0.6769  0.2905  0.0297
10094TIP3    H254478   3.561   4.575  11.059  0.1530 -0.4643 -2.1146
10095TIP3   OH254479   2.886   6.798  10.937  0.0035  0.4723 -0.1604
10095TIP3    H154480   2.933   6.829  10.859  0.7234 -0.5937 -0.1737
10095TIP3    H254481   2.906   6.704  10.941 -0.3836  0.4264  1.0653
10096TIP3   OH254482   1.635   2.455  12.968 -0.3700  0.0317  0.0875
10096TIP3    H154483   1.592   2.523  12.916 -2.5259  0.2196  1.9304
10096TIP3    H254484   1.729   2.472  12.958 -0.8109  2.2593 -0.8046
10097TIP3   OH254485   7.284   3.792  12.112  0.4889  0.0706 -0.1690
10097TIP3    H154486   7.331   3.791  12.196  1.0927 -0.7974 -0.4982
10097TIP3    H254487   7.342   3.838  12.053  0.6818 -0.4981 -0.4345
10098TIP3   OH254488   2.085   2.841  11.496  0.3895  0.4019  0.2878
10098TIP3    H154489   2.088   2.860  11.403 -1.2820  0.6369  0.2540
10098TIP3    H254490   2.095   2.746  11.502  1.6097  0.4893 -0.0240
10099TIP3   OH254491   0.287   2.156  11.339 -0.0701  0.3162  0.0268
10099TIP3    H154492   0.259   2.173  11.429 -0.4133  0.8428 -0.1731
10099TIP3    H254493   0.335   2.074  11.344 -1.8274 -0.7456  0.3713
10100TIP3   OH254494   4.971   0.130  11.023  0.6114 -0.2485 -0.0973
10100TIP3    H154495   4.990   0.068  11.094 -1.2539  0.3339  0.9903
10100TIP3    H254496   4.961   0.076  10.945  1.5831 -1.0218  0.2910
10101TIP3   OH254497   5.713   4.518  12.621  0.0140  0.5317 -0.1501
10101TIP3    H154498   5.672   4.544  12.703 -1.1023 -1.1696 -0.1040
10101TIP3    H254499   5.800   4.486  12.646  0.2813  1.4580  0.1409
10102TIP3   OH254500   6.484   6.042  11.177  0.6073  0.9461  0.1021
10102TIP3    H154501   6.463   5.958  11.217 -1.1883  0.8344 -0.9711
10102TIP3    H254502   6.456   6.107  11.241 -0.7912  0.7430 -0.2657
10103TIP3   OH254503   1.912   5.535  11.502  0.4061 -0.4435 -0.4746
10103TIP3    H154504   1.816   5.530  11.494  0.3074  0.0973  0.3276
10103TIP3    H254505   1.942   5.448  11.474 -0.2444 -0.3124 -1.6556
10104TIP3   OH254506   3.322   5.102  11.632 -0.6322 -0.2870 -0.2035
10104TIP3    H154507   3.366   5.038  11.575 -1.1594 -1.3768  0.5668
10104TIP3    H254508   3.392   5.160  11.661 -0.2221 -0.1967 -1.3195
10105TIP3   OH254509   5.448   3.820  11.886 -0.2741  0.2424  0.4931
10105TIP3    H154510   5.468   3.776  11.803 -0.2656 -1.0415  1.1522
10105TIP3    H254511   5.380   3.884  11.863 -2.4911 -2.1239 -0.0537
10106TIP3   OH254512   2.034   4.113  10.564  0.5308 -0.3234 -0.0763
10106TIP3    H154513   2.073   4.029  10.537  1.2324  0.5540 -1.9960
10106TIP3    H254514   2.083   4.139  10.642  1.5594 -0.8169 -0.5461
10107TIP3   OH254515   5.498   4.302  12.962 -0.2413  0.4477 -0.5000
10107TIP3    H154516   5.510   4.379  13.017  0.3211  0.7037 -0.9713
10107TIP3    H254517   5.465   4.235  13.022  0.6486  0.6341  0.2135
10108TIP3   OH254518   7.296   4.205  11.663 -0.3879  0.3589 -0.4701
10108TIP3    H154519   7.245   4.243  11.591 -1.1494 -0.7646 -0.5531
10108TIP3    H254520   7.384   4.243  11.653 -0.8940  1.4396 -1.0227
10109TIP3   OH254521   1.079   7.277  11.876  0.2750 -0.4135  0.0672
10109TIP3    H154522   1.062   7.190  11.841 -0.0648 -0.2338 -0.2281
10109TIP3    H254523   1.052   7.272  11.968  1.0373 -0.8481  0.2708
10110TIP3   OH254524   6.825   0.075  11.155  0.1914 -0.1741  0.2482
10110TIP3    H154525   6.797   0.159  11.120 -0.7063 -1.0086 -1.1318
10110TIP3    H254526   6.754   0.015  11.133  1.4499 -1.6009 -0.1080
10111TIP3   OH254527   0.950   4.809  11.002 -0.3821 -0.0750  0.0001
10111TIP3    H154528   0.872   4.865  11.008 -0.4132 -0.1592  0.4218
10111TIP3    H254529   0.961   4.793  10.908 -0.3987  0.6024 -0.1199
10112TIP3   OH254530   4.306   5.291  11.418  0.0901  0.6239  0.0092
10112TIP3    H154531   4.219   5.256  11.434  0.2568 -0.0009 -0.3902
10112TIP3    H254532   4.365   5.219  11.442  0.4355  0.6113 -0.8321
10113TIP3   OH254533   5.157   2.265  10.324  0.3220  0.5773  0.3855
10113TIP3    H154534   5.228   2.295  10.268 -1.4512  0.8686 -1.8628
10113TIP3    H254535   5.172   2.172  10.335  0.4924  0.4319 -0.9739
10114TIP3   OH254536   6.277   0.478  10.706  0.0588  1.1028 -0.4527
10114TIP3    H154537   6.247   0.455  10.793 -0.3499 -0.9568 -1.0736
10114TIP3    H254538   6.367   0.446  10.703 -0.0154  0.9222 -0.8506
10115TIP3   OH254539   4.086   4.099  11.904 -0.2765  0.4563  0.5064
10115TIP3    H154540   4.045   4.106  11.817 -1.6354  2.9888  1.2400
10115TIP3    H254541   4.032   4.154  11.960  1.5573  0.2499  2.6038
10116TIP3   OH254542   5.037   0.744  11.370  0.1816 -0.6034  0.8672
10116TIP3    H154543   5.119   0.697  11.355  0.5977  0.6671 -1.3339
10116TIP3    H254544   4.984   0.725  11.292 -0.8373  0.1516  1.3476
10117TIP3   OH254545   7.197   6.906  11.606 -0.0481  0.3830 -0.6744
10117TIP3    H154546   7.223   6.941  11.521  0.9372  0.3177 -0.4212
10117TIP3    H254547   7.254   6.830  11.619 -1.0431 -0.3491 -0.4966
10118TIP3   OH254548   3.401   7.431  10.576  0.1890  0.4001 -1.3756
10118TIP3    H154549   3.333   7.484  10.618 -1.5654 -2.1115 -0.8629
10118TIP3    H254550   3.359   7.346  10.560  3.4282 -1.5872 -0.2400
10119TIP3   OH254551   1.563   6.038  11.514  0.0965  0.2711 -0.5351
10119TIP3    H154552   1.569   5.943  11.525  0.4098  0.1664 -1.4511
10119TIP3    H254553   1.634   6.073  11.566 -0.8840  0.1163  0.9590
10120TIP3   OH254554   2.649   4.458  13.022 -0.0031 -0.7199  0.1183
10120TIP3    H154555   2.647   4.476  13.116  1.2576 -0.2765  0.0724
10120TIP3    H254556   2.679   4.539  12.982 -2.0684 -0.3659 -0.8575
10121TIP3   OH254557   5.814   3.320  13.360 -0.0706  0.4416 -0.3212
10121TIP3    H154558   5.894   3.337  13.310  0.3581  2.7564  1.0418
10121TIP3    H254559   5.752   3.387  13.331  0.1211  1.7183  2.0142
10122TIP3   OH254560   6.782   6.561  10.535 -0.0409  0.0374 -0.7764
10122TIP3    H154561   6.873   6.532  10.534  0.7401  2.1601  0.9816
10122TIP3    H254562   6.734   6.492  10.581  1.3245  0.3840  1.2810
10123TIP3   OH254563   0.801   5.691  11.280 -0.0898  0.2196  0.2500
10123TIP3    H154564   0.749   5.612  11.265  2.2042 -1.0658 -1.6849
10123TIP3    H254565   0.746   5.762  11.247 -1.0132 -0.9383 -0.8073
10124TIP3   OH254566   0.244   6.129  12.130 -0.1568 -0.3324  0.2412
10124TIP3    H154567   0.227   6.212  12.175 -0.1303 -0.6527  0.8615
10124TIP3    H254568   0.190   6.065  12.177 -0.2526 -0.6453 -0.2934
10125TIP3   OH254569   4.418   2.379  13.492 -0.4449 -0.5075  0.1240
10125TIP3    H154570   4.454   2.309  13.547 -1.1261  0.3226  1.7133
10125TIP3    H254571   4.494   2.427  13.461  0.0473 -1.9982 -1.1347
10126TIP3   OH254572   3.281   4.857  11.120  0.4236  0.0232  0.3523
10126TIP3    H154573   3.364   4.819  11.090  1.0774 -0.2182  2.3202
10126TIP3    H254574   3.215   4.795  11.091  1.0008 -0.2195 -0.5034
10127TIP3   OH254575   3.278   1.416  12.227  0.1718 -0.1807  0.1644
10127TIP3    H154576   3.302   1.456  12.144 -1.3554 -0.8428 -0.6378
10127TIP3    H254577   3.318   1.472  12.293  1.1341  0.5525 -0.9939
10128TIP3   OH254578   0.391   2.344  12.760 -0.7368  1.1037 -0.2572
10128TIP3    H154579   0.362   2.402  12.690 -2.2333 -0.3126 -0.8638
10128TIP3    H254580   0.318   2.343  12.822 -0.3513  0.6005  0.1973
10129TIP3   OH254581   6.213   3.336  11.807 -0.0692 -0.3297  0.5086
10129TIP3    H154582   6.253   3.319  11.722 -0.6116 -0.1332  0.2089
10129TIP3    H254583   6.212   3.431  11.815 -2.1948 -0.2196 -0.3563
10130TIP3   OH254584   2.392   5.750  10.835 -0.3233 -0.1726 -0.0394
10130TIP3    H154585   2.356   5.716  10.754  0.1246  0.5624 -0.5583
10130TIP3    H254586   2.487   5.747  10.824 -0.2010 -1.5461  1.0928
10131TIP3   OH254587   5.421   7.409  12.616 -0.1788  0.1234  0.4967
10131TIP3    H154588   5.395   7.325  12.653 -1.2853  0.1718 -0.1130
10131TIP3    H254589   5.494   7.438  12.671  0.8170 -1.6272  0.1862
10132TIP3   OH254590   0.724   6.252  12.846 -0.1708  0.2312 -0.2975
10132TIP3    H154591   0.722   6.158  12.859 -2.0422  0.1229 -1.0061
10132TIP3    H254592   0.662   6.287  12.910 -0.4626  0.8456 -0.9033
10133TIP3   OH254593   3.801   3.843  12.461 -0.4551  0.3912  0.3786
10133TIP3    H154594   3.729   3.828  12.521 -2.7731  3.6685 -1.2692
10133TIP3    H254595   3.761   3.837  12.374  2.0452 -0.9939 -0.7790
10134TIP3   OH254596   0.362   5.201  11.398 -0.4361 -0.8057 -0.0506
10134TIP3    H154597   0.387   5.131  11.338  0.4346 -1.0627  0.5811
10134TIP3    H254598   0.343   5.155  11.481 -2.5363 -0.5641 -0.3413
10135TIP3   OH254599   4.172   2.412  10.132 -0.0005  1.2494 -0.2497
10135TIP3    H154600   4.258   2.409  10.089  0.1301  1.3736  0.0042
10135TIP3    H254601   4.127   2.334  10.099  1.4682 -0.8226  2.2811
10136TIP3   OH254602   1.677   3.000  12.445  0.7266  0.1512 -0.1533
10136TIP3    H154603   1.685   2.965  12.534  0.6491 -0.4657 -0.3828
10136TIP3    H254604   1.763   3.038  12.427  1.7278 -2.2423 -0.8522
10137TIP3   OH254605   4.492   1.071  10.997  0.4563  0.1836 -0.0606
10137TIP3    H154606   4.447   1.120  10.928  0.7300  1.4007  0.5906
10137TIP3    H254607   4.471   0.979  10.980 -1.4952  0.6453 -0.3076
10138TIP3   OH254608   2.628   6.800  11.211  0.7146  0.2337  0.3234
10138TIP3    H154609   2.630   6.720  11.263  1.2820  1.3370  2.0883
10138TIP3    H254610   2.558   6.852  11.251 -0.9410 -0.0988 -1.9817
10139TIP3   OH254611   3.496   7.054  10.856  0.2791  0.1312 -0.1745
10139TIP3    H154612   3.455   7.044  10.942  2.8688  0.4374  1.1968
10139TIP3    H254613   3.471   7.141  10.827  1.9046  1.3661  1.8337
10140TIP3   OH254614   5.641   3.487  12.390  0.2212  0.2408  0.3531
10140TIP3    H154615   5.595   3.451  12.466 -0.0099  1.7709  0.9680
10140TIP3    H254616   5.573   3.492  12.323 -0.4469  2.0482  1.1138
10141TIP3   OH254617   5.682   6.209  10.738  0.1072  0.0157 -0.2763
10141TIP3    H154618   5.713   6.278  10.680  2.4223 -0.9439 -0.2779
10141TIP3    H254619   5.617   6.161  10.687 -0.1383  1.0368 -0.9354
10142TIP3   OH254620   4.805   7.473  12.200 -0.4661  0.0838 -0.6091
10142TIP3    H154621   4.749   7.548  12.219  0.1284  0.4020 -0.0752
10142TIP3    H254622   4.828   7.437  12.286  2.1285  1.4449 -0.6170
10143TIP3   OH254623   4.329   4.031  12.273 -0.0426  1.0019 -0.2299
10143TIP3    H154624   4.380   4.049  12.351  0.3502 -0.9598  0.0210
10143TIP3    H254625   4.392   4.033  12.201 -0.3015  2.2314 -0.4416
10144TIP3   OH254626   7.407   7.621  12.644 -0.2422  0.4565  0.1001
10144TIP3    H154627   7.459   7.647  12.720  1.6298 -0.7541 -0.7131
10144TIP3    H254628   7.316   7.634  12.672  0.3117 -1.0173  2.9820
10145TIP3   OH254629   6.919   0.512  12.339 -0.5075 -0.3452 -0.0553
10145TIP3    H154630   6.898   0.553  12.423  0.3411  3.6849 -1.5479
10145TIP3    H254631   6.998   0.461  12.356 -1.7530 -1.7398  2.0260
10146TIP3   OH254632   4.302   2.963  11.326 -0.1189  0.0478 -0.0369
10146TIP3    H154633   4.281   2.898  11.258 -1.9451 -0.4821  0.9730
10146TIP3    H254634   4.285   3.048  11.284  2.3432 -0.0160 -1.3863
10147TIP3   OH254635   1.851   7.229  11.001 -0.8123  0.1089 -0.2214
10147TIP3    H154636   1.841   7.270  11.087 -0.1161  0.2474 -0.2040
10147TIP3    H254637   1.945   7.216  10.991 -0.8818  0.1689 -0.9998
10148TIP3   OH254638   0.459   3.881  11.685  0.5774 -0.8080 -0.1655
10148TIP3    H154639   0.503   3.885  11.600  0.2439 -0.5179 -0.3277
10148TIP3    H254640   0.372   3.847  11.665  1.2885 -3.1137  0.3760
10149TIP3   OH254641   1.921   3.228  11.507 -0.1384  0.3853  0.2664
10149TIP3    H154642   1.903   3.222  11.413  1.5145 -0.5217 -0.0245
10149TIP3    H254643   1.877   3.151  11.544  2.0182 -1.2041 -0.2900
10150TIP3   OH254644   4.171   1.293  11.330  0.0853 -0.1038  0.0638
10150TIP3    H154645   4.201   1.218  11.278  2.4027  0.8174 -0.0522
10150TIP3    H254646   4.119   1.254  11.401  0.9148 -1.7765 -0.1913
10151TIP3   OH254647   1.938   4.325  11.183  0.0312  0.1702  0.1089
10151TIP3    H154648   1.961   4.232  11.177  1.0413  0.4427 -0.3495
10151TIP3    H254649   1.844   4.324  11.200  0.3224 -0.9736  2.0293
10152TIP3   OH254650   0.202   7.316  12.254 -0.1409 -0.1024  0.1741
10152TIP3    H154651   0.208   7.411  12.250  2.3842 -0.1911  0.0819
10152TIP3    H254652   0.159   7.291  12.172 -0.3718  0.9308 -0.0366
10153TIP3   OH254653   4.567   4.335  12.101  0.1566 -0.6633 -0.1397
10153TIP3    H154654   4.654   4.321  12.139  0.1021  0.3557  0.3901
10153TIP3    H254655   4.508   4.326  12.176 -0.1407 -0.7535 -0.3882
10154TIP3   OH254656   2.362   2.803  12.157 -0.5568  0.0205  0.1003
10154TIP3    H154657   2.313   2.884  12.175  0.7455  0.7463  0.5497
10154TIP3    H254658   2.433   2.804  12.222 -0.3421 -1.3387 -0.0955
10155TIP3   OH254659   0.006   4.920  11.560 -0.3856 -0.4287 -0.1180
10155TIP3    H154660  -0.019   5.008  11.586  0.5325 -0.1978  0.0302
10155TIP3    H254661  -0.068   4.887  11.509 -0.9645  0.2143  0.3019
10156TIP3   OH254662   2.806   2.189  11.084 -0.1422  0.1208  0.3797
10156TIP3    H154663   2.758   2.242  11.021  0.7197  0.2460 -0.1863
10156TIP3    H254664   2.837   2.113  11.034  0.7954  0.3638  0.5630
10157TIP3   OH254665   4.492   6.944  12.164 -0.4109 -0.3263 -0.1150
10157TIP3    H154666   4.506   6.872  12.102 -1.1358 -1.1354  0.6110
10157TIP3    H254667   4.548   6.922  12.239 -0.9080 -0.3442  0.2606
10158TIP3   OH254668   4.898   2.378  12.533 -0.0623 -0.5006  0.7295
10158TIP3    H154669   4.889   2.366  12.628  1.7277  1.1831  1.1510
10158TIP3    H254670   4.875   2.469  12.518 -1.8750 -1.1304 -0.7350
10159TIP3   OH254671   0.060   2.774  10.524 -0.2825 -0.0463  0.5417
10159TIP3    H154672   0.034   2.779  10.615 -2.3943  2.4321 -0.0848
10159TIP3    H254673   0.153   2.798  10.524 -0.0978 -0.6855  2.0634
10160TIP3   OH254674   0.291   4.542  10.903  0.3870 -0.0207  0.2521
10160TIP3    H154675   0.304   4.462  10.852  1.0046 -1.7639  2.8993
10160TIP3    H254676   0.206   4.529  10.945  0.3146  0.9224  0.4010
10161TIP3   OH254677   4.943   1.737  12.802  0.7869  0.1931  0.1491
10161TIP3    H154678   4.947   1.643  12.820 -1.5117  0.3120  1.7803
10161TIP3    H254679   4.905   1.744  12.714  0.0326 -0.4085  0.4241
10162TIP3   OH254680   0.065   4.075  10.524 -0.5863 -0.5023  0.6223
10162TIP3    H154681   0.134   4.038  10.469  0.0384  0.8255  0.4495
10162TIP3    H254682  -0.007   4.012  10.519  0.5835 -1.9055  0.7573
10163TIP3   OH254683   7.607   5.125  12.910 -0.5708  0.1465 -0.8899
10163TIP3    H154684   7.651   5.139  12.827 -0.5312 -1.3784 -1.1528
10163TIP3    H254685   7.644   5.191  12.969  1.0912 -0.2484 -1.4599
10164TIP3   OH254686   5.632   2.423  12.328  0.5611 -0.2774  0.0573
10164TIP3    H154687   5.656   2.467  12.247 -0.2893  0.3608  0.1314
10164TIP3    H254688   5.581   2.347  12.300  1.3126 -0.7530 -0.0407
10165TIP3   OH254689   0.222   1.564  11.731 -1.0750 -0.1540  0.3638
10165TIP3    H154690   0.266   1.517  11.660  0.7685  1.2559  0.4941
10165TIP3    H254691   0.133   1.579  11.700 -1.1217 -1.9204 -0.4900
10166TIP3   OH254692   0.033   4.049  11.603  0.2921  0.6206 -0.0249
10166TIP3    H154693  -0.056   4.024  11.626  1.0936 -0.5808  2.0206
10166TIP3    H254694   0.032   4.057  11.507 -1.8882  0.2050 -0.0713
10167TIP3   OH254695   3.473   3.572  10.430 -0.7998  0.2180 -0.1412
10167TIP3    H154696   3.568   3.565  10.432 -0.8348 -0.1712  0.7306
10167TIP3    H254697   3.447   3.533  10.347 -0.1316  1.2638 -0.8478
10168TIP3   OH254698   6.863   1.559  10.758 -0.8924 -0.4501  0.3902
10168TIP3    H154699   6.796   1.563  10.691  0.2526 -1.3963 -0.8695
10168TIP3    H254700   6.848   1.476  10.803 -0.4633 -0.7641 -0.0328
10169TIP3   OH254701   6.660   5.429  11.785 -0.1322  0.2926  0.0774
10169TIP3    H154702   6.728   5.366  11.764  0.9934  0.8898  1.7294
10169TIP3    H254703   6.692   5.512  11.748 -1.0402  0.1557 -1.0598
10170TIP3   OH254704   3.899   4.753  12.477 -0.3284  0.1236  0.3455
10170TIP3    H154705   3.972   4.691  12.474 -0.1659  0.2479  1.4481
10170TIP3    H254706   3.822   4.699  12.459  0.0347  0.0332 -1.0515
10171TIP3   OH254707   5.139   3.533  12.340  0.1113 -0.3921  0.1513
10171TIP3    H154708   5.109   3.458  12.288 -0.8193 -1.2053  1.7625
10171TIP3    H254709   5.110   3.610  12.291 -0.0655 -1.0948 -0.8870
10172TIP3   OH254710   0.287   4.560  10.368 -0.6271 -0.3545  0.6484
10172TIP3    H154711   0.236   4.607  10.302 -2.0696 -0.6607  1.4985
10172TIP3    H254712   0.275   4.612  10.448 -0.4628 -0.9924  1.0924
10173TIP3   OH254713   1.849   6.231  11.355 -0.1463  0.0622 -0.3256
10173TIP3    H154714   1.933   6.233  11.310 -0.0052 -1.5736 -0.1797
10173TIP3    H254715   1.784   6.234  11.285  0.0631 -0.8630 -0.5689
10174TIP3   OH254716   6.383   0.927  10.408  0.0730  0.1052  0.2668
10174TIP3    H154717   6.310   0.983  10.433 -1.0931 -1.0083 -0.4855
10174TIP3    H254718   6.453   0.988  10.382 -2.1027  1.3546 -3.3347
10175TIP3   OH254719   6.114   5.829  10.972 -0.3538 -0.2960  0.2327
10175TIP3    H154720   6.021   5.817  10.994  0.2771 -3.1740  1.9062
10175TIP3    H254721   6.133   5.759  10.911  0.8437 -0.0673  0.3249
10176TIP3   OH254722   0.196   2.103  12.401 -0.4558 -0.1600 -0.5594
10176TIP3    H154723   0.135   2.037  12.435  0.8070 -0.7325  0.7261
10176TIP3    H254724   0.146   2.184  12.399 -1.4141 -0.7223 -0.0796
10177TIP3   OH254725   6.837   0.865  12.740  0.2522  0.1354  0.1879
10177TIP3    H154726   6.896   0.803  12.783 -0.8158  0.2346  1.8911
10177TIP3    H254727   6.758   0.814  12.721  0.6837  0.1021 -1.7015
10178TIP3   OH254728   1.419   2.291  11.842 -0.0487  0.3390 -0.1109
10178TIP3    H154729   1.374   2.376  11.846  1.6540  1.2467  1.1786
10178TIP3    H254730   1.498   2.309  11.790 -0.2134 -0.7377 -0.7510
10179TIP3   OH254731   6.912   1.866  10.822 -0.4359 -0.4891 -0.8075
10179TIP3    H154732   6.883   1.779  10.795  0.9245 -1.7182  1.3837
10179TIP3    H254733   6.882   1.875  10.913 -1.4759  1.8150 -1.2971
10180TIP3   OH254734   6.464   5.306  12.599 -0.0512 -0.4965  0.3853
10180TIP3    H154735   6.471   5.368  12.672 -1.8784 -0.8107  0.8829
10180TIP3    H254736   6.446   5.222  12.641  0.1914 -0.9311 -0.3743
10181TIP3   OH254737   1.433   2.027  11.880 -0.2273 -0.3160 -0.4069
10181TIP3    H154738   1.483   1.991  11.807 -0.4804 -0.8018 -0.3434
10181TIP3    H254739   1.431   2.121  11.863  1.2167 -0.2035 -0.0985
10182TIP3   OH254740   6.964   3.353  11.153  0.2651  0.3525 -0.5768
10182TIP3    H154741   6.971   3.448  11.164 -0.5246  0.3627 -0.0532
10182TIP3    H254742   6.878   3.341  11.112 -0.3414 -0.2168  0.7895
10183TIP3   OH254743   2.093   0.724  10.576 -0.2061  0.7856  0.1415
10183TIP3    H154744   2.045   0.646  10.549  2.3940 -1.4785  1.6177
10183TIP3    H254745   2.127   0.760  10.494 -1.0795  0.1443 -0.5216
10184TIP3   OH254746   7.558   3.516  12.615  0.2679  0.1921  0.1992
10184TIP3    H154747   7.467   3.544  12.616 -0.1914 -1.1226 -0.9349
10184TIP3    H254748   7.584   3.521  12.523  1.4517  0.8514  0.5496
10185TIP3   OH254749   1.389   4.069  11.670  0.2980 -0.7040  0.2771
10185TIP3    H154750   1.420   3.998  11.726 -0.1361 -1.1653 -0.0578
10185TIP3    H254751   1.389   4.032  11.582 -1.5506 -0.8621  0.3099
10186TIP3   OH254752   7.321   5.736  11.560  0.7437  0.1918 -0.0313
10186TIP3    H154753   7.337   5.729  11.654  0.4972 -0.2919 -0.0212
10186TIP3    H254754   7.383   5.803  11.530  1.8255 -0.6450  0.2463
10187TIP3   OH254755   3.246   1.166  12.586 -0.2393  0.1089  0.5267
10187TIP3    H154756   3.215   1.239  12.640 -0.3528  1.8900 -1.7805
10187TIP3    H254757   3.338   1.188  12.568  0.0082 -0.8451  0.6109
10188TIP3   OH254758   4.976   1.476  12.363  0.3117 -0.3184 -0.1046
10188TIP3    H154759   4.966   1.430  12.279  2.2953 -0.2598 -0.4051
10188TIP3    H254760   5.031   1.418  12.416 -1.1180 -0.4752  1.2971
10189TIP3   OH254761   0.173   2.960  12.278  0.0475  0.0312 -0.2229
10189TIP3    H154762   0.140   2.910  12.353  0.7790  1.2582  0.9705
10189TIP3    H254763   0.143   2.911  12.202  1.4424 -2.7136  0.8379
10190TIP3   OH254764   5.925   3.016  10.793  0.3643  0.1413  0.2451
10190TIP3    H154765   5.878   2.988  10.714  1.4356  1.3438 -0.8658
10190TIP3    H254766   5.998   2.954  10.801  0.7182  0.4914 -0.1944
10191TIP3   OH254767   1.310   0.024  12.362  0.8866  0.8516  0.5011
10191TIP3    H154768   1.246  -0.044  12.385  0.5787  1.4408  1.4598
10191TIP3    H254769   1.381   0.012  12.425  1.2249  0.8702  0.1192
10192TIP3   OH254770   4.194   2.674  10.917 -0.6577  0.2372 -0.1991
10192TIP3    H154771   4.203   2.760  10.875  1.9978  0.7479  1.2135
10192TIP3    H254772   4.210   2.690  11.009 -1.9266 -1.5538  0.3931
10193TIP3   OH254773   0.040   1.896  12.492  0.1129  0.5555 -0.1787
10193TIP3    H154774   0.101   1.827  12.518 -0.2654  0.3833  0.2923
10193TIP3    H254775  -0.011   1.857  12.420  1.6508  1.2923 -1.7207
10194TIP3   OH254776   1.396   4.657  11.121 -0.7505  0.1411 -0.2689
10194TIP3    H154777   1.445   4.724  11.073  0.5689  0.3366  1.2563
10194TIP3    H254778   1.407   4.681  11.213  0.0657 -2.3472  0.3496
10195TIP3   OH254779   4.274   4.816  12.535 -0.4443  0.1368  0.3918
10195TIP3    H154780   4.275   4.777  12.622  0.2658  1.6350  1.0868
10195TIP3    H254781   4.340   4.766  12.486 -0.1295 -0.0641  1.0108
10196TIP3   OH254782   7.512   7.648  12.389  0.0999 -0.3531  0.4920
10196TIP3    H154783   7.470   7.643  12.475 -0.7431 -0.4204  0.0827
10196TIP3    H254784   7.443   7.678  12.330  0.9121  0.6145 -0.0008
10197TIP3   OH254785   1.450   6.275  12.290  1.4112  0.1285  0.1718
10197TIP3    H154786   1.455   6.357  12.242 -2.0419 -0.1729 -0.9688
10197TIP3    H254787   1.468   6.300  12.381  1.6380  1.9158 -0.3191
10198TIP3   OH254788   4.980   1.680  13.175  0.2234  0.7350  0.7401
10198TIP3    H154789   4.889   1.707  13.162  0.3255  0.8622  0.2578
10198TIP3    H254790   4.976   1.614  13.244 -0.3666 -0.0757 -0.0432
10199TIP3   OH254791   2.288   0.937  12.514 -0.2828 -0.1815 -0.4954
10199TIP3    H154792   2.374   0.906  12.542 -0.3096 -0.2820 -0.5238
10199TIP3    H254793   2.244   0.962  12.595 -0.1594  0.0416 -0.4967
10200TIP3   OH254794   0.108   0.123  11.724  0.3823  0.5319  0.2196
10200TIP3    H154795   0.073   0.212  11.724  1.0901  0.8194 -0.5514
10200TIP3    H254796   0.031   0.066  11.731 -0.1603  1.1720 -0.4805
10201TIP3   OH254797   6.209   1.027  11.362  0.2413  0.0968 -0.3331
10201TIP3    H154798   6.153   0.960  11.323 -0.0592 -0.3433  0.8203
10201TIP3    H254799   6.183   1.109  11.319  0.3602 -0.4549 -1.4867
10202TIP3   OH254800   2.378   1.216  10.158 -0.2126  0.8309 -0.0616
10202TIP3    H154801   2.289   1.247  10.142  0.1080  0.9328 -1.8648
10202TIP3    H254802   2.430   1.296  10.162  0.2074  0.6903 -1.9654
10203TIP3   OH254803   3.872   1.655  11.754  0.2731 -0.1161 -0.0696
10203TIP3    H154804   3.961   1.636  11.783  0.3879 -1.0456 -0.9560
10203TIP3    H254805   3.817   1.639  11.831  0.7246 -0.9757  0.0870
10204TIP3   OH254806   7.216   1.340  12.362  0.2399 -0.4694 -0.3866
10204TIP3    H154807   7.269   1.304  12.291 -1.9419 -0.6532 -2.0468
10204TIP3    H254808   7.126   1.321  12.336 -0.7418  1.2455  1.4750
10205TIP3   OH254809   1.311   1.478  12.337 -0.4146  0.1726 -0.2942
10205TIP3    H154810   1.306   1.508  12.428  0.3727  1.2009 -0.5608
10205TIP3    H254811   1.250   1.404  12.333 -1.1659  0.6844  0.8346
10206TIP3   OH254812   1.666   5.097  12.437  0.5437 -0.3998 -0.2869
10206TIP3    H154813   1.624   5.181  12.455  3.4742  1.2666 -0.5054
10206TIP3    H254814   1.625   5.066  12.357 -1.4131  0.1979  0.4335
10207TIP3   OH254815   2.874   4.778  12.402 -0.2887  0.1972  0.1996
10207TIP3    H154816   2.952   4.741  12.444 -0.3506  0.6244  0.6965
10207TIP3    H254817   2.806   4.712  12.414  1.0532 -2.4902 -4.3457
10208TIP3   OH254818   5.266   4.333  12.826 -0.1507 -1.0176 -0.3010
10208TIP3    H154819   5.273   4.409  12.768 -0.0092 -1.4893 -0.9016
10208TIP3    H254820   5.349   4.331  12.873  0.3801 -1.5712 -1.2393
10209TIP3   OH254821   3.266   3.015  12.552  0.7279  0.3543  0.3247
10209TIP3    H154822   3.356   2.985  12.549  0.5731 -0.0562 -1.4322
10209TIP3    H254823   3.214   2.937  12.532  0.1443  1.0659 -1.1218
10210TIP3   OH254824   6.517   2.162  11.456  0.3444 -0.5744  0.2750
10210TIP3    H154825   6.568   2.114  11.521  0.2845 -0.0480  0.7116
10210TIP3    H254826   6.574   2.235  11.429 -0.3767  0.3580  1.1838
10211TIP3   OH254827   6.532   5.176  11.521  0.2104 -0.0767 -0.5418
10211TIP3    H154828   6.599   5.243  11.505  2.2789 -1.8142  0.2958
10211TIP3    H254829   6.450   5.224  11.527  1.5447  2.3156 -0.3957
10212TIP3   OH254830   0.941   1.566  11.040 -0.1066 -0.0720 -0.1560
10212TIP3    H154831   0.932   1.471  11.044 -0.1668 -0.0886 -0.6728
10212TIP3    H254832   0.852   1.599  11.049 -0.3013 -0.1239 -1.5842
10213TIP3   OH254833   3.579   6.471  12.379 -0.0267  0.0823 -0.2554
10213TIP3    H154834   3.673   6.466  12.367 -0.2302  1.6028 -3.7415
10213TIP3    H254835   3.552   6.382  12.399  2.1726 -0.2266  1.6610
10214TIP3   OH254836   1.614   1.736  11.799 -0.1525  0.3403  0.0048
10214TIP3    H154837   1.594   1.753  11.891  0.0468  1.1857 -0.0983
10214TIP3    H254838   1.688   1.794  11.780 -0.4098  0.4246 -0.7755
10215TIP3   OH254839   0.220   6.702  12.250 -0.6143 -0.4089 -0.5792
10215TIP3    H154840   0.302   6.733  12.211 -0.6560  2.7651  1.4275
10215TIP3    H254841   0.239   6.699  12.344 -2.6885  0.1363 -0.1043
10216TIP3   OH254842   6.634   4.874  10.662  0.0615 -0.1013 -0.3832
10216TIP3    H154843   6.565   4.920  10.710  1.0536  0.2903  0.7157
10216TIP3    H254844   6.595   4.790  10.638 -1.3021  0.7201 -1.1675
10217TIP3   OH254845   0.227   3.312  10.979  0.3158 -0.4570 -0.0981
10217TIP3    H154846   0.316   3.294  11.012  0.3992 -0.4867 -0.3391
10217TIP3    H254847   0.185   3.361  11.050  1.2488  1.5208 -0.8345
10218TIP3   OH254848   2.051   0.422  12.009 -0.1206 -0.2985  0.3584
10218TIP3    H154849   1.997   0.383  12.078 -1.6923  0.0435 -0.6257
10218TIP3    H254850   1.988   0.464  11.951  1.2954  0.8779 -0.3842
10219TIP3   OH254851   4.489   4.929  10.804  0.0572  0.2112  0.3177
10219TIP3    H154852   4.394   4.917  10.800  0.0961 -0.4973  1.2180
10219TIP3    H254853   4.501   5.018  10.835 -0.3188  0.2265  0.4230
10220TIP3   OH254854   0.889   3.375  10.526 -1.0159 -0.0473 -0.2961
10220TIP3    H154855   0.960   3.358  10.464 -0.4465 -1.2619  0.6574
10220TIP3    H254856   0.933   3.406  10.605 -1.5542 -0.5735  0.2212
10221TIP3   OH254857   5.628   5.443  11.705  0.1610  0.8813 -0.2180
10221TIP3    H154858   5.650   5.382  11.776  0.1720 -0.2827 -1.1940
10221TIP3    H254859   5.554   5.494  11.740  0.7165  0.9350  0.9386
10222TIP3   OH254860   0.668   5.298  12.070  0.2475  0.2794  0.5686
10222TIP3    H154861   0.754   5.265  12.095  0.4019 -0.0545 -0.3925
10222TIP3    H254862   0.684   5.355  11.995 -0.3912  0.0037  0.2117
10223TIP3   OH254863   6.336   0.034  10.706 -0.1358 -0.1605 -0.4104
10223TIP3    H154864   6.295   0.094  10.643 -1.2780  2.0281  2.1982
10223TIP3    H254865   6.412   0.082  10.740 -0.4456 -0.5728  0.9582
10224TIP3   OH254866   1.538   6.459  11.035 -0.3465 -0.9552  0.2534
10224TIP3    H154867   1.518   6.386  10.976 -0.0057 -1.6228  0.9416
10224TIP3    H254868   1.536   6.537  10.979  2.6472 -1.8056 -1.2818
10225TIP3   OH254869   7.675   1.303  12.768  0.1652  0.2117  0.0462
10225TIP3    H154870   7.633   1.292  12.682  1.7417 -0.6711 -0.6559
10225TIP3    H254871   7.763   1.334  12.747 -0.5517  3.7275  1.5491
10226TIP3   OH254872   4.501   0.551  11.987 -0.1443 -0.2144 -0.2250
10226TIP3    H154873   4.524   0.644  11.997 -0.0254 -0.3126  0.4397
10226TIP3    H254874   4.461   0.527  12.071  0.8033 -1.0445  0.0128
10227TIP3   OH254875   1.525   7.243  11.883  0.1587  0.0730 -0.3785
10227TIP3    H154876   1.458   7.289  11.832  0.2214  0.4911 -0.0880
10227TIP3    H254877   1.497   7.254  11.974  0.6180  0.2515 -0.2555
10228TIP3   OH254878   4.328   5.307  12.626  0.3870 -0.2276 -0.2200
10228TIP3    H154879   4.316   5.237  12.562 -1.4261 -0.3646  0.1986
10228TIP3    H254880   4.330   5.388  12.574 -3.0987 -0.1420 -0.4466
10229TIP3   OH254881   7.104   1.289  11.624  0.3718  0.6898 -0.2010
10229TIP3    H154882   7.065   1.233  11.557 -1.1269  0.4472  0.8255
10229TIP3    H254883   7.186   1.245  11.647 -0.3203 -0.5834 -0.0917
10230TIP3   OH254884   5.559   1.569  11.491  0.0153 -0.3477 -0.3804
10230TIP3    H154885   5.500   1.496  11.509 -1.3973  0.7770 -0.2279
10230TIP3    H254886   5.564   1.573  11.396 -1.6666  0.6604 -0.4601
10231TIP3   OH254887   3.668   5.797  12.384 -0.0846  0.2924  0.0414
10231TIP3    H154888   3.737   5.743  12.421  0.1875  0.1081 -0.7168
10231TIP3    H254889   3.624   5.835  12.460 -2.0762 -3.1132  0.8288
10232TIP3   OH254890   4.179   0.354  10.879  0.1604  0.1194 -0.1620
10232TIP3    H154891   4.230   0.284  10.838  0.4886 -0.8339  1.7762
10232TIP3    H254892   4.231   0.379  10.956 -0.9062  1.1542  0.2453
10233TIP3   OH254893   7.542   1.298  11.488 -0.5016 -0.5383  0.2423
10233TIP3    H154894   7.471   1.342  11.534 -1.8019 -1.3849 -0.8508
10233TIP3    H254895   7.588   1.368  11.442 -1.5465 -0.1195 -0.2012
10234TIP3   OH254896   4.032   2.815  12.818 -0.0849  0.0676  0.1671
10234TIP3    H154897   4.085   2.850  12.890  0.9327  2.2289 -1.5106
10234TIP3    H254898   4.090   2.752  12.775 -1.3909 -2.7560  2.3023
10235TIP3   OH254899   2.628   4.558  10.618 -0.2260 -0.3635 -0.0363
10235TIP3    H154900   2.643   4.572  10.524 -0.4236 -2.4316 -0.4174
10235TIP3    H254901   2.545   4.511  10.622  0.3434 -1.3180  1.0801
10236TIP3   OH254902   1.689   3.040  10.537 -0.6260  0.3585 -0.4505
10236TIP3    H154903   1.700   3.129  10.570 -0.6272  0.8538 -1.7293
10236TIP3    H254904   1.766   2.994  10.567  0.0150  1.1412 -0.8503
10237TIP3   OH254905   6.706   1.383  11.686 -0.1408  0.0389 -0.1204
10237TIP3    H154906   6.770   1.397  11.756  1.4664 -0.4358 -1.4211
10237TIP3    H254907   6.740   1.307  11.637 -2.5115 -1.2032 -0.0001
10238TIP3   OH254908   6.203   7.201  13.012 -0.0302 -0.5620  0.1071
10238TIP3    H154909   6.109   7.206  12.996  0.1237  0.4134 -0.6249
10238TIP3    H254910   6.230   7.293  13.019  0.7709 -0.8505  0.9138
10239TIP3   OH254911   3.651   6.584  10.937  0.2112 -0.1108 -0.5239
10239TIP3    H154912   3.595   6.526  10.990  1.1345 -0.9289 -0.4247
10239TIP3    H254913   3.740   6.560  10.962  0.6435  2.4883  0.7551
10240TIP3   OH254914   7.585   7.433  10.542  0.0120 -0.1182  0.3013
10240TIP3    H154915   7.590   7.458  10.450 -0.5387 -1.9026 -0.2567
10240TIP3    H254916   7.573   7.515  10.589 -0.5068  0.7550 -1.2941
10241TIP3   OH254917   2.159   2.553  12.881  0.6020 -0.1109  0.5077
10241TIP3    H154918   2.111   2.598  12.812 -0.2042 -0.2908  0.9455
10241TIP3    H254919   2.176   2.620  12.947  3.0338  0.5410 -0.6549
10242TIP3   OH254920   6.240   1.557  10.715 -0.0924  0.4959  0.0152
10242TIP3    H154921   6.225   1.544  10.622 -1.0971 -0.1016  0.2442
10242TIP3    H254922   6.209   1.477  10.756  0.8129  0.5475  0.8278
10243TIP3   OH254923   4.440   5.488  11.680  0.3161  0.5399  0.3959
10243TIP3    H154924   4.355   5.533  11.678 -0.2040 -0.4039 -1.5936
10243TIP3    H254925   4.420   5.399  11.708  0.8627  0.6698  1.2171
10244TIP3   OH254926   7.016   3.926  11.729  0.0639  0.5275 -0.4819
10244TIP3    H154927   7.050   3.849  11.683 -0.9653 -0.5484  0.5000
10244TIP3    H254928   6.966   3.974  11.663 -0.3712 -0.3453 -0.8007
10245TIP3   OH254929   6.247   4.146  12.654 -0.1211 -0.0848 -0.2765
10245TIP3    H154930   6.319   4.099  12.696  0.9290  0.5302 -1.3343
10245TIP3    H254931   6.175   4.142  12.718 -0.1738 -3.2189 -0.3722
10246TIP3   OH254932   6.861   6.151  11.793  0.2326 -0.4847 -0.2693
10246TIP3    H154933   6.831   6.071  11.836  0.4127 -0.4210 -0.0233
10246TIP3    H254934   6.826   6.222  11.847  0.3791 -0.4019 -0.2826
10247TIP3   OH254935   1.829   1.478  11.838  0.3998  0.3748 -0.6187
10247TIP3    H154936   1.834   1.503  11.931  3.2534 -0.8304 -0.3287
10247TIP3    H254937   1.753   1.421  11.832  0.9987 -0.7125  1.3366
10248TIP3   OH254938   1.832   7.090  10.595  0.1890 -0.1784  0.1331
10248TIP3    H154939   1.915   7.133  10.615  0.6145 -1.1176  0.4685
10248TIP3    H254940   1.766   7.140  10.643  0.7263 -0.1704  0.8773
10249TIP3   OH254941   2.140   5.260  10.622 -0.0957  0.4097 -0.1820
10249TIP3    H154942   2.225   5.260  10.579  0.1486 -0.3767  0.2825
10249TIP3    H254943   2.158   5.285  10.712 -0.3167 -0.0406 -0.0100
10250TIP3   OH254944   0.482   7.372  11.945 -0.2733  0.1674 -0.0504
10250TIP3    H154945   0.487   7.461  11.982 -0.5467 -0.5782  1.8870
10250TIP3    H254946   0.391   7.345  11.962 -0.1792 -0.4912 -0.5881
10251TIP3   OH254947   0.567   6.259  11.769 -0.4387 -0.0987  0.2357
10251TIP3    H154948   0.526   6.301  11.845 -0.8180 -0.2995  0.1462
10251TIP3    H254949   0.521   6.297  11.693 -1.0909 -0.9796  0.1684
10252TIP3   OH254950   3.826   2.523  12.031  0.3340  0.2489  0.4124
10252TIP3    H154951   3.833   2.617  12.017  0.7091  0.1288 -0.2091
10252TIP3    H254952   3.808   2.487  11.945  0.2805 -0.2602  0.6333
10253TIP3   OH254953   4.815   1.800  12.536 -0.1689 -0.2617 -0.0098
10253TIP3    H154954   4.811   1.754  12.453 -0.5701  0.8350 -0.6195
10253TIP3    H254955   4.730   1.844  12.543 -1.1437 -2.2402  2.1402
10254TIP3   OH254956   6.558   4.004  11.545 -0.1023 -0.0287 -0.2804
10254TIP3    H154957   6.526   3.971  11.629  0.4987  1.1015  0.4197
10254TIP3    H254958   6.510   3.953  11.480  0.4981 -2.0120  0.7157
10255TIP3   OH254959   3.920   6.978  11.102  0.0066 -0.4602 -0.7052
10255TIP3    H154960   3.830   6.950  11.120 -0.8915  2.8582  0.7896
10255TIP3    H254961   3.933   6.962  11.009 -1.5623 -2.3914 -0.6359
10256TIP3   OH254962   6.607   3.106  10.417  0.0177 -0.2151 -0.0383
10256TIP3    H154963   6.672   3.168  10.383  2.6033 -2.8308 -0.2432
10256TIP3    H254964   6.619   3.109  10.512 -0.4891  0.1955  0.0189
10257TIP3   OH254965   3.078   5.024  11.705 -0.0439 -0.3915 -0.1203
10257TIP3    H154966   3.165   5.042  11.669 -0.4430  1.3952 -0.2937
10257TIP3    H254967   3.067   4.930  11.694  2.0329 -0.7423  0.3194
10258TIP3   OH254968   3.187   4.354  11.019  0.2144 -0.2196 -0.1287
10258TIP3    H154969   3.267   4.310  10.990  1.8345  1.4132  1.6689
10258TIP3    H254970   3.188   4.438  10.973  0.4647  0.5240  1.2042
10259TIP3   OH254971   4.910   2.061  13.475 -0.4210  0.1010  0.0640
10259TIP3    H154972   4.990   2.055  13.422 -0.6249  1.7540 -0.4820
10259TIP3    H254973   4.869   1.975  13.466  1.0784 -0.6499  0.0246
10260TIP3   OH254974   0.054   4.799  11.780 -0.7879 -0.1549  0.0576
10260TIP3    H154975   0.047   4.834  11.691 -0.5506  0.6360  0.3476
10260TIP3    H254976  -0.010   4.850  11.830  0.6903  0.9976  0.8265
10261TIP3   OH254977   4.844   4.074  12.585  0.2683  0.2713 -0.5383
10261TIP3    H154978   4.902   4.148  12.604 -0.3466  1.0987 -1.7723
10261TIP3    H254979   4.797   4.059  12.667 -0.1987  1.8113 -0.4923
10262TIP3   OH254980   3.788   5.119  12.082 -0.3675 -0.3065  0.0324
10262TIP3    H154981   3.850   5.174  12.035 -0.2990 -2.1601 -2.2255
10262TIP3    H254982   3.797   5.145  12.174  1.9058  1.2079 -0.5485
10263TIP3   OH254983   5.685   0.532  11.215  0.7481  0.0956  0.1510
10263TIP3    H154984   5.752   0.596  11.239  1.2405  0.0540 -1.0028
10263TIP3    H254985   5.632   0.521  11.293 -1.7689  4.7806 -0.5608
10264TIP3   OH254986   5.814   7.501  11.278  0.5031 -0.1539  0.3038
10264TIP3    H154987   5.780   7.578  11.323  1.6396  0.2949  0.4393
10264TIP3    H254988   5.771   7.502  11.192  0.7251  0.7985  0.1985
10265TIP3   OH254989   5.403   2.249  12.846 -0.6772 -0.1543  0.3660
10265TIP3    H154990   5.376   2.185  12.912  0.2053 -0.0457  0.8505
10265TIP3    H254991   5.347   2.231  12.771 -0.4784 -1.4697  0.5078
10266TIP3   OH254992   5.175   1.225  11.725  0.1469  0.2085  0.4038
10266TIP3    H154993   5.103   1.283  11.703 -0.7484 -0.5972  1.0765
10266TIP3    H254994   5.211   1.261  11.806 -1.2888 -0.8783  1.5853
10267TIP3   OH254995   0.799   1.259  12.432  0.4085 -0.0220  0.1652
10267TIP3    H154996   0.796   1.185  12.372 -1.1102  1.1149 -1.2420
10267TIP3    H254997   0.865   1.234  12.497 -0.7222 -2.9885  0.3009
10268TIP3   OH254998   6.605   6.281  10.635  0.2724  0.5382  0.3257
10268TIP3    H154999   6.509   6.273  10.633  0.1064  1.6600  1.7877
10268TIP3    H255000   6.632   6.227  10.709  0.5775  1.5674  0.9879
10269TIP3   OH255001   0.218   5.103  11.774  0.1776 -0.0376 -0.0560
10269TIP3    H155002   0.206   5.166  11.845  0.0599  1.6180 -1.4757
10269TIP3    H255003   0.148   5.039  11.788 -0.5283  0.8600  0.7044
10270TIP3   OH255004   0.855   4.388  12.997 -0.4435  0.5917 -0.2124
10270TIP3    H155005   0.911   4.352  13.065 -0.4244  0.2615 -0.3979
10270TIP3    H255006   0.767   4.388  13.035 -0.6079 -0.5806 -0.5482
10271TIP3   OH255007   1.225   0.095  11.605 -0.5126  0.3897  0.0207
10271TIP3    H155008   1.141   0.141  11.606 -0.3971  0.7188 -1.7975
10271TIP3    H255009   1.202   0.003  11.595 -0.6813  0.3290  0.9308
10272TIP3   OH255010   0.827   6.579  11.758 -0.3044 -0.1462 -0.4994
10272TIP3    H155011   0.839   6.485  11.776 -1.6728 -0.5067 -1.3334
10272TIP3    H255012   0.871   6.623  11.831 -1.2407 -1.4718  0.9276
10273TIP3   OH255013   7.322   4.922  12.597 -0.3433 -0.3462  0.0537
10273TIP3    H155014   7.363   4.995  12.552  0.4326 -0.4853  0.5128
10273TIP3    H255015   7.239   4.908  12.551 -0.2346  0.4455 -0.3919
10274TIP3   OH255016   6.112   2.632  12.826 -0.2767 -0.5211  0.2259
10274TIP3    H155017   6.136   2.696  12.893  1.0065  1.3918 -1.9223
10274TIP3    H255018   6.038   2.585  12.864  0.2616  0.5723  2.8822
10275TIP3   OH255019   6.049   1.712  12.218 -0.2260  0.0881 -0.2708
10275TIP3    H155020   6.089   1.625  12.226 -0.2589  0.0735 -0.2663
10275TIP3    H255021   6.120   1.773  12.238 -0.4555  0.0446  0.6808
10276TIP3   OH255022   2.361   2.218  12.333  0.3288 -0.5290  0.4362
10276TIP3    H155023   2.436   2.277  12.322 -0.1834  0.3739  1.5328
10276TIP3    H255024   2.338   2.192  12.244 -0.1313  1.8692 -0.2204
10277TIP3   OH255025   2.286   2.297  10.261  0.2425 -0.0593 -0.0164
10277TIP3    H155026   2.302   2.232  10.329 -0.0361 -0.8015 -0.6456
10277TIP3    H255027   2.190   2.303  10.255  0.2322  1.5521  1.0951
10278TIP3   OH255028   7.040   4.205  13.369  0.5687 -0.6191  0.9593
10278TIP3    H155029   7.130   4.172  13.366  0.9464  0.2819  1.6905
10278TIP3    H255030   7.003   4.182  13.284  1.0792 -2.1023  1.1072
10279TIP3   OH255031   3.124   4.329  11.918  0.0442 -0.0024 -0.1023
10279TIP3    H155032   3.058   4.352  11.984 -0.0622  0.6572 -0.4257
10279TIP3    H255033   3.082   4.350  11.834 -0.4230 -2.2994 -0.5027
10280TIP3   OH255034   6.920   1.899  12.081  0.3081 -0.1416  0.4047
10280TIP3    H155035   6.874   1.848  12.015 -0.1605 -1.6074  1.8001
10280TIP3    H255036   6.852   1.952  12.123 -0.1357 -1.9830  2.1688
10281TIP3   OH255037   0.145   4.272  13.663 -0.1637  0.7569  0.2792
10281TIP3    H155038   0.069   4.328  13.680 -1.3641 -0.9217  0.7149
10281TIP3    H255039   0.117   4.215  13.590  0.9929  0.6632 -0.1149
10282TIP3   OH255040   3.404   1.972  10.589  0.2916  0.0059  0.2583
10282TIP3    H155041   3.359   1.967  10.504  2.4956  2.2509 -1.1879
10282TIP3    H255042   3.388   1.887  10.629 -0.7797 -1.1985 -2.4466
10283TIP3   OH255043   5.846   2.269  12.038 -0.9037  0.2294 -0.0114
10283TIP3    H155044   5.790   2.196  12.063 -2.4799  1.4471  0.1854
10283TIP3    H255045   5.787   2.329  11.992  0.4533  1.1519 -0.5856
10284TIP3   OH255046   4.011   0.408  11.405  0.0355 -0.5451  0.3101
10284TIP3    H155047   3.978   0.497  11.416  2.2872  0.5312 -0.7613
10284TIP3    H255048   3.957   0.371  11.335 -0.8010  0.0606  0.6266
10285TIP3   OH255049   7.377   6.702  13.096  0.2334 -0.1058  0.4727
10285TIP3    H155050   7.304   6.647  13.066  0.7246  0.0237 -1.0505
10285TIP3    H255051   7.453   6.667  13.051  0.8975  0.6018  1.0148
10286TIP3   OH255052   7.035   2.532  10.770  0.4473  0.3625  0.1469
10286TIP3    H155053   7.130   2.536  10.755  0.9487 -1.0459  2.4817
10286TIP3    H255054   7.013   2.439  10.760 -0.6318  0.6124  0.0501
10287TIP3   OH255055   5.767   3.546  10.583  0.5225 -0.2355 -0.0591
10287TIP3    H155056   5.708   3.487  10.630  0.2767 -0.9371 -1.2105
10287TIP3    H255057   5.759   3.630  10.629 -0.6826 -0.5593  0.3492
10288TIP3   OH255058   6.331   7.178  10.782 -0.0604 -0.1814  0.1872
10288TIP3    H155059   6.324   7.273  10.781 -3.0717 -0.3089 -0.1509
10288TIP3    H255060   6.279   7.151  10.858 -0.6535 -1.5811 -0.6726
10289TIP3   OH255061   6.695   3.415  11.203 -0.2092 -0.2102  0.5371
10289TIP3    H155062   6.626   3.453  11.150 -0.3268 -2.8193 -1.3417
10289TIP3    H255063   6.656   3.406  11.290 -0.7840  2.0431  0.5733
10290TIP3   OH255064   4.607   2.967  12.639 -0.0729 -0.1328 -0.0787
10290TIP3    H155065   4.699   2.985  12.656 -0.7691  1.7462  2.2913
10290TIP3    H255066   4.579   2.913  12.712 -0.6676 -1.6252 -1.3448
10291TIP3   OH255067   3.842   3.841  11.471  0.2779  0.2488  0.4696
10291TIP3    H155068   3.820   3.791  11.550 -1.4480 -0.1055 -0.1976
10291TIP3    H255069   3.818   3.784  11.398  0.3604  1.1793 -0.3118
10292TIP3   OH255070   3.840   5.169  12.359  0.2878  0.0395 -0.3474
10292TIP3    H155071   3.810   5.170  12.450  0.6740  1.4519 -0.2188
10292TIP3    H255072   3.928   5.204  12.362  0.0340  0.8191 -1.3633
10293TIP3   OH255073   4.080   4.264  12.628  0.5640 -0.0704 -0.2164
10293TIP3    H155074   4.101   4.249  12.720 -0.1244 -0.2707 -0.0903
10293TIP3    H255075   4.027   4.189  12.603  0.8156 -0.0558 -0.8017
10294TIP3   OH255076   4.714   4.997  13.146 -0.0303  0.5102 -0.0630
10294TIP3    H155077   4.620   4.980  13.142  0.1954 -0.7343 -2.8880
10294TIP3    H255078   4.753   4.932  13.087  2.3945  2.2003 -0.5046
10295TIP3   OH255079   2.146   1.953  11.246 -0.0570  0.1087 -0.6185
10295TIP3    H155080   2.228   1.990  11.278 -0.2794  1.2837 -1.3329
10295TIP3    H255081   2.158   1.944  11.152 -0.0040 -1.7486 -0.4643
10296TIP3   OH255082   1.584   5.590  12.588 -0.1126 -0.4255  0.6271
10296TIP3    H155083   1.538   5.512  12.619  1.1394 -1.1213  0.8052
10296TIP3    H255084   1.568   5.656  12.656  0.6649 -1.2244  1.6156
10297TIP3   OH255085   0.533   1.479  11.669 -0.1162 -0.2875 -0.0061
10297TIP3    H155086   0.554   1.511  11.581  0.1820  0.2270  0.2467
10297TIP3    H255087   0.511   1.386  11.656  0.4048 -0.3425 -0.5563
10298TIP3   OH255088   5.234   5.190  11.197 -0.6815 -0.1634 -0.2565
10298TIP3    H155089   5.148   5.191  11.239 -0.1639  2.6779  1.0402
10298TIP3    H255090   5.215   5.200  11.104 -1.8597  2.4216  0.1525
10299TIP3   OH255091   1.867   3.839  10.425  0.2587  0.0613  0.1964
10299TIP3    H155092   1.827   3.906  10.370 -1.5666 -0.5101  0.7523
10299TIP3    H255093   1.831   3.756  10.391  1.6719 -0.5633  0.1695
10300TIP3   OH255094   2.081   6.350  11.164  0.1362  0.5196  0.2538
10300TIP3    H155095   2.155   6.305  11.123 -0.6206 -1.2538  0.7386
10300TIP3    H255096   2.013   6.350  11.097 -0.3551 -0.4093  0.7316
10301TIP3   OH255097   6.327   1.843  10.500 -0.5934 -0.1292  0.0018
10301TIP3    H155098   6.380   1.912  10.459  1.2304 -0.8357  1.0663
10301TIP3    H255099   6.245   1.887  10.524  0.0345  1.3479 -0.4611
10302TIP3   OH255100   6.499   5.012  12.434 -0.3181 -0.0934 -0.3193
10302TIP3    H155101   6.573   5.001  12.494 -0.8084  0.5871  0.4150
10302TIP3    H255102   6.532   5.074  12.368  0.2448 -0.8992 -0.8189
10303TIP3   OH255103   4.556   3.409  12.118 -0.9324  0.5279  0.2681
10303TIP3    H155104   4.473   3.370  12.090 -0.9115 -0.4352  1.4491
10303TIP3    H255105   4.567   3.380  12.208  1.3739 -0.4998 -0.2726
10304TIP3   OH255106   5.429   3.076  11.980 -0.0324  0.1259 -0.4074
10304TIP3    H155107   5.440   3.129  12.059 -1.8474 -0.1748  0.0927
10304TIP3    H255108   5.470   2.992  12.002 -0.5969  0.0129  0.2765
10305TIP3   OH255109   0.981   2.402  13.093 -0.0689 -0.7856 -0.3068
10305TIP3    H155110   0.919   2.475  13.100 -0.0744 -0.9808  2.5961
10305TIP3    H255111   1.067   2.443  13.091 -0.1128 -0.6678  0.2620
10306TIP3   OH255112   4.118   1.420  12.327  0.1432  0.1038  0.0614
10306TIP3    H155113   4.064   1.479  12.274  0.3565  2.9752  2.7680
10306TIP3    H255114   4.208   1.445  12.307  0.2586  0.1187  0.5834
10307TIP3   OH255115   7.496   4.200  10.682  0.7542 -0.0510 -0.2871
10307TIP3    H155116   7.552   4.252  10.625 -0.6612  1.9447  0.0398
10307TIP3    H255117   7.496   4.246  10.766  2.1586 -2.4997  1.1532
10308TIP3   OH255118   2.009   2.221  10.461 -0.0005  0.0203 -0.6103
10308TIP3    H155119   1.965   2.181  10.536  0.2346  1.8639  0.5967
10308TIP3    H255120   2.097   2.242  10.493 -0.4157  2.3349 -0.7804
10309TIP3   OH255121   0.306   3.122  12.090 -0.0913 -1.0138 -0.2593
10309TIP3    H155122   0.224   3.155  12.054 -0.0996 -0.1535  0.5117
10309TIP3    H255123   0.280   3.052  12.149 -0.2081 -1.2920 -0.6417
10310TIP3   OH255124   4.186   1.610  10.428 -0.9547  0.2843  0.0748
10310TIP3    H155125   4.262   1.575  10.475 -0.3659  0.8297 -0.4563
10310TIP3    H255126   4.138   1.532  10.401  0.1076 -0.1345 -0.6956
10311TIP3   OH255127   7.325   0.806  12.321  0.5130 -0.2489  0.0221
10311TIP3    H155128   7.297   0.833  12.409 -1.0160 -0.6712 -0.3179
10311TIP3    H255129   7.356   0.887  12.280  0.6821  0.0584  0.7353
10312TIP3   OH255130   6.817   4.042  13.838  0.3953  0.8992 -0.7103
10312TIP3    H155131   6.911   4.043  13.819  0.2653  1.2662 -1.3659
10312TIP3    H255132   6.789   4.133  13.827 -0.1258  0.7087 -1.0093
10313TIP3   OH255133   5.475   7.235  13.000  0.3102 -0.4139  0.4560
10313TIP3    H155134   5.403   7.282  13.042  0.2889 -0.6299  0.6660
10313TIP3    H255135   5.433   7.189  12.927 -0.0142 -1.5793  1.3490
10314TIP3   OH255136   2.544   1.149  11.562  0.6977  0.4768  0.2487
10314TIP3    H155137   2.477   1.084  11.585  0.8977  0.0872 -0.2553
10314TIP3    H255138   2.550   1.145  11.467  1.9682 -0.0351  0.3291
10315TIP3   OH255139   2.102   6.355  10.561 -0.1841 -0.2712 -0.0854
10315TIP3    H155140   2.039   6.416  10.522 -0.1039  0.0151  0.2291
10315TIP3    H255141   2.153   6.409  10.621  0.2841 -0.5269 -0.2517
10316TIP3   OH255142   7.595   0.947  12.258 -0.5815  0.1202  0.1120
10316TIP3    H155143   7.533   1.006  12.215 -1.5067 -0.5726  0.4657
10316TIP3    H255144   7.648   0.912  12.186 -2.9089 -1.9632 -0.7083
10317TIP3   OH255145   3.777   0.037  11.492  0.3923  0.0650 -0.0569
10317TIP3    H155146   3.723  -0.042  11.483  0.8783 -0.2378 -0.3502
10317TIP3    H255147   3.743   0.079  11.571 -0.6499  0.1852 -0.5471
10318TIP3   OH255148   4.516   4.237  11.858  0.7428  0.0103  0.0528
10318TIP3    H155149   4.527   4.156  11.907  3.1514  0.3025  0.0751
10318TIP3    H255150   4.551   4.305  11.915  0.2096  0.8764 -0.6124
10319TIP3   OH255151   6.815   1.700  11.923 -0.1320  0.0911 -0.3474
10319TIP3    H155152   6.859   1.749  11.853  0.1994  1.0981  0.5285
10319TIP3    H255153   6.729   1.679  11.887  0.0713  0.4987 -1.0960
10320TIP3   OH255154   3.272   2.453  11.942  0.1871  0.0651 -0.1714
10320TIP3    H155155   3.366   2.469  11.952  0.1375  1.0785 -1.1610
10320TIP3    H255156   3.256   2.373  11.993  1.0871  1.2773  2.1476
10321TIP3   OH255157   2.066   6.297  13.047 -0.2499 -0.1424 -0.3298
10321TIP3    H155158   2.114   6.376  13.020  2.0254 -0.9767  0.9784
10321TIP3    H255159   2.133   6.228  13.048 -2.0139 -1.9417 -0.6869
10322TIP3   OH255160   3.415   4.764  12.018 -0.7848 -0.5357  0.0504
10322TIP3    H155161   3.441   4.819  11.944 -0.4195  2.0340  1.9608
10322TIP3    H255162   3.390   4.681  11.978 -2.4635  1.3099 -3.1886
10323TIP3   OH255163   1.165   4.521  11.160  0.5937  0.2901  0.2990
10323TIP3    H155164   1.234   4.574  11.120  0.2285  1.3821  1.0686
10323TIP3    H255165   1.101   4.507  11.090  1.4637 -0.5615 -0.3639
10324TIP3   OH255166   7.422   3.498  10.812 -0.4749  0.6313 -0.0246
10324TIP3    H155167   7.468   3.566  10.763  0.9020 -0.0954  0.2022
10324TIP3    H255168   7.392   3.436  10.745 -0.3866  0.6707 -0.1000
10325TIP3   OH255169   6.187   2.704  10.516 -0.1371 -0.9478 -0.9910
10325TIP3    H155170   6.255   2.769  10.533  0.1498 -1.4207 -0.2712
10325TIP3    H255171   6.121   2.750  10.465  0.1758 -0.1539 -0.6888
10326TIP3   OH255172   4.375   2.203  11.598 -0.8266 -0.6579 -0.2307
10326TIP3    H155173   4.328   2.129  11.559 -1.7482 -0.6547  0.8223
10326TIP3    H255174   4.328   2.221  11.679 -0.6427  1.1094 -0.4676
10327TIP3   OH255175   1.462   5.075  13.053 -0.2970 -0.2451  0.1441
10327TIP3    H155176   1.474   5.139  12.982 -0.6439  0.4428  0.6986
10327TIP3    H255177   1.496   4.993  13.017  0.0265  0.2184 -0.6276
10328TIP3   OH255178   1.657   5.673  11.344 -0.4489  0.2491  0.2139
10328TIP3    H155179   1.595   5.744  11.327 -1.3167 -0.6049 -0.2765
10328TIP3    H255180   1.735   5.697  11.294 -1.0708  0.3939 -0.7153
10329TIP3   OH255181   6.836   3.977  10.677  0.2090  0.4182  0.0430
10329TIP3    H155182   6.927   3.955  10.701  1.4284  1.3873 -3.2190
10329TIP3    H255183   6.842   4.064  10.638 -2.4292  1.1448  1.0760
10330TIP3   OH255184   7.423   2.434  12.829 -0.0649  0.0770 -0.0332
10330TIP3    H155185   7.508   2.477  12.843 -0.1513 -0.0186  0.8470
10330TIP3    H255186   7.381   2.486  12.760  0.3133  0.6957  0.1892
10331TIP3   OH255187   6.799   6.600  11.175  0.2700  0.0110  0.0116
10331TIP3    H155188   6.743   6.529  11.205  0.2074 -0.1643 -0.5121
10331TIP3    H255189   6.739   6.672  11.157  0.1494 -0.3283 -1.0024
10332TIP3   OH255190   2.562   3.728  12.170 -0.5106  0.7463  0.0057
10332TIP3    H155191   2.643   3.769  12.201 -2.1580  2.6040  2.1578
10332TIP3    H255192   2.577   3.634  12.181  1.3559  1.0426  0.2932
10333TIP3   OH255193   3.230   0.834  11.221  0.2587 -0.4806  0.0523
10333TIP3    H155194   3.287   0.906  11.196 -0.6659  0.8583  1.6376
10333TIP3    H255195   3.284   0.756  11.209  1.0853  0.3567 -2.2895
10334TIP3   OH255196   5.854   3.220  11.276 -0.4505 -0.3658  0.0774
10334TIP3    H155197   5.894   3.191  11.358  1.0580  1.1812 -0.0479
10334TIP3    H255198   5.906   3.178  11.208  1.5348  2.1308 -0.0987
10335TIP3   OH255199   6.553   7.312  11.846  0.4063 -0.3267  0.3024
10335TIP3    H155200   6.522   7.367  11.775  0.6062 -0.6774 -0.0599
10335TIP3    H255201   6.635   7.352  11.874  1.0616 -0.9839 -0.6160
10336TIP3   OH255202   1.096   3.049  10.956  0.6258  0.3710  0.0225
10336TIP3    H155203   1.051   2.984  10.902 -0.7908  1.8129 -0.6213
10336TIP3    H255204   1.153   2.998  11.013 -0.5199 -1.4307 -0.3707
10337TIP3   OH255205   5.212   2.919  11.780 -0.0845  0.1355 -0.4476
10337TIP3    H155206   5.238   2.827  11.769  0.9851  0.5905 -2.1992
10337TIP3    H255207   5.130   2.927  11.730 -0.4590  0.0170  0.1469
10338TIP3   OH255208   1.304   3.997  10.500 -0.2237  0.4563  0.0994
10338TIP3    H155209   1.331   4.086  10.479 -0.4129 -0.0206 -2.4533
10338TIP3    H255210   1.384   3.955  10.533  0.5589  0.8653 -1.2070
10339TIP3   OH255211   7.559   1.909  12.122 -0.0001  0.0277  0.3751
10339TIP3    H155212   7.540   1.928  12.030  0.1303  1.0833  0.5528
10339TIP3    H255213   7.655   1.901  12.125  0.2495  2.3466  0.7896
10340TIP3   OH255214   2.159   5.625  13.082  0.0445 -0.2360 -0.0747
10340TIP3    H155215   2.220   5.682  13.035 -1.1707 -0.0313 -1.4883
10340TIP3    H255216   2.093   5.684  13.117 -1.6990 -0.7405 -2.2769
10341TIP3   OH255217   7.234   4.823  12.266  0.0739  0.1903  0.3691
10341TIP3    H155218   7.262   4.889  12.203  0.1579  1.0337  1.2678
10341TIP3    H255219   7.311   4.806  12.320  0.5141 -1.8055 -0.7991
10342TIP3   OH255220   0.791   0.793  12.057 -0.4719 -0.9385 -0.1453
10342TIP3    H155221   0.734   0.821  11.985  0.2185 -1.7309 -1.0232
10342TIP3    H255222   0.732   0.783  12.131 -1.1162  0.4327 -0.4331
10343TIP3   OH255223   5.708   3.787  10.750  0.2040 -0.7399  0.3077
10343TIP3    H155224   5.696   3.878  10.725 -1.1741 -1.3706 -1.5216
10343TIP3    H255225   5.640   3.771  10.816 -1.6414 -1.1782 -1.5788
10344TIP3   OH255226   2.804   6.164  11.233  0.1617 -0.0759 -0.0662
10344TIP3    H155227   2.760   6.201  11.310  0.3897  1.5131 -0.6654
10344TIP3    H255228   2.804   6.069  11.249 -1.0686  0.0996  1.2081
10345TIP3   OH255229   6.922   5.469  13.126 -0.0230  0.3583 -0.0823
10345TIP3    H155230   6.843   5.448  13.176  0.3369  1.0341  0.7962
10345TIP3    H255231   6.894   5.537  13.064  0.2260  1.8794  1.4118
10346TIP3   OH255232   5.880   1.969  12.436  0.1466 -0.4343  0.2308
10346TIP3    H155233   5.836   1.900  12.487 -0.2119 -0.0022  0.5181
10346TIP3    H255234   5.969   1.936  12.423 -0.8852 -2.4525 -2.4834
10347TIP3   OH255235   6.836   7.005  11.694  0.2201  0.2514  0.2201
10347TIP3    H155236   6.753   7.025  11.737  0.1192 -0.6092  0.4261
10347TIP3    H255237   6.900   7.058  11.741  0.0296 -0.2704  1.0836
10348TIP3   OH255238   6.697   5.398  12.208  0.2645  0.2077  0.0985
10348TIP3    H155239   6.771   5.405  12.148  1.0231 -0.3757  0.9393
10348TIP3    H255240   6.673   5.305  12.205 -1.2553  0.6046 -1.1045
10349TIP3   OH255241   0.338   5.229  12.716 -0.1097  0.1366 -0.4305
10349TIP3    H155242   0.400   5.214  12.645 -0.4607 -0.3245 -0.6536
10349TIP3    H255243   0.290   5.146  12.722 -1.3191  0.7807 -0.8856
10350TIP3   OH255244   3.674   2.522  11.114 -0.3099 -0.3970  0.4818
10350TIP3    H155245   3.603   2.532  11.050 -0.3382  0.2163  0.5983
10350TIP3    H255246   3.750   2.560  11.071 -0.4310  0.4420  0.9715
10351TIP3   OH255247   5.438   6.848  10.888 -0.5535  0.2238 -0.2751
10351TIP3    H155248   5.499   6.919  10.907  3.0984 -2.7598  0.4596
10351TIP3    H255249   5.392   6.832  10.971  2.0487 -1.1008  1.0397
10352TIP3   OH255250   7.178   3.814  11.248  0.0678  0.7812 -0.2604
10352TIP3    H155251   7.110   3.881  11.250  0.7619  1.5105  1.6671
10352TIP3    H255252   7.226   3.826  11.330  0.9209 -1.3739 -0.3797
10353TIP3   OH255253   3.306   2.195  11.656 -0.5675  0.2890 -0.0477
10353TIP3    H155254   3.234   2.152  11.701 -0.8965 -1.6290 -2.2136
10353TIP3    H255255   3.265   2.240  11.582  0.2119  1.3273  0.1126
10354TIP3   OH255256   0.222   3.759  13.022 -0.1258  0.0985  0.1065
10354TIP3    H155257   0.181   3.742  12.938 -1.1202  0.1088  0.5780
10354TIP3    H255258   0.190   3.688  13.079 -1.2898  1.3556  1.0804
10355TIP3   OH255259   2.900   5.394  11.397 -0.3612  0.4589  0.0345
10355TIP3    H155260   2.878   5.464  11.458  2.3511 -0.2282  2.0047
10355TIP3    H255261   2.956   5.436  11.331 -0.8910  0.6402 -0.3015
10356TIP3   OH255262   2.945   3.011  10.482 -0.1424 -0.3833  0.3168
10356TIP3    H155263   2.906   2.998  10.569 -0.3359 -0.3274  0.2393
10356TIP3    H255264   3.035   3.038  10.500 -0.3691  0.2734  0.5202
10357TIP3   OH255265   1.724   2.661  12.591 -0.4980  0.2632 -0.2621
10357TIP3    H155266   1.637   2.620  12.596 -0.2627 -0.1079  2.7395
10357TIP3    H255267   1.785   2.588  12.600  0.1594  0.6001 -1.6852
10358TIP3   OH255268   0.117   4.972  10.834  0.5293 -0.2248 -0.3428
10358TIP3    H155269   0.184   4.918  10.793  0.9772  0.7795 -0.9816
10358TIP3    H255270   0.111   5.050  10.778 -2.0518 -0.8040 -1.0212
10359TIP3   OH255271   0.020   1.214  10.675 -0.3532 -0.5333 -0.4335
10359TIP3    H155272  -0.068   1.249  10.691 -0.1836 -0.7164  1.0021
10359TIP3    H255273   0.076   1.291  10.671 -0.3533 -0.4946  0.2163
10360TIP3   OH255274   6.278   3.155  10.882  0.2010 -0.3845 -0.6302
10360TIP3    H155275   6.339   3.178  10.952 -1.3141  0.2768  0.5426
10360TIP3    H255276   6.272   3.233  10.829 -0.4568 -0.0531 -0.0847
10361TIP3   OH255277   0.087   6.714  10.498 -0.6193  0.4866  0.4108
10361TIP3    H155278   0.148   6.788  10.494  0.2909 -0.3150 -0.8647
10361TIP3    H255279   0.006   6.748  10.458  0.0339  0.5865 -0.8760
10362TIP3   OH255280   5.405   4.489  12.169 -0.1522  0.0373  0.0753
10362TIP3    H155281   5.473   4.532  12.221 -1.9882  1.6746  1.2532
10362TIP3    H255282   5.447   4.410  12.136  1.7829  0.0592  2.2303
10363TIP3   OH255283   6.314   3.219  13.172 -0.3578 -0.2805  0.2482
10363TIP3    H155284   6.296   3.132  13.206  0.1349 -0.6523 -0.4245
10363TIP3    H255285   6.379   3.255  13.231  0.5903 -0.9741 -0.3414
10364TIP3   OH255286   1.744   2.361  12.009  0.2452  0.3276 -0.0531
10364TIP3    H155287   1.698   2.328  12.086  0.9417 -0.3692  0.0746
10364TIP3    H255288   1.688   2.431  11.975  0.3873  1.2935  1.6335
10365TIP3   OH255289   4.038   4.214  11.174 -0.7513  0.4319 -1.0008
10365TIP3    H155290   4.016   4.151  11.105  1.3488 -0.0615 -1.2933
10365TIP3    H255291   4.128   4.240  11.155 -0.3882  0.8957  1.0993
10366TIP3   OH255292   3.318   3.083  11.448  0.0882 -0.1852 -0.3912
10366TIP3    H155293   3.252   3.149  11.471 -1.5082 -1.8425  0.0496
10366TIP3    H255294   3.350   3.051  11.532  0.9660  0.1098 -0.6044
10367TIP3   OH255295   3.780   5.125  11.300  0.0451 -0.0769  0.5779
10367TIP3    H155296   3.844   5.108  11.230 -0.4141 -0.0797  0.1535
10367TIP3    H255297   3.833   5.151  11.375  0.4540  1.8161 -0.3166
10368TIP3   OH255298   6.512   6.651  10.943  0.2763 -0.0402 -0.0749
10368TIP3    H155299   6.446   6.600  10.896 -1.8037  2.0813  0.3826
10368TIP3    H255300   6.482   6.652  11.034  0.5972  1.4345  0.0437
10369TIP3   OH255301   6.375   3.733  12.156  0.2173  0.5640 -0.1433
10369TIP3    H155302   6.411   3.693  12.235  0.3406  0.3030 -0.3272
10369TIP3    H255303   6.427   3.812  12.143 -0.2586  0.9707  0.4168
10370TIP3   OH255304   5.802   5.517  11.507  0.4704  0.0239 -0.5389
10370TIP3    H155305   5.754   5.504  11.589  0.1276 -0.4058 -0.8039
10370TIP3    H255306   5.734   5.542  11.444  0.7644  0.5850 -0.6423
10371TIP3   OH255307   3.408   7.631  10.820 -1.0228  0.0992  0.0604
10371TIP3    H155308   3.416   7.724  10.800  1.5956 -0.1777 -0.5263
10371TIP3    H255309   3.316   7.611  10.802 -1.4519  2.3530 -0.6644
10372TIP3   OH255310   0.105   2.843  13.103 -0.5232 -0.5841  0.1151
10372TIP3    H155311   0.167   2.814  13.036 -0.5506 -0.1971 -0.0777
10372TIP3    H255312   0.045   2.769  13.113 -0.6981 -0.5313 -0.4949
10373TIP3   OH255313   3.486   2.711  11.982 -0.2011  0.5142  0.4276
10373TIP3    H155314   3.569   2.754  12.002 -0.3096  0.3593  1.2207
10373TIP3    H255315   3.475   2.645  12.050 -0.5868 -0.0176 -0.1341
10374TIP3   OH255316   1.828   6.742  11.376 -0.7367  0.0144 -0.3533
10374TIP3    H155317   1.746   6.775  11.340 -0.6034  2.9404  1.6221
10374TIP3    H255318   1.819   6.647  11.375 -3.5235  0.2046 -1.5344
10375TIP3   OH255319   2.677   2.765  13.058  0.3177  0.2592 -0.8907
10375TIP3    H155320   2.589   2.796  13.038  1.3562  3.2365 -1.4829
10375TIP3    H255321   2.672   2.735  13.149 -0.9535  2.1272 -0.2855
10376TIP3   OH255322   7.032   5.999  13.203 -0.1296  0.3324  0.5470
10376TIP3    H155323   7.060   6.090  13.194 -0.1962  0.4541  1.4768
10376TIP3    H255324   6.996   5.976  13.117 -0.1396  1.1838  0.3168
10377TIP3   OH255325   6.152   2.877  11.868 -0.6175  0.0563 -0.4776
10377TIP3    H155326   6.206   2.897  11.945 -0.7253  0.1717 -0.4306
10377TIP3    H255327   6.163   2.954  11.811 -1.0077  0.2356 -0.3124
10378TIP3   OH255328   2.754   0.651  11.997  0.3987  0.5588 -0.2881
10378TIP3    H155329   2.782   0.742  11.985 -1.2884  1.5099  2.2697
10378TIP3    H255330   2.769   0.633  12.090  1.8537 -2.2612 -0.9500
10379TIP3   OH255331   6.779   1.130  10.573  0.6635  0.5000  0.2643
10379TIP3    H155332   6.863   1.088  10.552  0.5775  0.0456  0.8135
10379TIP3    H255333   6.764   1.109  10.665 -0.0382  0.6111  0.1803
10380TIP3   OH255334   2.137   2.048  12.461 -0.1403  0.2683 -0.1238
10380TIP3    H155335   2.203   1.978  12.464  1.2390  1.5617  1.2976
10380TIP3    H255336   2.187   2.128  12.474 -1.9914  1.3233  0.7976
10381TIP3   OH255337   0.779   4.666  11.985  0.4360  0.2732  0.0919
10381TIP3    H155338   0.868   4.657  12.017 -0.0898 -0.6560  1.3664
10381TIP3    H255339   0.777   4.753  11.944  1.7065  0.6133  0.6999
10382TIP3   OH255340   2.303   4.157  11.110 -0.0472  0.3021 -0.7763
10382TIP3    H155341   2.305   4.080  11.053 -0.4697 -0.1864 -0.1386
10382TIP3    H255342   2.385   4.202  11.092  1.8784 -2.0785  1.2799
10383TIP3   OH255343   1.020   1.852  11.798  0.5307  0.2841  0.2208
10383TIP3    H155344   0.932   1.847  11.835  0.8097 -0.7738  0.7739
10383TIP3    H255345   1.078   1.855  11.875  1.0785 -1.1815 -0.1009
10384TIP3   OH255346   2.608   3.721  12.561  0.1841  0.2700  0.7971
10384TIP3    H155347   2.652   3.730  12.477 -0.4887  3.2841  0.6462
10384TIP3    H255348   2.665   3.765  12.623 -0.8307  0.9654  1.2677
10385TIP3   OH255349   1.626   3.273  10.678 -0.2821 -0.4620 -0.2221
10385TIP3    H155350   1.554   3.266  10.741  0.4258 -0.9731  0.5468
10385TIP3    H255351   1.588   3.323  10.605 -0.9018  0.8562  0.9371
10386TIP3   OH255352   6.590   5.088  13.327 -0.1784 -0.4215  0.3902
10386TIP3    H155353   6.583   5.179  13.299  0.3046  0.0184  1.6022
10386TIP3    H255354   6.506   5.049  13.303 -0.9057  0.6965  1.0279
10387TIP3   OH255355   0.485   3.413  11.845  0.3630 -0.4605 -0.4975
10387TIP3    H155356   0.496   3.453  11.932  1.7359 -3.0291  0.6456
10387TIP3    H255357   0.530   3.472  11.785 -1.9430  2.2058  0.1718
10388TIP3   OH255358   7.242   6.426  11.608 -0.1801  0.3586 -0.5094
10388TIP3    H155359   7.304   6.463  11.545 -0.6799  0.3314 -1.0172
10388TIP3    H255360   7.178   6.379  11.555 -0.8884  0.7566 -0.0237
10389TIP3   OH255361   3.144   4.656  10.950  0.2186 -0.3066 -0.2326
10389TIP3    H155362   3.050   4.651  10.968  0.3316  0.4754  0.6306
10389TIP3    H255363   3.154   4.735  10.897  0.5311  0.3030  0.7157
10390TIP3   OH255364   5.791   4.257  10.426 -0.4376  0.3952  0.0753
10390TIP3    H155365   5.855   4.198  10.386  1.5824  1.4590  1.5421
10390TIP3    H255366   5.768   4.215  10.509 -2.1423 -0.2432 -0.6692
10391TIP3   OH255367   0.638   5.492  12.632  0.6032 -0.0366 -0.3239
10391TIP3    H155368   0.581   5.554  12.587  0.9923 -0.6212 -1.6810
10391TIP3    H255369   0.645   5.526  12.721 -0.1499  1.1988 -0.7098
10392TIP3   OH255370   4.031   0.449  12.009 -0.7220  0.2531  0.0871
10392TIP3    H155371   4.058   0.405  12.090 -0.9153  0.2729  0.1609
10392TIP3    H255372   4.113   0.461  11.960 -0.7566 -0.9285 -0.3014
10393TIP3   OH255373   0.858   5.748  12.618  0.6676  0.3183  0.0236
10393TIP3    H155374   0.946   5.714  12.631  0.8481  0.1111 -1.5722
10393TIP3    H255375   0.826   5.767  12.707  2.3930  0.6322  0.6095
10394TIP3   OH255376   0.186   2.627  11.098  0.2192  0.2899  0.9723
10394TIP3    H155377   0.243   2.690  11.054  0.5443 -1.9556 -2.1950
10394TIP3    H255378   0.246   2.565  11.139 -0.0363  0.0575  0.9940
10395TIP3   OH255379   4.012   2.679  11.706  0.8784 -0.1812 -0.4782
10395TIP3    H155380   3.920   2.704  11.697  0.1350 -1.9550  1.5802
10395TIP3    H255381   4.045   2.735  11.776  0.4876 -1.5973  0.8855
10396TIP3   OH255382   5.189   2.151  13.340 -0.4460  0.0764  0.1614
10396TIP3    H155383   5.203   2.065  13.300  0.5959 -0.5993  1.8528
10396TIP3    H255384   5.245   2.211  13.290  0.1874 -0.5844  0.0634
10397TIP3   OH255385   1.579   6.702  10.897 -0.1113  0.5541 -0.4197
10397TIP3    H155386   1.666   6.682  10.930 -0.2383 -0.9976 -0.9230
10397TIP3    H255387   1.593   6.767  10.829  0.1296  4.1719  2.7517
10398TIP3   OH255388   1.724   0.873  11.263 -0.0395  0.4201 -0.1255
10398TIP3    H155389   1.803   0.854  11.212  0.3804  1.9655 -0.1176
10398TIP3    H255390   1.704   0.965  11.243 -3.0547 -0.4487 -1.7286
10399TIP3   OH255391   6.419   2.846  12.409  0.0065  0.0523 -0.1481
10399TIP3    H155392   6.436   2.864  12.317  0.2216 -1.4830 -0.4397
10399TIP3    H255393   6.455   2.922  12.455  0.3113  0.6267 -1.2934
10400TIP3   OH255394   7.078   0.303  10.640  0.3193  0.1435 -0.8512
10400TIP3    H155395   7.106   0.221  10.598  0.8228  0.0732 -0.3921
10400TIP3    H255396   7.141   0.368  10.610  0.6020  0.1214 -0.3296
10401TIP3   OH255397   4.375   0.844  12.752 -0.7107  0.3639 -0.3701
10401TIP3    H155398   4.466   0.817  12.738 -0.7127  0.8569 -1.4621
10401TIP3    H255399   4.333   0.833  12.666 -1.9671 -0.8585  0.3511
10402TIP3   OH255400   5.449   6.261  12.216 -0.4283  0.1133 -0.3219
10402TIP3    H155401   5.421   6.250  12.126 -2.8254 -0.3167  0.4017
10402TIP3    H255402   5.484   6.175  12.241 -0.9342 -0.1458 -0.4880
10403TIP3   OH255403   2.653   7.379  11.728 -0.3773  1.3191 -0.0212
10403TIP3    H155404   2.651   7.475  11.729 -0.3433  1.3223 -0.2860
10403TIP3    H255405   2.732   7.357  11.679 -0.9084  1.1566 -0.8281
10404TIP3   OH255406   7.504   1.326  13.202 -0.1141 -0.2056  0.1724
10404TIP3    H155407   7.460   1.388  13.145  0.4630 -0.3114 -0.4080
10404TIP3    H255408   7.436   1.264  13.227 -0.4366 -0.0042 -0.1885
10405TIP3   OH255409   3.775   3.252  10.645  0.2087  0.0154  0.2442
10405TIP3    H155410   3.693   3.297  10.663  0.5579  0.5658  0.4849
10405TIP3    H255411   3.840   3.322  10.636  0.4034 -0.3213 -1.3151
10406TIP3   OH255412   2.593   1.059  12.193 -0.0219 -0.2124  0.0234
10406TIP3    H155413   2.531   1.086  12.125  0.1384 -0.2887 -0.1523
10406TIP3    H255414   2.592   1.132  12.255  0.9497  0.5451 -0.8182
10407TIP3   OH255415   7.232   7.447  11.324  0.7089 -0.2104 -0.3579
10407TIP3    H155416   7.324   7.471  11.334  0.5114  0.9181 -1.0434
10407TIP3    H255417   7.207   7.482  11.238 -1.8781  4.8287  1.9367
10408TIP3   OH255418   7.497   1.439  11.099  0.2713 -0.3067 -0.4801
10408TIP3    H155419   7.441   1.369  11.065 -0.3015  0.1958 -0.5793
10408TIP3    H255420   7.473   1.517  11.049 -0.2833  0.3525  0.7601
10409TIP3   OH255421   7.365   7.381  10.884 -0.0006 -0.2803  0.4095
10409TIP3    H155422   7.455   7.403  10.906  0.1466  1.0021 -1.3172
10409TIP3    H255423   7.371   7.328  10.805 -0.7746  0.3345 -0.0800
10410TIP3   OH255424   5.078   4.244  12.308  0.0403  0.1480 -0.4314
10410TIP3    H155425   5.102   4.187  12.235 -1.6470 -0.3709 -0.6332
10410TIP3    H255426   5.128   4.210  12.382  3.4107  1.9577 -1.6753
10411TIP3   OH255427   2.817   3.536  12.786  0.0284 -0.6073  0.1659
10411TIP3    H155428   2.817   3.623  12.744  1.3456 -0.7662 -0.2092
10411TIP3    H255429   2.877   3.545  12.860 -0.1195 -1.1039  0.3477
10412TIP3   OH255430   4.398   1.289  10.867 -0.1357 -0.3730 -0.0506
10412TIP3    H155431   4.346   1.285  10.787 -1.7540  2.3483  0.7373
10412TIP3    H255432   4.413   1.382  10.881  3.2482 -0.9307  0.9346
10413TIP3   OH255433   7.220   4.850  11.954  0.3944 -0.4737  0.1331
10413TIP3    H155434   7.245   4.869  11.863 -0.4156  0.3449  0.0673
10413TIP3    H255435   7.250   4.926  12.004  0.3164 -0.6587  0.4668
10414TIP3   OH255436   1.183   4.077  12.897 -0.6431 -0.1388  0.3477
10414TIP3    H155437   1.108   4.036  12.855 -0.9972  1.0190 -0.1876
10414TIP3    H255438   1.155   4.095  12.986 -1.2602  0.8937 -0.0365
10415TIP3   OH255439   5.874   6.202  12.266  0.4360 -0.5493 -0.1218
10415TIP3    H155440   5.820   6.276  12.243 -0.9924 -1.5100  0.0317
10415TIP3    H255441   5.949   6.207  12.206 -0.2438  0.3154 -0.9248
10416TIP3   OH255442   4.301   3.646  11.157  0.3576  0.1125  0.0586
10416TIP3    H155443   4.319   3.590  11.233  0.2910 -0.3716 -0.2725
10416TIP3    H255444   4.310   3.735  11.189  0.1605 -0.0876  0.6785
10417TIP3   OH255445   2.617   4.924  10.665 -0.0763  0.7334 -1.0696
10417TIP3    H155446   2.540   4.878  10.700 -1.9342  3.3502 -1.4058
10417TIP3    H255447   2.622   4.896  10.574 -1.7575  1.7714 -1.5354
10418TIP3   OH255448   0.235   3.987  10.340  0.3762 -0.3882 -0.1021
10418TIP3    H155449   0.316   4.031  10.364 -1.4531  2.0753  2.1609
10418TIP3    H255450   0.230   3.997  10.245  2.8564 -0.9671 -0.3496
10419TIP3   OH255451   4.753   2.805  10.998 -0.0137  0.0608 -0.4996
10419TIP3    H155452   4.809   2.868  10.952 -1.6672  2.0028 -0.0224
10419TIP3    H255453   4.687   2.780  10.934 -0.4577  0.2862 -0.1351
10420TIP3   OH255454   6.440   1.151  11.912  0.1129  0.4145  0.2546
10420TIP3    H155455   6.466   1.100  11.836 -0.1828  1.0702 -0.3016
10420TIP3    H255456   6.368   1.206  11.880 -0.9111 -0.2375  1.3354
10421TIP3   OH255457   0.335   5.265  13.389 -0.0347  0.2621  1.1107
10421TIP3    H155458   0.409   5.217  13.351 -0.1065 -0.2959  1.6702
10421TIP3    H255459   0.337   5.349  13.344  0.1836 -0.2030  0.2248
10422TIP3   OH255460   1.788   2.786  11.092 -0.1310  0.3125 -0.1617
10422TIP3    H155461   1.785   2.868  11.141 -0.2285 -0.1663  0.6457
10422TIP3    H255462   1.844   2.806  11.016  0.8087  0.8050  0.6412
10423TIP3   OH255463   2.224   2.971  12.323  0.4176  0.3825 -0.5342
10423TIP3    H155464   2.155   3.030  12.355 -0.0832 -0.6811  0.3931
10423TIP3    H255465   2.285   2.964  12.396 -0.0933 -1.0876 -0.2109
10424TIP3   OH255466   1.757   4.278  12.009 -0.3174  0.3640  0.5572
10424TIP3    H155467   1.699   4.263  12.084  1.2875  0.1156  1.7970
10424TIP3    H255468   1.780   4.190  11.979  1.3956  0.3787  1.6947
10425TIP3   OH255469   0.508   5.625  11.605 -0.3388  0.4034  0.0931
10425TIP3    H155470   0.526   5.557  11.669 -0.3113  0.2542 -0.0728
10425TIP3    H255471   0.560   5.700  11.634 -1.4715  0.8379  1.0933
10426TIP3   OH255472   1.032   0.774  11.932 -0.0145  0.0220 -0.1558
10426TIP3    H155473   0.957   0.777  11.990  0.1090  1.1404 -0.0430
10426TIP3    H255474   1.018   0.696  11.879 -0.3348 -0.7987  1.0800
10427TIP3   OH255475   5.300   1.094  11.148  0.2553 -0.2738  0.0900
10427TIP3    H155476   5.233   1.079  11.215 -0.4295 -0.3428 -0.5969
10427TIP3    H255477   5.376   1.125  11.197  0.7804 -3.0618  1.2705
10428TIP3   OH255478   7.588   6.961  13.085 -0.2105 -0.3670 -0.2443
10428TIP3    H155479   7.566   6.881  13.037 -1.9714  1.2481 -2.3465
10428TIP3    H255480   7.516   6.973  13.147 -0.7706  0.3597 -1.0157
10429TIP3   OH255481   0.053   2.350  12.232  0.5999  0.2200 -0.2012
10429TIP3    H155482   0.106   2.291  12.178 -0.0699 -0.2825 -0.3238
10429TIP3    H255483  -0.028   2.301  12.248 -0.7767  1.8190 -1.8937
10430TIP3   OH255484   7.674   1.353  12.251 -0.3624  0.3553 -0.2294
10430TIP3    H155485   7.712   1.266  12.241 -1.9525 -0.3464 -0.4651
10430TIP3    H255486   7.668   1.388  12.162 -0.2225  0.4970 -0.1848
10431TIP3   OH255487   2.822   0.172  12.265  0.0090 -0.5240 -0.3188
10431TIP3    H155488   2.751   0.162  12.328  0.2518  0.6720  0.1727
10431TIP3    H255489   2.874   0.093  12.275 -1.6555 -1.7962 -1.2507
10432TIP3   OH255490   4.497   5.028  11.200  0.1594  0.4225  0.1044
10432TIP3    H155491   4.516   5.090  11.271 -0.2091  2.0658 -1.1752
10432TIP3    H255492   4.523   4.943  11.235  1.7445  1.4332  1.5291
10433TIP3   OH255493   4.714   1.186  11.325  0.0301  0.6316  0.3154
10433TIP3    H155494   4.703   1.227  11.411 -1.1329  2.0066 -0.4375
10433TIP3    H255495   4.646   1.227  11.270  2.0102  1.2903 -1.7990
10434TIP3   OH255496   6.680   1.718  10.924 -0.1570 -0.2425 -0.2750
10434TIP3    H155497   6.632   1.784  10.974  0.0349  0.1055 -0.5420
10434TIP3    H255498   6.641   1.723  10.836 -0.1091 -0.4521 -0.3083
10435TIP3   OH255499   7.202   2.332  12.473 -0.3526  0.6621  0.0178
10435TIP3    H155500   7.149   2.294  12.402 -0.3962  2.8237 -1.1918
10435TIP3    H255501   7.240   2.257  12.517 -1.6847 -0.8339 -1.2431
10436TIP3   OH255502   5.706   1.089  11.572  0.5393 -0.5468 -0.2332
10436TIP3    H155503   5.716   1.178  11.605 -0.6467 -0.2931 -0.5031
10436TIP3    H255504   5.782   1.075  11.516 -0.5193  1.2789 -2.2823
10437TIP3   OH255505   1.616   4.539  11.942  0.5254  0.1115  0.1567
10437TIP3    H155506   1.632   4.445  11.942  1.5666  0.2781 -0.0048
10437TIP3    H255507   1.676   4.573  11.876 -0.9219  0.7239 -0.9075
10438TIP3   OH255508   6.671   3.913  12.824 -0.4415  0.6577 -0.1120
10438TIP3    H155509   6.754   3.939  12.785 -1.5039  0.3249 -2.8843
10438TIP3    H255510   6.695   3.862  12.901  1.9402  0.0110 -1.1931
10439TIP3   OH255511   1.055   0.038  12.189 -0.7011  0.2894 -0.6137
10439TIP3    H155512   0.978   0.020  12.135  0.0159 -2.0116 -0.9515
10439TIP3    H255513   1.075  -0.045  12.231  1.0106  1.1094  0.2808
   7.68049   7.68049  30.00000
